 Gaussian 16, Revision A.03,
 Gaussian 16:  ES64L-G16RevA.03 25-Dec-2016

 ----------------------------------------------------------------------
 # td=(NStates=1) iop(3/107=0140000000,3/108=0140000000) CAM-B3LYP/6-31
 G(d,p)
 ----------------------------------------------------------------------

 --
 TD
 --
 Symbolic Z-matrix:
 Charge =  0 Multiplicity = 1

                         Standard orientation:
 ---------------------------------------------------------------------
 Center     Atomic      Atomic             Coordinates (Angstroms)
 Number     Number       Type             X           Y           Z
 ---------------------------------------------------------------------
      1         12           0       -7.166966    0.653534    0.137144
      2          6           0       -4.860258   -2.027842    0.397395
      3          6           0       -4.826031    2.834147    1.247859
      4          6           0       -9.394831    3.134026   -0.431578
      5          6           0       -9.446655   -1.670262   -0.955827
      6          7           0       -5.185661    0.375894    0.743220
      7          6           0       -4.404838   -0.740405    0.810353
      8          6           0       -2.847819   -0.433710    1.284341
      9          6           0       -3.105101    0.998038    1.776436
     10          6           0       -4.440566    1.444467    1.253436
     11          6           0       -2.957147    1.149486    3.274335
     12          6           0       -1.986733   -0.566672    0.068681
     13          6           0       -0.584212   -0.506937    0.656647
     14          6           0        0.529998   -0.645348   -0.494137
     15          8           0        0.168109   -0.921102   -1.654327
     16          8           0        1.700122   -0.331301   -0.039863
     17          7           0       -7.054604    2.685448    0.250726
     18          6           0       -6.012917    3.390777    0.747359
     19          6           0       -6.368386    4.800920    0.865381
     20          6           0       -7.656560    4.904150    0.390223
     21          6           0       -8.086851    3.502158    0.050707
     22          6           0       -5.438577    5.938760    1.217972
     23          6           0       -8.433780    6.079270    0.226409
     24          6           0       -8.329456    7.342960    0.799949
     25          7           0       -9.083633    0.706204   -0.530604
     26          6           0       -9.830388    1.824555   -0.768653
     27          6           0      -11.189839    1.457492   -1.203529
     28          6           0      -11.118188    0.159428   -1.332695
     29          6           0       -9.902581   -0.349761   -0.997600
     30          6           0      -12.215110    2.456333   -1.644036
     31          6           0      -12.323687   -0.656674   -1.787398
     32          6           0      -12.236147   -1.081340   -3.192031
     33          7           0       -7.195467   -1.406435   -0.196586
     34          6           0       -8.191577   -2.222590   -0.589542
     35          6           0       -7.875559   -3.682411   -0.467340
     36          6           0       -6.488049   -3.629974   -0.134436
     37          6           0       -6.140662   -2.234651   -0.013696
     38          6           0       -8.631083   -4.800818   -0.858870
     39          6           0       -5.337838   -4.346818    0.224481
     40          8           0       -5.297911   -5.654431    0.199973
     41          6           0       -4.257037   -3.381485    0.575326
     42          6           0       -3.538314   -3.729470    1.913370
     43          8           0       -3.864215   -3.237590    2.932441
     44          8           0       -2.762841   -4.750732    1.693278
     45          6           0       -2.188116   -5.378409    2.880589
     46          6           0        2.754341   -0.619461   -1.022559
     47          6           0        4.225409   -0.450287   -0.489198
     48          6           0        5.147781    0.432055   -0.878512
     49          6           0        5.115960    1.297055   -2.074550
     50          6           0        6.483507    0.468339   -0.226190
     51          6           0        7.692118   -0.076643   -0.985228
     52          6           0        8.970568   -0.186310   -0.145022
     53          6           0       10.224526   -0.644270   -0.814643
     54          6           0       10.079557   -2.121657   -1.383523
     55          6           0       11.454103   -0.464980    0.108515
     56          6           0       12.748065   -0.564092   -0.627700
     57          6           0       14.000070   -0.179129    0.129142
     58          6           0       15.338556   -0.299922   -0.592615
     59          6           0       15.613213   -1.787168   -0.833527
     60          6           0       16.344000    0.360665    0.319827
     61          6           0       17.784036    0.459567   -0.255450
     62          6           0       18.714680    1.447206    0.597340
     63          6           0       20.184974    1.518176    0.220043
     64          6           0       20.338757    2.157559   -1.119688
     65          6           0       21.035350    2.098291    1.312581
     66          1           0       -4.066186    3.429367    1.723564
     67          1           0      -10.059534    4.042471   -0.716174
     68          1           0      -10.130700   -2.487646   -1.088374
     69          1           0       -2.683715   -1.019083    2.067644
     70          1           0       -2.284689    1.450524    1.334146
     71          1           0       -2.083280    0.733404    3.609189
     72          1           0       -3.011434    2.218797    3.461337
     73          1           0       -3.791032    0.717820    3.992595
     74          1           0       -2.121300   -1.523519   -0.696717
     75          1           0       -2.260988    0.441234   -0.570092
     76          1           0       -0.508507    0.482334    1.091439
     77          1           0       -0.360828   -1.308561    1.206987
     78          1           0       -5.637684    6.855759    0.713229
     79          1           0       -5.564772    6.024940    2.326891
     80          1           0       -4.464466    5.844969    1.098576
     81          1           0       -9.248252    6.121412   -0.498210
     82          1           0       -9.057133    8.172727    0.518322
     83          1           0       -7.581215    7.646970    1.592594
     84          1           0      -11.578516    3.148354   -2.312395
     85          1           0      -13.289772    2.303431   -2.189154
     86          1           0      -12.289240    2.943848   -0.692966
     87          1           0      -12.433468   -1.633106   -1.423518
     88          1           0      -13.270182   -0.142997   -1.809543
     89          1           0      -13.062715   -1.586657   -3.318887
     90          1           0      -12.138220   -0.358600   -3.844810
     91          1           0      -11.503401   -1.929148   -3.354123
     92          1           0       -9.210807   -4.513773   -1.750144
     93          1           0       -8.158261   -5.765230   -0.926312
     94          1           0       -9.433103   -4.852356   -0.139370
     95          1           0       -3.506731   -3.737474   -0.191583
     96          1           0       -1.422759   -4.742949    3.345675
     97          1           0       -2.875368   -5.850066    3.521242
     98          1           0       -1.694148   -6.179602    2.369945
     99          1           0        2.324649   -1.692514   -1.347876
    100          1           0        2.925407   -0.034634   -1.870727
    101          1           0        4.235796   -1.362359    0.258630
    102          1           0        4.043627    1.700030   -2.620242
    103          1           0        5.511886    2.225244   -1.943936
    104          1           0        5.664893    0.976694   -2.989907
    105          1           0        6.764578    1.502972    0.124634
    106          1           0        6.394516   -0.025084    0.598441
    107          1           0        7.441098   -0.934756   -1.393434
    108          1           0        7.882477    0.615593   -1.755167
    109          1           0        9.216185    0.886340    0.137834
    110          1           0        8.867811   -0.750822    0.852217
    111          1           0       10.492411    0.090851   -1.715779
    112          1           0        9.322680   -2.225603   -2.023044
    113          1           0       10.915849   -2.364270   -1.825180
    114          1           0       10.164143   -2.598685   -0.332300
    115          1           0       11.447825    0.553311    0.429984
    116          1           0       11.536649   -1.110328    1.041842
    117          1           0       12.891809   -1.508059   -1.029304
    118          1           0       12.800584    0.022069   -1.487240
    119          1           0       13.777786    0.804981    0.455927
    120          1           0       14.019861   -0.700565    0.970171
    121          1           0       15.288696    0.268778   -1.534500
    122          1           0       15.653534   -2.465027    0.117341
    123          1           0       14.994642   -2.186696   -1.614161
    124          1           0       16.657293   -1.768226   -1.413203
    125          1           0       15.874266    1.464387    0.237265
    126          1           0       16.210479   -0.175074    1.309628
    127          1           0       18.429364   -0.510579   -0.111053
    128          1           0       17.694485    0.669578   -1.202542
    129          1           0       18.232946    2.535607    0.602080
    130          1           0       18.668006    0.800400    1.703702
    131          1           0       20.549552    0.439901    0.164874
    132          1           0       19.785328    3.210662   -1.310056
    133          1           0       21.390503    2.198286   -1.529382
    134          1           0       20.068554    1.580062   -2.015108
    135          1           0       21.201278    1.341231    2.136778
    136          1           0       22.055578    2.310041    1.075423
    137          1           0       20.670356    3.001441    1.657808
 ---------------------------------------------------------------------

 SCF Done:  E(RCAM-B3LYP) =  -2933.46502330     A.U. after   16 cycles

 Excitation energies and oscillator strengths:

 Excited State   1:      Singlet-A      1.9625 eV  631.76 nm  f=0.2694  <S**2>=0.000
     240 -> 243       -0.23665
     241 -> 242        0.66357
 This state for optimization and/or second-order correction.
 Total Energy, E(TD-HF/TD-DFT) =  -2933.39290217
 Copying the excited state density for this state as the 1-particle RhoCI density.

 The electronic state is 1-A.
 Alpha  occ. eigenvalues --  -46.79868 -19.24118 -19.22913 -19.16406 -19.16216
 Alpha  occ. eigenvalues --  -19.13592 -14.38089 -14.35327 -14.34613 -14.34499
 Alpha  occ. eigenvalues --  -10.34398 -10.34053 -10.28519 -10.28117 -10.26908
 Alpha  occ. eigenvalues --  -10.26551 -10.26344 -10.25229 -10.25075 -10.24770
 Alpha  occ. eigenvalues --  -10.24592 -10.24465 -10.23952 -10.23847 -10.23835
 Alpha  occ. eigenvalues --  -10.23668 -10.23278 -10.23261 -10.23222 -10.23142
 Alpha  occ. eigenvalues --  -10.23045 -10.22977 -10.22729 -10.22603 -10.22423
 Alpha  occ. eigenvalues --  -10.22320 -10.22275 -10.22178 -10.22129 -10.22044
 Alpha  occ. eigenvalues --  -10.22029 -10.21953 -10.21950 -10.21886 -10.21769
 Alpha  occ. eigenvalues --  -10.21693 -10.21430 -10.21305 -10.21241 -10.21214
 Alpha  occ. eigenvalues --  -10.21210 -10.20853 -10.20823 -10.20727 -10.20727
 Alpha  occ. eigenvalues --  -10.20439 -10.20200 -10.19976 -10.19956 -10.19787
 Alpha  occ. eigenvalues --  -10.19223 -10.19055 -10.18506 -10.18273 -10.17382
 Alpha  occ. eigenvalues --   -3.08452  -1.83392  -1.82910  -1.82874  -1.14912
 Alpha  occ. eigenvalues --   -1.14837  -1.06247  -1.03237  -1.00042  -0.99221
 Alpha  occ. eigenvalues --   -0.98356  -0.97651  -0.97045  -0.87945  -0.87578
 Alpha  occ. eigenvalues --   -0.86357  -0.85994  -0.84715  -0.84570  -0.83831
 Alpha  occ. eigenvalues --   -0.83629  -0.83334  -0.82573  -0.81974  -0.81345
 Alpha  occ. eigenvalues --   -0.80700  -0.79525  -0.79199  -0.78680  -0.77953
 Alpha  occ. eigenvalues --   -0.77040  -0.76581  -0.75783  -0.75525  -0.73798
 Alpha  occ. eigenvalues --   -0.73438  -0.72826  -0.72750  -0.72266  -0.71636
 Alpha  occ. eigenvalues --   -0.71341  -0.70472  -0.69995  -0.69184  -0.67621
 Alpha  occ. eigenvalues --   -0.66842  -0.66308  -0.64937  -0.64587  -0.63983
 Alpha  occ. eigenvalues --   -0.63465  -0.62704  -0.61486  -0.61118  -0.60395
 Alpha  occ. eigenvalues --   -0.60029  -0.59782  -0.58654  -0.58216  -0.57764
 Alpha  occ. eigenvalues --   -0.57419  -0.56860  -0.56309  -0.55969  -0.55538
 Alpha  occ. eigenvalues --   -0.55045  -0.54150  -0.53954  -0.53749  -0.52973
 Alpha  occ. eigenvalues --   -0.52593  -0.52383  -0.52187  -0.51838  -0.51229
 Alpha  occ. eigenvalues --   -0.51038  -0.50888  -0.50635  -0.50440  -0.50136
 Alpha  occ. eigenvalues --   -0.49368  -0.49105  -0.48796  -0.48610  -0.48103
 Alpha  occ. eigenvalues --   -0.47730  -0.47370  -0.47308  -0.47023  -0.46892
 Alpha  occ. eigenvalues --   -0.46653  -0.46526  -0.46322  -0.46313  -0.45996
 Alpha  occ. eigenvalues --   -0.45847  -0.45467  -0.45361  -0.45290  -0.45226
 Alpha  occ. eigenvalues --   -0.44728  -0.44592  -0.44441  -0.43859  -0.43720
 Alpha  occ. eigenvalues --   -0.43387  -0.43154  -0.42871  -0.42831  -0.42679
 Alpha  occ. eigenvalues --   -0.42387  -0.42324  -0.41950  -0.41808  -0.41723
 Alpha  occ. eigenvalues --   -0.41609  -0.41355  -0.41216  -0.41037  -0.40719
 Alpha  occ. eigenvalues --   -0.40511  -0.40175  -0.40097  -0.40033  -0.39955
 Alpha  occ. eigenvalues --   -0.39647  -0.39255  -0.39002  -0.38917  -0.38601
 Alpha  occ. eigenvalues --   -0.38422  -0.38371  -0.38235  -0.38208  -0.37862
 Alpha  occ. eigenvalues --   -0.37518  -0.37316  -0.37060  -0.36843  -0.36833
 Alpha  occ. eigenvalues --   -0.36686  -0.36617  -0.36411  -0.35972  -0.35928
 Alpha  occ. eigenvalues --   -0.35673  -0.35361  -0.35240  -0.35139  -0.35045
 Alpha  occ. eigenvalues --   -0.34642  -0.34481  -0.34150  -0.33962  -0.33717
 Alpha  occ. eigenvalues --   -0.33579  -0.33491  -0.33095  -0.32680  -0.32578
 Alpha  occ. eigenvalues --   -0.32317  -0.32078  -0.31894  -0.31765  -0.30498
 Alpha  occ. eigenvalues --   -0.30063  -0.29699  -0.29058  -0.28010  -0.27736
 Alpha  occ. eigenvalues --   -0.25884  -0.25350  -0.25080  -0.24395  -0.21038
 Alpha  occ. eigenvalues --   -0.19150
 Alpha virt. eigenvalues --   -0.06599  -0.03539  -0.00261   0.01717   0.02197
 Alpha virt. eigenvalues --    0.04524   0.04694   0.04992   0.05719   0.06230
 Alpha virt. eigenvalues --    0.07251   0.09430   0.09518   0.09851   0.10112

 Mulliken charges:
               1
     1  Mg   0.820568
     2  C    0.081054
     3  C   -0.190121
     4  C   -0.190495
     5  C   -0.202538
     6  N   -0.616946
     7  C    0.247403
     8  C   -0.116703
     9  C   -0.145759
    10  C    0.333217
    11  C   -0.311945
    12  C   -0.157346
    13  C   -0.248627
    14  C    0.570871
    15  O   -0.485086
    16  O   -0.417785
    17  N   -0.712132
    18  C    0.306047
    19  C    0.014050
    20  C    0.033888
    21  C    0.314058
    22  C   -0.368975
    23  C   -0.107346
    24  C   -0.256486
    25  N   -0.697911
    26  C    0.294295
    27  C    0.012724
    28  C    0.053783
    29  C    0.316582
    30  C   -0.364842
    31  C   -0.235495
    32  C   -0.307360
    33  N   -0.696279
    34  C    0.266699
    35  C    0.057225
    36  C    0.065635
    37  C    0.267840
    38  C   -0.395857
    39  C    0.311252
    40  O   -0.535174
    41  C   -0.311684
    42  C    0.610456
    43  O   -0.452745
    44  O   -0.421084
    45  C   -0.104847
    46  C   -0.000643
    47  C   -0.156098
    48  C    0.140477
    49  C   -0.381889
    50  C   -0.223280
    51  C   -0.171219
    52  C   -0.157065
    53  C   -0.075579
    54  C   -0.296293
    55  C   -0.174614
    56  C   -0.187308
    57  C   -0.165214
    58  C   -0.076024
    59  C   -0.302018
    60  C   -0.138759
    61  C   -0.163606
    62  C   -0.145477
    63  C   -0.033071
    64  C   -0.311682
    65  C   -0.305832
    66  H    0.078221
    67  H    0.081935
    68  H    0.063858
    69  H    0.113609
    70  H    0.101670
    71  H    0.117573
    72  H    0.106951
    73  H    0.110896
    74  H    0.118853
    75  H    0.092205
    76  H    0.129758
    77  H    0.136791
    78  H    0.128099
    79  H    0.117773
    80  H    0.121493
    81  H    0.088423
    82  H    0.095791
    83  H    0.096363
    84  H    0.122285
    85  H    0.111323
    86  H    0.139856
    87  H    0.102240
    88  H    0.096845
    89  H    0.107938
    90  H    0.112486
    91  H    0.085716
    92  H    0.128197
    93  H    0.158863
    94  H    0.132913
    95  H    0.154004
    96  H    0.128484
    97  H    0.151048
    98  H    0.136682
    99  H    0.111078
   100  H    0.129149
   101  H    0.091082
   102  H    0.084561
   103  H    0.133500
   104  H    0.135680
   105  H    0.092647
   106  H    0.110305
   107  H    0.108914
   108  H    0.098986
   109  H    0.079305
   110  H    0.078772
   111  H    0.055931
   112  H    0.109664
   113  H    0.115117
   114  H    0.090057
   115  H    0.094066
   116  H    0.080169
   117  H    0.092283
   118  H    0.087849
   119  H    0.078463
   120  H    0.089817
   121  H    0.078423
   122  H    0.095054
   123  H    0.112160
   124  H    0.078821
   125  H    0.071953
   126  H    0.084463
   127  H    0.079042
   128  H    0.099719
   129  H    0.071095
   130  H    0.050622
   131  H    0.077964
   132  H    0.082765
   133  H    0.090888
   134  H    0.104859
   135  H    0.092805
   136  H    0.102068
   137  H    0.109881
 Sum of Mulliken charges =  -0.00000

 Dipole moment (field-independent basis, Debye):
    X=              4.6309    Y=              3.5531    Z=              0.4346  Tot=              5.8531
 Quadrupole moment (field-independent basis, Debye-Ang):
   XX=           -338.0970   YY=           -395.8083   ZZ=           -394.7320
   XY=            -19.9633   XZ=              1.8621   YZ=             -7.4725

 Normal termination of Gaussian 16 at Fri Sep 13 01:40:11 2019.
