 Gaussian 16, Revision A.03,
 Gaussian 16:  ES64L-G16RevA.03 25-Dec-2016

 ----------------------------------------------------------------------
 # td=(NStates=1) iop(3/107=0140000000,3/108=0140000000) CAM-B3LYP/6-31
 G(d,p)
 ----------------------------------------------------------------------

 --
 TD
 --
 Symbolic Z-matrix:
 Charge =  0 Multiplicity = 1

                         Standard orientation:
 ---------------------------------------------------------------------
 Center     Atomic      Atomic             Coordinates (Angstroms)
 Number     Number       Type             X           Y           Z
 ---------------------------------------------------------------------
      1         12           0       -7.097521    0.582694    0.062552
      2          6           0       -4.918289   -2.053217    0.515911
      3          6           0       -4.837755    2.870834    1.179619
      4          6           0       -9.385434    3.127647   -0.476322
      5          6           0       -9.557625   -1.709873   -0.848383
      6          7           0       -5.090858    0.423973    0.821788
      7          6           0       -4.353113   -0.720154    0.766080
      8          6           0       -3.007392   -0.452222    1.280008
      9          6           0       -3.012279    1.047149    1.649668
     10          6           0       -4.371309    1.483429    1.256020
     11          6           0       -2.823681    1.198779    3.167911
     12          6           0       -1.860883   -0.724857    0.140479
     13          6           0       -0.517352   -0.525557    0.600479
     14          6           0        0.481209   -0.823783   -0.561367
     15          8           0        0.212035   -1.135173   -1.637815
     16          8           0        1.754019   -0.570778   -0.200645
     17          7           0       -7.099663    2.533510    0.334075
     18          6           0       -6.029705    3.346994    0.767279
     19          6           0       -6.341670    4.751392    0.852008
     20          6           0       -7.683001    4.881445    0.419219
     21          6           0       -8.123054    3.576267    0.130546
     22          6           0       -5.423234    5.953533    1.189963
     23          6           0       -8.547995    6.103673    0.166094
     24          6           0       -8.532066    7.276645    0.716955
     25          7           0       -9.018450    0.748340   -0.635077
     26          6           0       -9.810176    1.946807   -0.711503
     27          6           0      -11.181279    1.621314   -1.108490
     28          6           0      -11.277246    0.203547   -1.209412
     29          6           0       -9.897993   -0.282100   -0.940923
     30          6           0      -12.264698    2.541366   -1.504517
     31          6           0      -12.355176   -0.675957   -1.751233
     32          6           0      -11.991687   -1.194348   -3.176879
     33          7           0       -7.266109   -1.355031   -0.277400
     34          6           0       -8.211974   -2.135410   -0.584137
     35          6           0       -7.872636   -3.617519   -0.476324
     36          6           0       -6.572071   -3.522032   -0.127142
     37          6           0       -6.226459   -2.189020    0.117073
     38          6           0       -8.727823   -4.753307   -0.845632
     39          6           0       -5.341974   -4.381867    0.082304
     40          8           0       -5.205848   -5.600847    0.160827
     41          6           0       -4.245815   -3.356342    0.460816
     42          6           0       -3.582995   -3.718658    1.834232
     43          8           0       -3.777092   -3.219656    2.915343
     44          8           0       -2.812882   -4.806356    1.736459
     45          6           0       -2.234745   -5.372028    2.861883
     46          6           0        2.849330   -0.719119   -1.077354
     47          6           0        4.131846   -0.406944   -0.494196
     48          6           0        5.160132    0.274776   -0.928398
     49          6           0        5.071541    1.063685   -2.233021
     50          6           0        6.404920    0.438815   -0.201548
     51          6           0        7.630794   -0.178070   -0.872121
     52          6           0        8.953659    0.003486   -0.011467
     53          6           0       10.179775   -0.549035   -0.741404
     54          6           0       10.040151   -2.032248   -1.034333
     55          6           0       11.458943   -0.121307    0.016102
     56          6           0       12.807891   -0.586511   -0.662127
     57          6           0       13.993180   -0.065915    0.207118
     58          6           0       15.289903   -0.123587   -0.577991
     59          6           0       15.575099   -1.669460   -0.966165
     60          6           0       16.441606    0.422117    0.302549
     61          6           0       17.817124    0.627678   -0.354950
     62          6           0       18.776484    1.286152    0.578922
     63          6           0       20.272820    1.395358    0.213122
     64          6           0       20.307939    2.140609   -1.205535
     65          6           0       21.110738    1.924595    1.327439
     66          1           0       -4.037800    3.483847    1.694860
     67          1           0      -10.157002    3.911430   -0.349059
     68          1           0      -10.166242   -2.486550   -1.125255
     69          1           0       -2.738223   -1.273250    1.945892
     70          1           0       -2.187947    1.612666    0.994252
     71          1           0       -1.819256    0.923384    3.550733
     72          1           0       -2.944128    2.317587    3.391567
     73          1           0       -3.603659    0.623472    3.671358
     74          1           0       -1.967606   -1.700318   -0.512192
     75          1           0       -2.139804    0.144705   -0.535285
     76          1           0       -0.317571    0.674597    0.886433
     77          1           0       -0.074711   -0.976011    1.455335
     78          1           0       -5.744571    6.922073    0.775990
     79          1           0       -5.459106    6.124995    2.233320
     80          1           0       -4.287550    5.681209    0.815433
     81          1           0       -9.180828    5.920798   -0.805137
     82          1           0       -9.414382    8.092499    0.317236
     83          1           0       -7.740473    7.439011    1.490102
     84          1           0      -12.049662    3.184189   -2.472293
     85          1           0      -13.174149    1.888866   -1.732182
     86          1           0      -12.240736    3.178010   -0.598379
     87          1           0      -12.424321   -1.604711   -1.129889
     88          1           0      -13.378999   -0.049604   -1.732991
     89          1           0      -12.658695   -2.105637   -3.266096
     90          1           0      -12.315379   -0.251383   -3.878875
     91          1           0      -10.830858   -1.691346   -3.169383
     92          1           0       -8.982910   -4.516646   -1.890811
     93          1           0       -8.184456   -5.672932   -0.865634
     94          1           0       -9.555532   -4.504898   -0.118648
     95          1           0       -3.397771   -3.392125   -0.213852
     96          1           0       -1.414786   -4.793652    3.504282
     97          1           0       -3.164188   -5.700637    3.544127
     98          1           0       -1.621625   -6.286013    2.287500
     99          1           0        2.679930   -1.662157   -1.451030
    100          1           0        2.569803   -0.117117   -2.133144
    101          1           0        4.341970   -0.768254    0.432624
    102          1           0        4.096153    0.997729   -2.631476
    103          1           0        5.381915    2.017663   -2.090106
    104          1           0        5.839456    0.669087   -2.917184
    105          1           0        6.627528    1.396104    0.094280
    106          1           0        6.198966    0.127305    0.775432
    107          1           0        7.538751   -1.309652   -0.982140
    108          1           0        7.895306    0.340837   -2.078716
    109          1           0        8.965414    1.002019    0.313095
    110          1           0        8.708251   -0.430661    0.946229
    111          1           0       10.334891   -0.023521   -1.704557
    112          1           0        9.172217   -2.329014   -1.627043
    113          1           0       10.862579   -2.562441   -1.640533
    114          1           0        9.938850   -2.572125   -0.006474
    115          1           0       11.461008    0.977612    0.300161
    116          1           0       11.270240   -0.588044    1.075198
    117          1           0       12.745316   -1.572423   -0.743041
    118          1           0       12.796788   -0.060831   -1.678978
    119          1           0       14.135581    1.021408    0.477318
    120          1           0       13.980418   -0.778314    1.122479
    121          1           0       15.268483    0.523911   -1.388552
    122          1           0       15.580099   -2.128911    0.022873
    123          1           0       14.722934   -2.221947   -1.356027
    124          1           0       16.693069   -1.741391   -1.449042
    125          1           0       16.126462    1.362060    0.912932
    126          1           0       16.602371   -0.305682    1.204082
    127          1           0       18.094035   -0.269283   -0.785940
    128          1           0       17.462532    1.232195   -1.276665
    129          1           0       18.350235    2.312105    0.837435
    130          1           0       18.803776    0.965108    1.511378
    131          1           0       20.519892    0.333842   -0.185896
    132          1           0       20.185388    3.289292   -0.973169
    133          1           0       21.474910    2.210644   -1.542896
    134          1           0       19.480173    1.629677   -1.802806
    135          1           0       21.026884    1.277872    2.254379
    136          1           0       22.078326    1.938619    1.248139
    137          1           0       20.691008    2.827775    1.805720
 ---------------------------------------------------------------------

 SCF Done:  E(RCAM-B3LYP) =  -2933.45723286     A.U. after   16 cycles

 Excitation energies and oscillator strengths:

 Excited State   1:      Singlet-A      1.9513 eV  635.39 nm  f=0.2175  <S**2>=0.000
     240 -> 243       -0.23700
     241 -> 242        0.66238
 This state for optimization and/or second-order correction.
 Total Energy, E(TD-HF/TD-DFT) =  -2933.38552316
 Copying the excited state density for this state as the 1-particle RhoCI density.

 The electronic state is 1-A.
 Alpha  occ. eigenvalues --  -46.79056 -19.22394 -19.20608 -19.17542 -19.17181
 Alpha  occ. eigenvalues --  -19.16855 -14.38140 -14.35546 -14.34849 -14.34624
 Alpha  occ. eigenvalues --  -10.35071 -10.34041 -10.31871 -10.29863 -10.27598
 Alpha  occ. eigenvalues --  -10.26629 -10.25759 -10.25566 -10.25189 -10.25072
 Alpha  occ. eigenvalues --  -10.24747 -10.24561 -10.24347 -10.24220 -10.24110
 Alpha  occ. eigenvalues --  -10.24054 -10.23934 -10.23774 -10.23614 -10.23537
 Alpha  occ. eigenvalues --  -10.23370 -10.23365 -10.22981 -10.22964 -10.22810
 Alpha  occ. eigenvalues --  -10.22786 -10.22763 -10.22586 -10.22539 -10.22368
 Alpha  occ. eigenvalues --  -10.22309 -10.22217 -10.22208 -10.22198 -10.22197
 Alpha  occ. eigenvalues --  -10.22071 -10.22051 -10.21824 -10.21757 -10.21738
 Alpha  occ. eigenvalues --  -10.21690 -10.21660 -10.21589 -10.21469 -10.21343
 Alpha  occ. eigenvalues --  -10.21332 -10.21277 -10.21141 -10.20996 -10.20870
 Alpha  occ. eigenvalues --  -10.20549 -10.20081 -10.19700 -10.19678 -10.19336
 Alpha  occ. eigenvalues --   -3.07858  -1.82777  -1.82338  -1.82283  -1.14900
 Alpha  occ. eigenvalues --   -1.14798  -1.06472  -1.06286  -1.05226  -1.01523
 Alpha  occ. eigenvalues --   -0.99455  -0.95576  -0.94429  -0.89428  -0.87342
 Alpha  occ. eigenvalues --   -0.85547  -0.85204  -0.84590  -0.83973  -0.83348
 Alpha  occ. eigenvalues --   -0.83262  -0.82775  -0.82589  -0.81936  -0.81031
 Alpha  occ. eigenvalues --   -0.80071  -0.79388  -0.78948  -0.78517  -0.77479
 Alpha  occ. eigenvalues --   -0.76777  -0.76248  -0.76108  -0.75133  -0.74052
 Alpha  occ. eigenvalues --   -0.72752  -0.72514  -0.72304  -0.71369  -0.70924
 Alpha  occ. eigenvalues --   -0.70618  -0.69928  -0.69713  -0.69247  -0.67582
 Alpha  occ. eigenvalues --   -0.66740  -0.66538  -0.64954  -0.63875  -0.63381
 Alpha  occ. eigenvalues --   -0.62460  -0.61456  -0.60905  -0.60534  -0.60084
 Alpha  occ. eigenvalues --   -0.59527  -0.59195  -0.58995  -0.58752  -0.58019
 Alpha  occ. eigenvalues --   -0.57721  -0.56901  -0.55698  -0.55285  -0.55049
 Alpha  occ. eigenvalues --   -0.54693  -0.53889  -0.53585  -0.53131  -0.52998
 Alpha  occ. eigenvalues --   -0.51985  -0.51882  -0.51123  -0.51072  -0.50780
 Alpha  occ. eigenvalues --   -0.50685  -0.50499  -0.50214  -0.49565  -0.49349
 Alpha  occ. eigenvalues --   -0.49197  -0.49020  -0.48852  -0.48664  -0.48130
 Alpha  occ. eigenvalues --   -0.47826  -0.47489  -0.47456  -0.47310  -0.47082
 Alpha  occ. eigenvalues --   -0.46834  -0.46684  -0.46130  -0.45960  -0.45625
 Alpha  occ. eigenvalues --   -0.45543  -0.45488  -0.45232  -0.45071  -0.45040
 Alpha  occ. eigenvalues --   -0.44813  -0.44626  -0.44365  -0.44006  -0.43713
 Alpha  occ. eigenvalues --   -0.43603  -0.43288  -0.43049  -0.42874  -0.42696
 Alpha  occ. eigenvalues --   -0.42581  -0.42233  -0.42017  -0.41678  -0.41594
 Alpha  occ. eigenvalues --   -0.41202  -0.41139  -0.41050  -0.41013  -0.40658
 Alpha  occ. eigenvalues --   -0.40451  -0.40327  -0.40119  -0.39977  -0.39717
 Alpha  occ. eigenvalues --   -0.39608  -0.39468  -0.39331  -0.39270  -0.38839
 Alpha  occ. eigenvalues --   -0.38560  -0.38268  -0.38249  -0.38082  -0.38034
 Alpha  occ. eigenvalues --   -0.37780  -0.37587  -0.37432  -0.37237  -0.37098
 Alpha  occ. eigenvalues --   -0.36768  -0.36465  -0.36371  -0.36194  -0.36081
 Alpha  occ. eigenvalues --   -0.35823  -0.35455  -0.35320  -0.35014  -0.34871
 Alpha  occ. eigenvalues --   -0.34718  -0.34428  -0.33975  -0.33496  -0.33468
 Alpha  occ. eigenvalues --   -0.33432  -0.32983  -0.32636  -0.32560  -0.32299
 Alpha  occ. eigenvalues --   -0.31961  -0.31904  -0.31189  -0.30801  -0.30690
 Alpha  occ. eigenvalues --   -0.30436  -0.30192  -0.29848  -0.28232  -0.27850
 Alpha  occ. eigenvalues --   -0.27419  -0.27362  -0.25207  -0.24357  -0.21421
 Alpha  occ. eigenvalues --   -0.18928
 Alpha virt. eigenvalues --   -0.06517  -0.03826  -0.01175   0.02307   0.03746
 Alpha virt. eigenvalues --    0.04376   0.04511   0.04956   0.05453   0.05743
 Alpha virt. eigenvalues --    0.06160   0.08157   0.08968   0.09147   0.09325

 Mulliken charges:
               1
     1  Mg   0.802270
     2  C    0.095329
     3  C   -0.183938
     4  C   -0.218250
     5  C   -0.175776
     6  N   -0.618946
     7  C    0.328785
     8  C   -0.173961
     9  C   -0.161848
    10  C    0.298999
    11  C   -0.298576
    12  C   -0.192895
    13  C   -0.249872
    14  C    0.585788
    15  O   -0.427000
    16  O   -0.482517
    17  N   -0.686069
    18  C    0.328846
    19  C    0.017942
    20  C    0.018237
    21  C    0.224808
    22  C   -0.374932
    23  C   -0.041150
    24  C   -0.255775
    25  N   -0.678903
    26  C    0.359687
    27  C    0.016182
    28  C    0.046308
    29  C    0.290498
    30  C   -0.355987
    31  C   -0.255906
    32  C   -0.277619
    33  N   -0.683340
    34  C    0.283749
    35  C   -0.033534
    36  C    0.024402
    37  C    0.264113
    38  C   -0.363959
    39  C    0.389998
    40  O   -0.449855
    41  C   -0.337756
    42  C    0.595500
    43  O   -0.460089
    44  O   -0.405600
    45  C   -0.072491
    46  C    0.030604
    47  C   -0.115468
    48  C    0.133050
    49  C   -0.357905
    50  C   -0.239638
    51  C   -0.153747
    52  C   -0.182661
    53  C   -0.038256
    54  C   -0.318253
    55  C   -0.181947
    56  C   -0.172535
    57  C   -0.156851
    58  C   -0.059243
    59  C   -0.318155
    60  C   -0.188522
    61  C   -0.180581
    62  C   -0.149968
    63  C   -0.049087
    64  C   -0.293788
    65  C   -0.324408
    66  H    0.077098
    67  H    0.077071
    68  H    0.059393
    69  H    0.128690
    70  H    0.096827
    71  H    0.107625
    72  H    0.093640
    73  H    0.135014
    74  H    0.112254
    75  H    0.114918
    76  H    0.107288
    77  H    0.136483
    78  H    0.124151
    79  H    0.133825
    80  H    0.096407
    81  H    0.089582
    82  H    0.091994
    83  H    0.096426
    84  H    0.116118
    85  H    0.104243
    86  H    0.125772
    87  H    0.107226
    88  H    0.085691
    89  H    0.102858
    90  H    0.100890
    91  H    0.097292
    92  H    0.134993
    93  H    0.150397
    94  H    0.136804
    95  H    0.163132
    96  H    0.112883
    97  H    0.121217
    98  H    0.107257
    99  H    0.127930
   100  H    0.082057
   101  H    0.070319
   102  H    0.104813
   103  H    0.120309
   104  H    0.112771
   105  H    0.112548
   106  H    0.097025
   107  H    0.100877
   108  H    0.044559
   109  H    0.095783
   110  H    0.094476
   111  H    0.084103
   112  H    0.114331
   113  H    0.093941
   114  H    0.089036
   115  H    0.088284
   116  H    0.062098
   117  H    0.113657
   118  H    0.086131
   119  H    0.086837
   120  H    0.084144
   121  H    0.092468
   122  H    0.105370
   123  H    0.107346
   124  H    0.083565
   125  H    0.072712
   126  H    0.070251
   127  H    0.104630
   128  H    0.083755
   129  H    0.074809
   130  H    0.099194
   131  H    0.075562
   132  H    0.083127
   133  H    0.075297
   134  H    0.110371
   135  H    0.091432
   136  H    0.116232
   137  H    0.104851
 Sum of Mulliken charges =  -0.00000

 Dipole moment (field-independent basis, Debye):
    X=              2.5088    Y=              1.9652    Z=              0.9611  Tot=              3.3286
 Quadrupole moment (field-independent basis, Debye-Ang):
   XX=           -362.0423   YY=           -396.1325   ZZ=           -401.5987
   XY=             -9.1652   XZ=             24.6867   YZ=              2.7754

 Normal termination of Gaussian 16 at Mon Sep  9 22:41:38 2019.
