 Gaussian 16, Revision A.03,
 Gaussian 16:  ES64L-G16RevA.03 25-Dec-2016

 ----------------------------------------------------------------------
 # td=(NStates=1) iop(3/107=0140000000,3/108=0140000000) CAM-B3LYP/6-31
 G(d,p)
 ----------------------------------------------------------------------

 --
 TD
 --
 Symbolic Z-matrix:
 Charge =  0 Multiplicity = 1

                         Standard orientation:
 ---------------------------------------------------------------------
 Center     Atomic      Atomic             Coordinates (Angstroms)
 Number     Number       Type             X           Y           Z
 ---------------------------------------------------------------------
      1         12           0       -7.066382    0.566692    0.195150
      2          6           0       -4.862141   -1.963114    0.691518
      3          6           0       -4.798297    2.768184    1.309477
      4          6           0       -9.333141    3.112158   -0.487128
      5          6           0       -9.475165   -1.632448   -0.934097
      6          7           0       -5.067704    0.399829    0.806275
      7          6           0       -4.422624   -0.736528    0.899107
      8          6           0       -2.977297   -0.453605    1.175011
      9          6           0       -3.000980    1.027658    1.629569
     10          6           0       -4.405814    1.456543    1.108234
     11          6           0       -2.872035    1.257268    3.168867
     12          6           0       -1.985389   -0.759363   -0.065544
     13          6           0       -0.536217   -0.617290    0.449387
     14          6           0        0.554939   -0.632131   -0.596757
     15          8           0        0.294760   -0.873592   -1.770480
     16          8           0        1.759973   -0.433047   -0.126422
     17          7           0       -7.003017    2.621797    0.279413
     18          6           0       -5.945610    3.405285    0.770205
     19          6           0       -6.259491    4.788627    0.808474
     20          6           0       -7.615579    4.918145    0.347204
     21          6           0       -8.067071    3.497938    0.048127
     22          6           0       -5.361762    5.892342    1.139430
     23          6           0       -8.462815    6.069913    0.270453
     24          6           0       -8.277941    7.170243    0.980719
     25          7           0       -9.034931    0.686854   -0.475727
     26          6           0       -9.759311    1.828876   -0.653744
     27          6           0      -11.154468    1.611039   -1.157062
     28          6           0      -11.287238    0.215768   -1.228876
     29          6           0       -9.948970   -0.313122   -0.928491
     30          6           0      -12.283842    2.538456   -1.367195
     31          6           0      -12.342241   -0.690367   -1.797309
     32          6           0      -12.208113   -1.002096   -3.292585
     33          7           0       -7.238968   -1.295661   -0.076057
     34          6           0       -8.195243   -2.167487   -0.540560
     35          6           0       -7.833572   -3.544230   -0.612495
     36          6           0       -6.570897   -3.463567   -0.077602
     37          6           0       -6.195560   -2.139284    0.142173
     38          6           0       -8.708204   -4.780224   -1.006908
     39          6           0       -5.406562   -4.371100    0.254516
     40          8           0       -5.406868   -5.606446    0.135859
     41          6           0       -4.203492   -3.343605    0.586592
     42          6           0       -3.630926   -3.804805    1.991219
     43          8           0       -3.744330   -3.261610    3.022759
     44          8           0       -2.825988   -4.974434    1.716582
     45          6           0       -2.229176   -5.430149    2.953749
     46          6           0        2.860234   -0.588690   -1.122332
     47          6           0        4.124145   -0.473398   -0.619135
     48          6           0        5.183492    0.329083   -1.034867
     49          6           0        4.997701    1.414519   -2.246788
     50          6           0        6.399672    0.509637   -0.279681
     51          6           0        7.638931   -0.183254   -1.025393
     52          6           0        8.890431   -0.110111   -0.176073
     53          6           0       10.196707   -0.620644   -0.873143
     54          6           0       10.067018   -2.134289   -1.315693
     55          6           0       11.373879   -0.435343   -0.017775
     56          6           0       12.713848   -0.635951   -0.792733
     57          6           0       13.988017   -0.169575    0.073592
     58          6           0       15.329798   -0.223892   -0.426957
     59          6           0       15.681353   -1.725864   -0.807798
     60          6           0       16.425847    0.345377    0.466730
     61          6           0       17.822832    0.436400   -0.145753
     62          6           0       18.731065    1.295345    0.711106
     63          6           0       20.178985    1.529435    0.249240
     64          6           0       20.302212    2.149043   -1.156820
     65          6           0       21.100578    2.209582    1.401511
     66          1           0       -4.021612    3.389269    1.588494
     67          1           0      -10.023691    3.857389   -0.590441
     68          1           0      -10.149794   -2.322989   -1.625991
     69          1           0       -2.584467   -0.865778    2.310680
     70          1           0       -2.274194    1.799355    1.237441
     71          1           0       -1.965376    0.749893    3.386382
     72          1           0       -3.041475    2.296108    3.487545
     73          1           0       -3.562597    0.803539    3.725535
     74          1           0       -1.932017   -1.745328   -0.528491
     75          1           0       -2.148142    0.027164   -0.784758
     76          1           0       -0.386929    0.428798    0.852827
     77          1           0       -0.510144   -1.375323    1.202757
     78          1           0       -5.475243    6.529975    0.454500
     79          1           0       -5.561686    6.249111    2.037952
     80          1           0       -4.357045    5.680681    1.108205
     81          1           0       -9.267293    6.154854   -0.449706
     82          1           0       -8.754096    8.218603    0.541087
     83          1           0       -7.752908    7.134036    1.770152
     84          1           0      -12.041238    3.263134   -2.306909
     85          1           0      -13.221757    2.018149   -1.557822
     86          1           0      -12.516845    3.354878   -0.653665
     87          1           0      -12.183471   -1.674316   -1.213804
     88          1           0      -13.340493   -0.216348   -1.765179
     89          1           0      -13.142829   -1.540332   -3.452042
     90          1           0      -12.177454    0.070694   -3.765815
     91          1           0      -11.302174   -1.609495   -3.560646
     92          1           0       -9.004309   -4.822925   -2.038217
     93          1           0       -8.321535   -5.832201   -0.801006
     94          1           0       -9.630676   -4.808669   -0.406290
     95          1           0       -3.478763   -3.584906   -0.019673
     96          1           0       -1.673186   -4.616907    3.206885
     97          1           0       -2.848571   -5.862622    3.589382
     98          1           0       -1.576536   -6.156643    2.447208
     99          1           0        2.671420   -1.452814   -1.485383
    100          1           0        2.418311    0.048771   -1.848633
    101          1           0        4.261549   -1.193082    0.130526
    102          1           0        3.880373    1.428434   -2.497555
    103          1           0        5.380892    2.317227   -1.909127
    104          1           0        5.419647    1.072320   -3.060353
    105          1           0        6.596811    1.542924   -0.209275
    106          1           0        6.119942    0.247163    0.833328
    107          1           0        7.281278   -1.199703   -1.336862
    108          1           0        7.878751    0.277201   -1.947676
    109          1           0        9.066899    0.865258    0.061459
    110          1           0        8.722120   -0.665702    0.738569
    111          1           0       10.225132    0.047972   -1.827047
    112          1           0        9.246397   -2.126119   -2.066560
    113          1           0       11.158104   -2.541922   -1.639167
    114          1           0        9.692371   -2.680770   -0.400333
    115          1           0       11.343256    0.540430    0.456220
    116          1           0       11.435297   -0.967649    0.858823
    117          1           0       12.765881   -1.735442   -1.200429
    118          1           0       12.596558    0.076173   -1.628871
    119          1           0       13.836571    0.771376    0.381643
    120          1           0       13.639874   -0.688852    1.012854
    121          1           0       15.221357    0.186147   -1.295974
    122          1           0       15.836233   -2.288449    0.258642
    123          1           0       14.860010   -2.229301   -1.273811
    124          1           0       16.583922   -1.788265   -1.523224
    125          1           0       16.166833    1.347061    0.738017
    126          1           0       16.591939   -0.256719    1.372544
    127          1           0       18.266128   -0.633393   -0.398506
    128          1           0       17.632040    1.032784   -1.005760
    129          1           0       18.239434    2.240921    0.968979
    130          1           0       18.716110    0.757286    1.685294
    131          1           0       20.815497    0.530801    0.220705
    132          1           0       19.882898    3.056360   -1.223258
    133          1           0       21.243711    2.391812   -1.351383
    134          1           0       19.849241    1.293780   -1.906326
    135          1           0       20.814321    1.564454    2.373399
    136          1           0       22.200975    2.124691    1.174754
    137          1           0       20.592003    3.410975    1.404161
 ---------------------------------------------------------------------

 SCF Done:  E(RCAM-B3LYP) =  -2933.44682930     A.U. after   16 cycles

 Excitation energies and oscillator strengths:

 Excited State   1:      Singlet-A      2.0065 eV  617.93 nm  f=0.2719  <S**2>=0.000
     240 -> 243       -0.22252
     241 -> 242        0.66707
 This state for optimization and/or second-order correction.
 Total Energy, E(TD-HF/TD-DFT) =  -2933.37309325
 Copying the excited state density for this state as the 1-particle RhoCI density.

 The electronic state is 1-A.
 Alpha  occ. eigenvalues --  -46.78978 -19.21383 -19.20166 -19.18184 -19.16080
 Alpha  occ. eigenvalues --  -19.15129 -14.36917 -14.35139 -14.35093 -14.35047
 Alpha  occ. eigenvalues --  -10.34245 -10.33452 -10.30539 -10.25522 -10.25509
 Alpha  occ. eigenvalues --  -10.25231 -10.24878 -10.24729 -10.24698 -10.24597
 Alpha  occ. eigenvalues --  -10.24568 -10.24450 -10.24316 -10.23993 -10.23869
 Alpha  occ. eigenvalues --  -10.23847 -10.23750 -10.23373 -10.23284 -10.23278
 Alpha  occ. eigenvalues --  -10.23113 -10.23038 -10.22822 -10.22765 -10.22750
 Alpha  occ. eigenvalues --  -10.22721 -10.22510 -10.22502 -10.22390 -10.22382
 Alpha  occ. eigenvalues --  -10.22331 -10.22290 -10.22216 -10.22181 -10.22074
 Alpha  occ. eigenvalues --  -10.22029 -10.21968 -10.21939 -10.21307 -10.21273
 Alpha  occ. eigenvalues --  -10.21190 -10.21069 -10.21035 -10.20862 -10.20829
 Alpha  occ. eigenvalues --  -10.20751 -10.20435 -10.20318 -10.20204 -10.20030
 Alpha  occ. eigenvalues --  -10.19976 -10.19832 -10.19641 -10.19394 -10.18398
 Alpha  occ. eigenvalues --   -3.07881  -1.82792  -1.82370  -1.82309  -1.13073
 Alpha  occ. eigenvalues --   -1.12205  -1.04581  -1.04106  -1.02891  -1.01927
 Alpha  occ. eigenvalues --   -0.99100  -0.96775  -0.95739  -0.87072  -0.86783
 Alpha  occ. eigenvalues --   -0.86237  -0.85086  -0.84705  -0.83993  -0.83849
 Alpha  occ. eigenvalues --   -0.83284  -0.83034  -0.82479  -0.81988  -0.81552
 Alpha  occ. eigenvalues --   -0.80724  -0.79724  -0.78968  -0.78422  -0.78149
 Alpha  occ. eigenvalues --   -0.77591  -0.76271  -0.75295  -0.74569  -0.73654
 Alpha  occ. eigenvalues --   -0.73226  -0.72561  -0.72315  -0.71849  -0.71157
 Alpha  occ. eigenvalues --   -0.70799  -0.70144  -0.69501  -0.69160  -0.68548
 Alpha  occ. eigenvalues --   -0.66754  -0.66331  -0.65213  -0.64490  -0.63543
 Alpha  occ. eigenvalues --   -0.63170  -0.62594  -0.61405  -0.60889  -0.60202
 Alpha  occ. eigenvalues --   -0.60038  -0.59252  -0.58911  -0.58780  -0.57728
 Alpha  occ. eigenvalues --   -0.57502  -0.57350  -0.56945  -0.55939  -0.55454
 Alpha  occ. eigenvalues --   -0.54325  -0.54035  -0.53761  -0.53437  -0.53241
 Alpha  occ. eigenvalues --   -0.52142  -0.52010  -0.51341  -0.51137  -0.50966
 Alpha  occ. eigenvalues --   -0.50809  -0.50560  -0.49822  -0.49706  -0.49403
 Alpha  occ. eigenvalues --   -0.49285  -0.49220  -0.48971  -0.48800  -0.48531
 Alpha  occ. eigenvalues --   -0.48415  -0.47938  -0.47770  -0.47250  -0.46871
 Alpha  occ. eigenvalues --   -0.46743  -0.46612  -0.46380  -0.45926  -0.45756
 Alpha  occ. eigenvalues --   -0.45627  -0.45427  -0.45356  -0.45137  -0.45069
 Alpha  occ. eigenvalues --   -0.44691  -0.44238  -0.44128  -0.43940  -0.43888
 Alpha  occ. eigenvalues --   -0.43576  -0.43424  -0.43170  -0.43058  -0.42598
 Alpha  occ. eigenvalues --   -0.42470  -0.42152  -0.42020  -0.41622  -0.41456
 Alpha  occ. eigenvalues --   -0.41355  -0.41206  -0.41155  -0.40945  -0.40560
 Alpha  occ. eigenvalues --   -0.40409  -0.40271  -0.40118  -0.40004  -0.39963
 Alpha  occ. eigenvalues --   -0.39812  -0.39363  -0.39226  -0.39165  -0.39057
 Alpha  occ. eigenvalues --   -0.38855  -0.38758  -0.38633  -0.38519  -0.38329
 Alpha  occ. eigenvalues --   -0.38059  -0.37908  -0.37827  -0.37712  -0.37451
 Alpha  occ. eigenvalues --   -0.37327  -0.37018  -0.36835  -0.36550  -0.36089
 Alpha  occ. eigenvalues --   -0.35972  -0.35781  -0.35629  -0.35531  -0.34863
 Alpha  occ. eigenvalues --   -0.34609  -0.34300  -0.34278  -0.33643  -0.33418
 Alpha  occ. eigenvalues --   -0.33072  -0.32794  -0.32609  -0.32475  -0.32318
 Alpha  occ. eigenvalues --   -0.32162  -0.31977  -0.31819  -0.30793  -0.30731
 Alpha  occ. eigenvalues --   -0.30266  -0.29097  -0.28972  -0.28474  -0.27371
 Alpha  occ. eigenvalues --   -0.26670  -0.26165  -0.25488  -0.24545  -0.21490
 Alpha  occ. eigenvalues --   -0.19854
 Alpha virt. eigenvalues --   -0.07199  -0.03386   0.00193   0.01862   0.02258
 Alpha virt. eigenvalues --    0.04429   0.04836   0.05224   0.05569   0.06079
 Alpha virt. eigenvalues --    0.07199   0.08833   0.09094   0.09178   0.09748

 Mulliken charges:
               1
     1  Mg   0.817843
     2  C    0.112071
     3  C   -0.170284
     4  C   -0.147082
     5  C   -0.213565
     6  N   -0.626601
     7  C    0.331248
     8  C   -0.180236
     9  C   -0.159911
    10  C    0.333180
    11  C   -0.317442
    12  C   -0.165441
    13  C   -0.261894
    14  C    0.593216
    15  O   -0.501463
    16  O   -0.476084
    17  N   -0.684267
    18  C    0.291410
    19  C   -0.011296
    20  C    0.013877
    21  C    0.276184
    22  C   -0.352496
    23  C   -0.084318
    24  C   -0.218532
    25  N   -0.661429
    26  C    0.333667
    27  C    0.040051
    28  C    0.050915
    29  C    0.271582
    30  C   -0.393282
    31  C   -0.249133
    32  C   -0.289206
    33  N   -0.734037
    34  C    0.240636
    35  C    0.058577
    36  C   -0.018903
    37  C    0.278555
    38  C   -0.389626
    39  C    0.372668
    40  O   -0.464918
    41  C   -0.299774
    42  C    0.595961
    43  O   -0.418817
    44  O   -0.496410
    45  C   -0.073368
    46  C    0.033285
    47  C   -0.126654
    48  C    0.087447
    49  C   -0.358799
    50  C   -0.231514
    51  C   -0.192623
    52  C   -0.167539
    53  C   -0.062556
    54  C   -0.299121
    55  C   -0.172322
    56  C   -0.192050
    57  C   -0.173149
    58  C   -0.032390
    59  C   -0.313618
    60  C   -0.174428
    61  C   -0.175977
    62  C   -0.159514
    63  C   -0.059231
    64  C   -0.294724
    65  C   -0.288348
    66  H    0.067211
    67  H    0.067855
    68  H    0.073217
    69  H    0.084407
    70  H    0.093842
    71  H    0.112172
    72  H    0.107581
    73  H    0.133624
    74  H    0.125818
    75  H    0.122201
    76  H    0.116979
    77  H    0.133126
    78  H    0.138632
    79  H    0.133006
    80  H    0.110124
    81  H    0.092434
    82  H    0.082735
    83  H    0.089408
    84  H    0.096463
    85  H    0.119937
    86  H    0.127501
    87  H    0.102626
    88  H    0.101009
    89  H    0.113497
    90  H    0.099746
    91  H    0.111747
    92  H    0.127496
    93  H    0.142270
    94  H    0.125890
    95  H    0.152861
    96  H    0.125666
    97  H    0.137057
    98  H    0.119420
    99  H    0.131360
   100  H    0.123001
   101  H    0.088504
   102  H    0.107194
   103  H    0.120442
   104  H    0.139808
   105  H    0.112145
   106  H    0.096478
   107  H    0.100922
   108  H    0.103491
   109  H    0.099457
   110  H    0.093023
   111  H    0.065171
   112  H    0.102869
   113  H    0.088426
   114  H    0.099923
   115  H    0.082548
   116  H    0.100458
   117  H    0.085201
   118  H    0.089321
   119  H    0.091993
   120  H    0.071344
   121  H    0.093880
   122  H    0.074890
   123  H    0.103336
   124  H    0.090894
   125  H    0.086600
   126  H    0.091434
   127  H    0.086016
   128  H    0.098635
   129  H    0.087102
   130  H    0.080325
   131  H    0.064780
   132  H    0.106738
   133  H    0.108231
   134  H    0.088222
   135  H    0.094147
   136  H    0.109158
   137  H    0.056973
 Sum of Mulliken charges =  -0.00000

 Dipole moment (field-independent basis, Debye):
    X=              2.1240    Y=              5.5091    Z=              0.3189  Tot=              5.9130
 Quadrupole moment (field-independent basis, Debye-Ang):
   XX=           -341.5506   YY=           -393.0805   ZZ=           -398.4621
   XY=            -17.4244   XZ=              7.8460   YZ=             -2.8563

 Normal termination of Gaussian 16 at Thu Sep  5 06:27:47 2019.
