 Gaussian 16, Revision A.03,
 Gaussian 16:  ES64L-G16RevA.03 25-Dec-2016

 ----------------------------------------------------------------------
 # td=(NStates=1) iop(3/107=0140000000,3/108=0140000000) CAM-B3LYP/6-31
 G(d,p)
 ----------------------------------------------------------------------

 --
 TD
 --
 Symbolic Z-matrix:
 Charge =  0 Multiplicity = 1

                         Standard orientation:
 ---------------------------------------------------------------------
 Center     Atomic      Atomic             Coordinates (Angstroms)
 Number     Number       Type             X           Y           Z
 ---------------------------------------------------------------------
      1         12           0       -7.137676    0.687065    0.110977
      2          6           0       -4.794802   -1.868691    0.551913
      3          6           0       -4.782790    2.808819    1.237202
      4          6           0       -9.379902    3.135277   -0.394884
      5          6           0       -9.552121   -1.753586   -0.748809
      6          7           0       -5.091001    0.442529    0.652000
      7          6           0       -4.287272   -0.706828    0.836637
      8          6           0       -2.854035   -0.464600    1.178539
      9          6           0       -2.954804    1.071478    1.665300
     10          6           0       -4.353891    1.491259    1.141758
     11          6           0       -2.896543    1.235037    3.217460
     12          6           0       -1.861264   -0.526871    0.039170
     13          6           0       -0.449626   -0.431879    0.492416
     14          6           0        0.497963   -0.649158   -0.720166
     15          8           0        0.182256   -1.002501   -1.779947
     16          8           0        1.757139   -0.476478   -0.354870
     17          7           0       -7.059452    2.679040    0.369793
     18          6           0       -6.025830    3.424632    0.803242
     19          6           0       -6.379285    4.843479    0.870490
     20          6           0       -7.692473    4.788800    0.289413
     21          6           0       -8.109401    3.527334    0.080627
     22          6           0       -5.429191    5.925683    1.128654
     23          6           0       -8.538752    5.986836    0.054616
     24          6           0       -8.377074    7.185956    0.736962
     25          7           0       -9.141816    0.630925   -0.576659
     26          6           0       -9.847482    1.798579   -0.766383
     27          6           0      -11.238901    1.520491   -1.176354
     28          6           0      -11.289820    0.133978   -1.341858
     29          6           0       -9.984169   -0.400982   -0.878461
     30          6           0      -12.246609    2.510726   -1.336477
     31          6           0      -12.351431   -0.798189   -1.773149
     32          6           0      -12.223883   -1.298568   -3.240188
     33          7           0       -7.199945   -1.425223   -0.041212
     34          6           0       -8.316610   -2.284791   -0.451519
     35          6           0       -7.810499   -3.690510   -0.357400
     36          6           0       -6.430487   -3.495731    0.002666
     37          6           0       -6.172389   -2.149498    0.161984
     38          6           0       -8.624374   -4.777757   -0.803275
     39          6           0       -5.351056   -4.342365    0.263455
     40          8           0       -5.140485   -5.545503    0.265285
     41          6           0       -4.225033   -3.202847    0.560318
     42          6           0       -3.560048   -3.565138    1.944434
     43          8           0       -3.827006   -2.964249    2.939037
     44          8           0       -2.674215   -4.709668    1.761145
     45          6           0       -2.173644   -5.201003    3.004016
     46          6           0        2.813393   -0.640257   -1.345363
     47          6           0        4.108241   -0.533835   -0.643535
     48          6           0        5.099762    0.287886   -1.026297
     49          6           0        5.100161    1.192935   -2.276655
     50          6           0        6.347450    0.255817   -0.286160
     51          6           0        7.664419   -0.252514   -1.148350
     52          6           0        8.883540   -0.159603   -0.252984
     53          6           0       10.184438   -0.576013   -0.936525
     54          6           0       10.141072   -2.083666   -1.441366
     55          6           0       11.386000   -0.374641    0.007878
     56          6           0       12.735476   -0.593041   -0.665150
     57          6           0       13.912138   -0.214481    0.287397
     58          6           0       15.363529   -0.267169   -0.324375
     59          6           0       15.577807   -1.648129   -0.847212
     60          6           0       16.383570    0.285624    0.573592
     61          6           0       17.776518    0.667389   -0.199217
     62          6           0       18.771829    1.256412    0.808131
     63          6           0       20.265261    1.339389    0.225585
     64          6           0       20.161465    2.281197   -1.015982
     65          6           0       21.076184    2.095346    1.289981
     66          1           0       -4.088512    3.778411    1.649126
     67          1           0      -10.133322    4.003552   -0.620158
     68          1           0      -10.318598   -2.640227   -0.687161
     69          1           0       -2.561019   -1.132589    2.121233
     70          1           0       -2.149449    1.634415    1.279681
     71          1           0       -1.773438    0.920069    3.460240
     72          1           0       -3.293123    2.138055    3.714935
     73          1           0       -3.487392    0.360460    3.588772
     74          1           0       -1.881212   -1.608618   -0.327695
     75          1           0       -2.070459    0.102157   -0.704666
     76          1           0       -0.183689    0.606313    1.019497
     77          1           0       -0.220881   -0.953209    1.448632
     78          1           0       -5.643752    6.838996    0.542934
     79          1           0       -5.538936    5.989635    2.205705
     80          1           0       -4.360580    5.781710    0.833448
     81          1           0       -9.179697    5.964335   -0.921069
     82          1           0       -8.959111    8.129609    0.353524
     83          1           0       -7.757828    7.475036    1.593720
     84          1           0      -11.976725    3.103068   -2.162427
     85          1           0      -13.322395    2.043133   -1.315226
     86          1           0      -12.034186    3.175815   -0.263886
     87          1           0      -12.197287   -1.697474   -1.086840
     88          1           0      -13.337626   -0.521689   -1.500600
     89          1           0      -13.021226   -2.046880   -3.430707
     90          1           0      -12.266447   -0.390930   -3.818564
     91          1           0      -11.259134   -1.765930   -3.469054
     92          1           0       -8.868984   -4.780844   -2.002112
     93          1           0       -8.042726   -5.837935   -0.767281
     94          1           0       -9.657255   -5.137836   -0.422911
     95          1           0       -3.296558   -3.512869   -0.223978
     96          1           0       -1.619724   -4.415300    3.433389
     97          1           0       -2.863158   -5.275518    3.737126
     98          1           0       -1.624965   -6.175725    2.634304
     99          1           0        2.693637   -1.468085   -1.773368
    100          1           0        2.683978   -0.091360   -2.228824
    101          1           0        4.292737   -1.238455    0.166890
    102          1           0        3.983626    1.241757   -2.353568
    103          1           0        5.416063    2.156574   -2.240170
    104          1           0        5.816605    0.685427   -2.965780
    105          1           0        6.588891    1.319626   -0.084451
    106          1           0        6.402272   -0.303035    0.671873
    107          1           0        7.428997   -1.173127   -1.640197
    108          1           0        7.750876    0.504424   -1.976700
    109          1           0        8.917907    0.856665    0.202037
    110          1           0        8.761619   -0.878083    0.716546
    111          1           0       10.517889   -0.070541   -1.962086
    112          1           0        9.153646   -2.456689   -1.908481
    113          1           0       10.768625   -2.404341   -2.080732
    114          1           0       10.301208   -2.795198   -0.525125
    115          1           0       11.228652    0.603395    0.558293
    116          1           0       11.263460   -1.008179    0.788826
    117          1           0       12.740235   -1.604828   -0.916324
    118          1           0       12.749282    0.076055   -1.565846
    119          1           0       13.665219    0.748354    0.533618
    120          1           0       13.749633   -0.855247    1.206270
    121          1           0       15.150935    0.375272   -1.141533
    122          1           0       15.662358   -2.219947    0.011026
    123          1           0       14.775221   -2.182784   -1.324139
    124          1           0       16.590415   -1.756517   -1.367013
    125          1           0       16.008212    1.316752    0.994650
    126          1           0       16.565199   -0.199974    1.392580
    127          1           0       18.153191   -0.345446   -0.433094
    128          1           0       17.711617    1.515132   -1.035344
    129          1           0       18.174398    2.160468    1.114978
    130          1           0       18.770766    0.561370    1.695031
    131          1           0       20.657986    0.450828   -0.037139
    132          1           0       19.952998    3.473329   -0.911969
    133          1           0       21.101225    2.345975   -1.770184
    134          1           0       19.432545    2.085649   -1.787804
    135          1           0       20.969364    1.686817    2.376097
    136          1           0       22.276017    2.048335    1.139389
    137          1           0       20.769655    3.151848    1.430994
 ---------------------------------------------------------------------

 SCF Done:  E(RCAM-B3LYP) =  -2933.48736738     A.U. after   15 cycles

 Excitation energies and oscillator strengths:

 Excited State   1:      Singlet-A      1.9794 eV  626.38 nm  f=0.2455  <S**2>=0.000
     240 -> 243        0.18791
     241 -> 242        0.67136
 This state for optimization and/or second-order correction.
 Total Energy, E(TD-HF/TD-DFT) =  -2933.41462666
 Copying the excited state density for this state as the 1-particle RhoCI density.

 The electronic state is 1-A.
 Alpha  occ. eigenvalues --  -46.80810 -19.20855 -19.20371 -19.17829 -19.16342
 Alpha  occ. eigenvalues --  -19.15463 -14.37279 -14.35988 -14.35101 -14.34845
 Alpha  occ. eigenvalues --  -10.34217 -10.33681 -10.29348 -10.26541 -10.25564
 Alpha  occ. eigenvalues --  -10.25561 -10.25322 -10.25282 -10.25183 -10.24992
 Alpha  occ. eigenvalues --  -10.24958 -10.24942 -10.24695 -10.24597 -10.24416
 Alpha  occ. eigenvalues --  -10.24295 -10.24222 -10.23981 -10.23661 -10.23579
 Alpha  occ. eigenvalues --  -10.23520 -10.23519 -10.23170 -10.23057 -10.23010
 Alpha  occ. eigenvalues --  -10.22885 -10.22849 -10.22779 -10.22761 -10.22759
 Alpha  occ. eigenvalues --  -10.22303 -10.22275 -10.22235 -10.22194 -10.22170
 Alpha  occ. eigenvalues --  -10.22005 -10.21936 -10.21872 -10.21766 -10.21703
 Alpha  occ. eigenvalues --  -10.21470 -10.21445 -10.21326 -10.21144 -10.21108
 Alpha  occ. eigenvalues --  -10.21041 -10.21014 -10.20772 -10.20510 -10.20381
 Alpha  occ. eigenvalues --  -10.20367 -10.20131 -10.19929 -10.19845 -10.19112
 Alpha  occ. eigenvalues --   -3.09179  -1.84138  -1.83659  -1.83561  -1.14322
 Alpha  occ. eigenvalues --   -1.10802  -1.05595  -1.04876  -1.04235  -0.99279
 Alpha  occ. eigenvalues --   -0.98922  -0.97599  -0.96963  -0.87350  -0.86350
 Alpha  occ. eigenvalues --   -0.85611  -0.85031  -0.84235  -0.83907  -0.83717
 Alpha  occ. eigenvalues --   -0.83332  -0.82933  -0.82585  -0.82135  -0.80940
 Alpha  occ. eigenvalues --   -0.80092  -0.79442  -0.78650  -0.77993  -0.77149
 Alpha  occ. eigenvalues --   -0.76710  -0.75898  -0.75085  -0.74511  -0.73531
 Alpha  occ. eigenvalues --   -0.72825  -0.72315  -0.72137  -0.71039  -0.70542
 Alpha  occ. eigenvalues --   -0.70269  -0.69890  -0.69523  -0.68688  -0.67812
 Alpha  occ. eigenvalues --   -0.66390  -0.65807  -0.65392  -0.64613  -0.63578
 Alpha  occ. eigenvalues --   -0.62405  -0.62290  -0.61202  -0.61181  -0.60755
 Alpha  occ. eigenvalues --   -0.60360  -0.59702  -0.59594  -0.59181  -0.58555
 Alpha  occ. eigenvalues --   -0.56899  -0.56796  -0.56665  -0.55594  -0.55101
 Alpha  occ. eigenvalues --   -0.54541  -0.54012  -0.53588  -0.53031  -0.52296
 Alpha  occ. eigenvalues --   -0.51742  -0.51435  -0.51213  -0.51069  -0.50310
 Alpha  occ. eigenvalues --   -0.50278  -0.49933  -0.49464  -0.49444  -0.49094
 Alpha  occ. eigenvalues --   -0.48758  -0.48684  -0.48501  -0.48070  -0.47792
 Alpha  occ. eigenvalues --   -0.47482  -0.47405  -0.47130  -0.46939  -0.46763
 Alpha  occ. eigenvalues --   -0.46653  -0.46428  -0.46247  -0.46100  -0.45667
 Alpha  occ. eigenvalues --   -0.45453  -0.45262  -0.44820  -0.44589  -0.44422
 Alpha  occ. eigenvalues --   -0.44236  -0.43925  -0.43857  -0.43822  -0.43397
 Alpha  occ. eigenvalues --   -0.43182  -0.42967  -0.42936  -0.42748  -0.42642
 Alpha  occ. eigenvalues --   -0.42422  -0.42019  -0.41984  -0.41722  -0.41675
 Alpha  occ. eigenvalues --   -0.41376  -0.41219  -0.40946  -0.40691  -0.40629
 Alpha  occ. eigenvalues --   -0.40342  -0.40265  -0.40002  -0.39755  -0.39613
 Alpha  occ. eigenvalues --   -0.39427  -0.39006  -0.38614  -0.38553  -0.38502
 Alpha  occ. eigenvalues --   -0.38296  -0.38248  -0.38085  -0.37852  -0.37842
 Alpha  occ. eigenvalues --   -0.37604  -0.37269  -0.37267  -0.37204  -0.36811
 Alpha  occ. eigenvalues --   -0.36623  -0.36582  -0.36410  -0.36293  -0.36199
 Alpha  occ. eigenvalues --   -0.36003  -0.35838  -0.35475  -0.35329  -0.34799
 Alpha  occ. eigenvalues --   -0.34723  -0.34209  -0.33843  -0.33633  -0.33588
 Alpha  occ. eigenvalues --   -0.33261  -0.33207  -0.32794  -0.32769  -0.32609
 Alpha  occ. eigenvalues --   -0.32235  -0.31770  -0.31126  -0.30650  -0.30244
 Alpha  occ. eigenvalues --   -0.30152  -0.29963  -0.29238  -0.28183  -0.26672
 Alpha  occ. eigenvalues --   -0.26623  -0.25923  -0.25556  -0.24645  -0.21861
 Alpha  occ. eigenvalues --   -0.20377
 Alpha virt. eigenvalues --   -0.07868  -0.04232   0.00431   0.02107   0.03891
 Alpha virt. eigenvalues --    0.04405   0.04589   0.04872   0.05179   0.05678
 Alpha virt. eigenvalues --    0.06289   0.08495   0.08777   0.09342   0.10062

 Mulliken charges:
               1
     1  Mg   0.815517
     2  C    0.152085
     3  C   -0.213402
     4  C   -0.186375
     5  C   -0.182900
     6  N   -0.652557
     7  C    0.317955
     8  C   -0.171142
     9  C   -0.143408
    10  C    0.369487
    11  C   -0.308380
    12  C   -0.130808
    13  C   -0.289408
    14  C    0.611587
    15  O   -0.444392
    16  O   -0.471622
    17  N   -0.745020
    18  C    0.304423
    19  C    0.020265
    20  C   -0.016442
    21  C    0.368139
    22  C   -0.380194
    23  C   -0.102648
    24  C   -0.246177
    25  N   -0.665264
    26  C    0.294852
    27  C    0.038106
    28  C    0.043989
    29  C    0.284884
    30  C   -0.372334
    31  C   -0.260539
    32  C   -0.306773
    33  N   -0.740033
    34  C    0.214395
    35  C    0.131052
    36  C    0.008213
    37  C    0.373949
    38  C   -0.435132
    39  C    0.346262
    40  O   -0.468425
    41  C   -0.400223
    42  C    0.609036
    43  O   -0.441002
    44  O   -0.475807
    45  C   -0.076655
    46  C    0.014753
    47  C   -0.131856
    48  C    0.113297
    49  C   -0.354955
    50  C   -0.233158
    51  C   -0.188693
    52  C   -0.157379
    53  C   -0.048996
    54  C   -0.313984
    55  C   -0.173382
    56  C   -0.187584
    57  C   -0.188912
    58  C   -0.032311
    59  C   -0.319785
    60  C   -0.172499
    61  C   -0.186393
    62  C   -0.173151
    63  C   -0.028643
    64  C   -0.316048
    65  C   -0.293471
    66  H    0.058683
    67  H    0.087984
    68  H    0.096731
    69  H    0.113436
    70  H    0.107150
    71  H    0.084296
    72  H    0.119792
    73  H    0.125766
    74  H    0.117884
    75  H    0.122849
    76  H    0.101002
    77  H    0.135632
    78  H    0.127887
    79  H    0.135681
    80  H    0.122592
    81  H    0.095630
    82  H    0.086681
    83  H    0.113196
    84  H    0.140690
    85  H    0.111698
    86  H    0.094452
    87  H    0.093519
    88  H    0.104899
    89  H    0.104353
    90  H    0.114689
    91  H    0.115376
    92  H    0.118410
    93  H    0.131241
    94  H    0.131526
    95  H    0.129980
    96  H    0.112934
    97  H    0.131830
    98  H    0.119836
    99  H    0.126448
   100  H    0.116251
   101  H    0.091543
   102  H    0.111274
   103  H    0.125277
   104  H    0.126097
   105  H    0.095701
   106  H    0.093097
   107  H    0.109806
   108  H    0.088520
   109  H    0.096733
   110  H    0.071851
   111  H    0.067480
   112  H    0.084711
   113  H    0.120506
   114  H    0.076140
   115  H    0.072434
   116  H    0.099380
   117  H    0.105735
   118  H    0.083813
   119  H    0.096532
   120  H    0.071202
   121  H    0.087971
   122  H    0.104818
   123  H    0.106990
   124  H    0.089300
   125  H    0.066369
   126  H    0.100182
   127  H    0.093697
   128  H    0.089418
   129  H    0.093626
   130  H    0.079830
   131  H    0.107323
   132  H    0.083860
   133  H    0.072313
   134  H    0.111070
   135  H    0.083060
   136  H    0.075118
   137  H    0.112239
 Sum of Mulliken charges =  -0.00000

 Dipole moment (field-independent basis, Debye):
    X=              0.8542    Y=              4.5064    Z=             -0.2891  Tot=              4.5957
 Quadrupole moment (field-independent basis, Debye-Ang):
   XX=           -338.3780   YY=           -394.5369   ZZ=           -396.7572
   XY=            -22.0997   XZ=             13.3214   YZ=             -1.6166

 Normal termination of Gaussian 16 at Fri Sep 13 02:03:35 2019.
