 Gaussian 16, Revision A.03,
 Gaussian 16:  ES64L-G16RevA.03 25-Dec-2016

 ----------------------------------------------------------------------
 # td=(NStates=1) iop(3/107=0140000000,3/108=0140000000) CAM-B3LYP/6-31
 G(d,p)
 ----------------------------------------------------------------------

 --
 TD
 --
 Symbolic Z-matrix:
 Charge =  0 Multiplicity = 1

                         Standard orientation:
 ---------------------------------------------------------------------
 Center     Atomic      Atomic             Coordinates (Angstroms)
 Number     Number       Type             X           Y           Z
 ---------------------------------------------------------------------
      1         12           0       -7.085609    0.649198    0.219261
      2          6           0       -4.861727   -1.996501    0.522082
      3          6           0       -4.728985    2.717935    1.329738
      4          6           0       -9.232058    3.169232   -0.458283
      5          6           0       -9.667523   -1.712369   -0.865104
      6          7           0       -5.020096    0.427507    0.637603
      7          6           0       -4.335000   -0.768815    0.857566
      8          6           0       -2.959453   -0.464769    1.275884
      9          6           0       -2.944191    1.026410    1.797756
     10          6           0       -4.336692    1.482646    1.179384
     11          6           0       -2.871356    1.174574    3.280801
     12          6           0       -1.913232   -0.725786    0.205335
     13          6           0       -0.446851   -0.650232    0.720030
     14          6           0        0.471445   -0.824792   -0.429634
     15          8           0        0.090555   -1.047131   -1.590398
     16          8           0        1.749416   -0.455501   -0.029445
     17          7           0       -7.005451    2.651584    0.375171
     18          6           0       -5.939589    3.371436    0.879313
     19          6           0       -6.206663    4.688532    0.853240
     20          6           0       -7.554832    4.928579    0.411308
     21          6           0       -8.010654    3.578864    0.134370
     22          6           0       -5.320356    5.862188    1.120032
     23          6           0       -8.335734    6.071134    0.151030
     24          6           0       -8.375260    7.326785    0.740419
     25          7           0       -9.038035    0.778926   -0.613565
     26          6           0       -9.747259    1.934522   -0.743185
     27          6           0      -11.085443    1.579718   -1.209835
     28          6           0      -11.193075    0.223518   -1.270167
     29          6           0       -9.978017   -0.360371   -0.903908
     30          6           0      -12.174944    2.496300   -1.528074
     31          6           0      -12.297320   -0.600714   -1.886177
     32          6           0      -12.132252   -0.936342   -3.342624
     33          7           0       -7.257438   -1.373250   -0.152963
     34          6           0       -8.274051   -2.209077   -0.530317
     35          6           0       -7.882754   -3.572939   -0.459550
     36          6           0       -6.508952   -3.497629   -0.212863
     37          6           0       -6.149314   -2.135614    0.103293
     38          6           0       -8.712792   -4.760878   -0.868497
     39          6           0       -5.362689   -4.351041    0.132222
     40          8           0       -5.354417   -5.535067    0.166864
     41          6           0       -4.192605   -3.390765    0.554217
     42          6           0       -3.576117   -3.673636    1.849343
     43          8           0       -3.850706   -3.217055    2.976805
     44          8           0       -2.697055   -4.858920    1.661642
     45          6           0       -2.234862   -5.445272    2.955531
     46          6           0        2.690305   -0.660614   -1.125590
     47          6           0        4.022621   -0.492893   -0.541422
     48          6           0        5.077143    0.266879   -0.844354
     49          6           0        5.025524    1.043850   -2.199908
     50          6           0        6.406614    0.295071   -0.136164
     51          6           0        7.512729   -0.033470   -1.105825
     52          6           0        8.850562    0.012324   -0.292361
     53          6           0       10.156710   -0.516637   -1.025700
     54          6           0       10.067929   -1.875964   -1.594643
     55          6           0       11.376256   -0.227963   -0.078317
     56          6           0       12.795577   -0.487595   -0.723196
     57          6           0       13.900269   -0.013609    0.117040
     58          6           0       15.251617   -0.301383   -0.592470
     59          6           0       15.608101   -1.754983   -0.840802
     60          6           0       16.353850    0.422508    0.329004
     61          6           0       17.653697    0.609300   -0.263485
     62          6           0       18.688120    1.296801    0.630161
     63          6           0       20.222002    1.269551    0.268756
     64          6           0       20.493170    2.126788   -0.933020
     65          6           0       21.028080    1.973591    1.435026
     66          1           0       -4.082523    3.406719    1.873342
     67          1           0       -9.920238    4.125896   -0.659781
     68          1           0      -10.425396   -2.445935   -1.051440
     69          1           0       -2.736247   -1.242200    2.022924
     70          1           0       -2.114558    1.620251    1.315997
     71          1           0       -1.949050    0.660944    3.715029
     72          1           0       -3.028171    2.116430    3.731171
     73          1           0       -3.689551    0.704803    3.729543
     74          1           0       -2.156918   -1.708932   -0.249737
     75          1           0       -1.946985   -0.052020   -0.703657
     76          1           0       -0.319802    0.295071    1.159004
     77          1           0       -0.301284   -1.560369    1.438080
     78          1           0       -5.495764    6.791322    0.571606
     79          1           0       -5.410198    5.979831    2.204548
     80          1           0       -4.315778    5.340231    0.919869
     81          1           0       -9.205891    5.600943   -0.651194
     82          1           0       -8.951132    8.206771    0.450152
     83          1           0       -7.727002    7.619866    1.578689
     84          1           0      -11.807435    3.100184   -2.335764
     85          1           0      -13.230858    1.759248   -1.694018
     86          1           0      -12.203079    3.236421   -0.845690
     87          1           0      -12.411708   -1.505627   -1.294686
     88          1           0      -13.095443   -0.203549   -1.725291
     89          1           0      -12.829631   -1.550247   -3.713234
     90          1           0      -12.147526    0.071898   -3.941817
     91          1           0      -11.107380   -1.368449   -3.389243
     92          1           0       -8.926501   -4.631642   -1.998832
     93          1           0       -8.214443   -5.745836   -0.721114
     94          1           0       -9.663890   -4.709895   -0.345077
     95          1           0       -3.473434   -3.407893   -0.373248
     96          1           0       -1.547617   -4.687104    3.393127
     97          1           0       -3.019901   -5.705289    3.576981
     98          1           0       -1.673581   -6.226160    2.562127
     99          1           0        2.517645   -1.643332   -1.629419
    100          1           0        2.525115    0.140141   -1.862678
    101          1           0        3.973097   -0.977121    0.442076
    102          1           0        4.150436    1.337714   -2.690503
    103          1           0        5.566527    1.951229   -1.947233
    104          1           0        5.752174    0.561137   -3.026645
    105          1           0        6.582179    1.199632    0.471272
    106          1           0        6.163674   -0.547816    0.602255
    107          1           0        7.289708   -1.171646   -1.448947
    108          1           0        7.418516    0.650085   -1.929431
    109          1           0        8.990470    0.913604    0.228940
    110          1           0        8.663875   -0.765258    0.647170
    111          1           0       10.021141    0.142840   -2.028638
    112          1           0        9.278007   -1.887929   -2.258576
    113          1           0       10.876301   -2.198197   -2.152592
    114          1           0        9.871070   -2.751042   -0.791306
    115          1           0       11.407800    0.865376    0.262248
    116          1           0       11.298995   -0.840565    0.886550
    117          1           0       12.820973   -1.610285   -0.812635
    118          1           0       12.833832   -0.057411   -1.929997
    119          1           0       13.659929    1.061318    0.199472
    120          1           0       14.039124   -0.470366    1.114253
    121          1           0       15.134747    0.451750   -1.437596
    122          1           0       15.224533   -2.168411    0.075805
    123          1           0       14.875418   -2.008385   -1.704578
    124          1           0       16.698256   -1.969960   -0.923628
    125          1           0       16.025007    1.280755    0.670011
    126          1           0       16.355638   -0.055775    1.265877
    127          1           0       18.241844   -0.445995   -0.603400
    128          1           0       17.405398    1.256627   -1.095110
    129          1           0       18.614441    2.449128    0.795076
    130          1           0       18.420470    0.882969    1.545090
    131          1           0       20.634483    0.291997    0.180560
    132          1           0       20.122672    3.022581   -0.806811
    133          1           0       21.372362    2.218470   -1.203132
    134          1           0       19.988285    1.638395   -1.856051
    135          1           0       20.719685    1.297945    2.501989
    136          1           0       22.157684    1.857676    1.330094
    137          1           0       20.551189    2.899798    1.568760
 ---------------------------------------------------------------------

 SCF Done:  E(RCAM-B3LYP) =  -2933.49780096     A.U. after   16 cycles

 Excitation energies and oscillator strengths:

 Excited State   1:      Singlet-A      1.8929 eV  655.01 nm  f=0.3703  <S**2>=0.000
     240 -> 243        0.17886
     241 -> 242        0.67817
 This state for optimization and/or second-order correction.
 Total Energy, E(TD-HF/TD-DFT) =  -2933.42823990
 Copying the excited state density for this state as the 1-particle RhoCI density.

 The electronic state is 1-A.
 Alpha  occ. eigenvalues --  -46.79829 -19.22567 -19.20527 -19.18483 -19.17511
 Alpha  occ. eigenvalues --  -19.16345 -14.37608 -14.35210 -14.34956 -14.34927
 Alpha  occ. eigenvalues --  -10.35576 -10.34947 -10.30481 -10.27175 -10.26255
 Alpha  occ. eigenvalues --  -10.25604 -10.25555 -10.25535 -10.25308 -10.25176
 Alpha  occ. eigenvalues --  -10.24883 -10.24822 -10.24800 -10.24581 -10.24143
 Alpha  occ. eigenvalues --  -10.24087 -10.23933 -10.23893 -10.23461 -10.23398
 Alpha  occ. eigenvalues --  -10.23220 -10.23158 -10.22989 -10.22774 -10.22553
 Alpha  occ. eigenvalues --  -10.22530 -10.22423 -10.22385 -10.22324 -10.22315
 Alpha  occ. eigenvalues --  -10.22266 -10.22258 -10.22142 -10.21983 -10.21860
 Alpha  occ. eigenvalues --  -10.21806 -10.21781 -10.21748 -10.21746 -10.21643
 Alpha  occ. eigenvalues --  -10.21282 -10.21217 -10.21193 -10.21143 -10.20884
 Alpha  occ. eigenvalues --  -10.20837 -10.20748 -10.20651 -10.20618 -10.20595
 Alpha  occ. eigenvalues --  -10.20494 -10.19811 -10.19781 -10.18135 -10.17217
 Alpha  occ. eigenvalues --   -3.08314  -1.83259  -1.82778  -1.82720  -1.11865
 Alpha  occ. eigenvalues --   -1.08886  -1.07915  -1.03968  -1.01855  -0.98903
 Alpha  occ. eigenvalues --   -0.98155  -0.97470  -0.95731  -0.88171  -0.86196
 Alpha  occ. eigenvalues --   -0.85832  -0.85077  -0.84961  -0.84061  -0.83798
 Alpha  occ. eigenvalues --   -0.83325  -0.83153  -0.82390  -0.81899  -0.81396
 Alpha  occ. eigenvalues --   -0.80644  -0.80175  -0.79185  -0.78983  -0.77886
 Alpha  occ. eigenvalues --   -0.76687  -0.76240  -0.76135  -0.75309  -0.73816
 Alpha  occ. eigenvalues --   -0.73334  -0.72336  -0.71806  -0.71607  -0.71559
 Alpha  occ. eigenvalues --   -0.70784  -0.70521  -0.69773  -0.68985  -0.68252
 Alpha  occ. eigenvalues --   -0.67141  -0.66627  -0.65885  -0.64580  -0.63713
 Alpha  occ. eigenvalues --   -0.63593  -0.61990  -0.61703  -0.60577  -0.59914
 Alpha  occ. eigenvalues --   -0.59871  -0.59293  -0.58939  -0.57876  -0.57718
 Alpha  occ. eigenvalues --   -0.57467  -0.56348  -0.56223  -0.55601  -0.55114
 Alpha  occ. eigenvalues --   -0.54308  -0.54061  -0.53731  -0.53117  -0.52845
 Alpha  occ. eigenvalues --   -0.52123  -0.51813  -0.51162  -0.51130  -0.51007
 Alpha  occ. eigenvalues --   -0.50745  -0.50614  -0.50062  -0.49341  -0.49177
 Alpha  occ. eigenvalues --   -0.49017  -0.48908  -0.48647  -0.48284  -0.47911
 Alpha  occ. eigenvalues --   -0.47802  -0.47563  -0.47388  -0.47149  -0.46912
 Alpha  occ. eigenvalues --   -0.46729  -0.46629  -0.46090  -0.45976  -0.45882
 Alpha  occ. eigenvalues --   -0.45504  -0.45428  -0.45374  -0.45056  -0.44909
 Alpha  occ. eigenvalues --   -0.44693  -0.44487  -0.44086  -0.43733  -0.43537
 Alpha  occ. eigenvalues --   -0.43475  -0.43285  -0.42960  -0.42703  -0.42689
 Alpha  occ. eigenvalues --   -0.42614  -0.42445  -0.42270  -0.42174  -0.41968
 Alpha  occ. eigenvalues --   -0.41674  -0.41316  -0.41218  -0.41073  -0.40924
 Alpha  occ. eigenvalues --   -0.40880  -0.40787  -0.40695  -0.40373  -0.40103
 Alpha  occ. eigenvalues --   -0.40023  -0.39648  -0.39437  -0.39332  -0.39255
 Alpha  occ. eigenvalues --   -0.39183  -0.38729  -0.38485  -0.38359  -0.38338
 Alpha  occ. eigenvalues --   -0.38084  -0.37912  -0.37345  -0.37067  -0.37000
 Alpha  occ. eigenvalues --   -0.36959  -0.36878  -0.36467  -0.36332  -0.35848
 Alpha  occ. eigenvalues --   -0.35487  -0.35190  -0.34997  -0.34924  -0.34776
 Alpha  occ. eigenvalues --   -0.34545  -0.34490  -0.34152  -0.33528  -0.33407
 Alpha  occ. eigenvalues --   -0.33116  -0.32971  -0.32540  -0.32486  -0.32232
 Alpha  occ. eigenvalues --   -0.32138  -0.31719  -0.31343  -0.31004  -0.30799
 Alpha  occ. eigenvalues --   -0.30162  -0.30012  -0.29698  -0.29091  -0.27119
 Alpha  occ. eigenvalues --   -0.26997  -0.26618  -0.25071  -0.24052  -0.22226
 Alpha  occ. eigenvalues --   -0.20107
 Alpha virt. eigenvalues --   -0.08293  -0.03771  -0.00243   0.00924   0.02084
 Alpha virt. eigenvalues --    0.02592   0.04185   0.04391   0.05359   0.05878
 Alpha virt. eigenvalues --    0.07082   0.08162   0.09403   0.09742   0.09871

 Mulliken charges:
               1
     1  Mg   0.802693
     2  C    0.061533
     3  C   -0.195418
     4  C   -0.189072
     5  C   -0.177700
     6  N   -0.661242
     7  C    0.316304
     8  C   -0.160608
     9  C   -0.132143
    10  C    0.351179
    11  C   -0.315008
    12  C   -0.180153
    13  C   -0.263378
    14  C    0.623205
    15  O   -0.471626
    16  O   -0.481386
    17  N   -0.725284
    18  C    0.343830
    19  C   -0.030622
    20  C    0.082778
    21  C    0.281604
    22  C   -0.362050
    23  C   -0.086965
    24  C   -0.275642
    25  N   -0.703180
    26  C    0.364150
    27  C    0.029821
    28  C    0.015128
    29  C    0.278620
    30  C   -0.366594
    31  C   -0.203316
    32  C   -0.293662
    33  N   -0.737811
    34  C    0.272560
    35  C    0.018420
    36  C   -0.034013
    37  C    0.330632
    38  C   -0.377677
    39  C    0.370169
    40  O   -0.428311
    41  C   -0.301597
    42  C    0.627057
    43  O   -0.469721
    44  O   -0.504336
    45  C   -0.075384
    46  C    0.016404
    47  C   -0.127171
    48  C    0.120414
    49  C   -0.379086
    50  C   -0.231236
    51  C   -0.172911
    52  C   -0.162657
    53  C   -0.041478
    54  C   -0.297778
    55  C   -0.176643
    56  C   -0.169807
    57  C   -0.168635
    58  C   -0.063494
    59  C   -0.303774
    60  C   -0.185821
    61  C   -0.150674
    62  C   -0.152247
    63  C   -0.085238
    64  C   -0.271689
    65  C   -0.287240
    66  H    0.077265
    67  H    0.066909
    68  H    0.095774
    69  H    0.111545
    70  H    0.099285
    71  H    0.103040
    72  H    0.112680
    73  H    0.129295
    74  H    0.104889
    75  H    0.115839
    76  H    0.144505
    77  H    0.129084
    78  H    0.129905
    79  H    0.126749
    80  H    0.099565
    81  H    0.063147
    82  H    0.114261
    83  H    0.104758
    84  H    0.126135
    85  H    0.089822
    86  H    0.131443
    87  H    0.091143
    88  H    0.089154
    89  H    0.116959
    90  H    0.092772
    91  H    0.108065
    92  H    0.122229
    93  H    0.145852
    94  H    0.122433
    95  H    0.173227
    96  H    0.116050
    97  H    0.143401
    98  H    0.132892
    99  H    0.133892
   100  H    0.115022
   101  H    0.077932
   102  H    0.117413
   103  H    0.113030
   104  H    0.101494
   105  H    0.108454
   106  H    0.102266
   107  H    0.093240
   108  H    0.106351
   109  H    0.101201
   110  H    0.054681
   111  H    0.060961
   112  H    0.110073
   113  H    0.116274
   114  H    0.069622
   115  H    0.077561
   116  H    0.091823
   117  H    0.092403
   118  H    0.057541
   119  H    0.093735
   120  H    0.089455
   121  H    0.072400
   122  H    0.108728
   123  H    0.105676
   124  H    0.114086
   125  H    0.098076
   126  H    0.075671
   127  H    0.054109
   128  H    0.096202
   129  H    0.061616
   130  H    0.092572
   131  H    0.085386
   132  H    0.102834
   133  H    0.105701
   134  H    0.077883
   135  H    0.044808
   136  H    0.103459
   137  H    0.111277
 Sum of Mulliken charges =  -0.00000

 Dipole moment (field-independent basis, Debye):
    X=              0.9490    Y=              3.4511    Z=              0.8109  Tot=              3.6699
 Quadrupole moment (field-independent basis, Debye-Ang):
   XX=           -349.1187   YY=           -393.3899   ZZ=           -397.7429
   XY=            -11.3813   XZ=              5.7748   YZ=              0.5684

 Normal termination of Gaussian 16 at Wed Sep 18 05:36:58 2019.
