 Gaussian 16, Revision A.03,
 Gaussian 16:  ES64L-G16RevA.03 25-Dec-2016

 ----------------------------------------------------------------------
 # td=(NStates=1) iop(3/107=0140000000,3/108=0140000000) CAM-B3LYP/6-31
 G(d,p)
 ----------------------------------------------------------------------

 --
 TD
 --
 Symbolic Z-matrix:
 Charge =  0 Multiplicity = 1

                         Standard orientation:
 ---------------------------------------------------------------------
 Center     Atomic      Atomic             Coordinates (Angstroms)
 Number     Number       Type             X           Y           Z
 ---------------------------------------------------------------------
      1         12           0       -7.114719    0.590079    0.059568
      2          6           0       -4.801549   -1.974348    0.528971
      3          6           0       -4.744403    2.849405    1.130525
      4          6           0       -9.422122    3.050262   -0.292701
      5          6           0       -9.601096   -1.737011   -0.973850
      6          7           0       -5.179849    0.409477    0.751526
      7          6           0       -4.431503   -0.761766    0.895180
      8          6           0       -2.894743   -0.356741    1.224579
      9          6           0       -3.039134    1.165554    1.634509
     10          6           0       -4.392953    1.484166    1.119263
     11          6           0       -2.864218    1.237583    3.185940
     12          6           0       -1.897485   -0.578453    0.082720
     13          6           0       -0.457931   -0.409105    0.607219
     14          6           0        0.413667   -0.579065   -0.573112
     15          8           0        0.154636   -1.063264   -1.653604
     16          8           0        1.691248   -0.205168   -0.132520
     17          7           0       -7.117518    2.614487    0.374824
     18          6           0       -6.020391    3.355322    0.800546
     19          6           0       -6.394142    4.763722    0.794445
     20          6           0       -7.660845    4.888615    0.329865
     21          6           0       -8.135396    3.454268    0.045445
     22          6           0       -5.479113    5.856271    1.076011
     23          6           0       -8.507350    6.003388   -0.067787
     24          6           0       -8.617689    7.239101    0.549014
     25          7           0       -9.134869    0.615655   -0.387150
     26          6           0       -9.925153    1.736560   -0.492804
     27          6           0      -11.223903    1.408726   -1.021575
     28          6           0      -11.273623    0.101697   -1.246598
     29          6           0       -9.966224   -0.421762   -0.886383
     30          6           0      -12.263037    2.466324   -1.305148
     31          6           0      -12.382941   -0.677525   -1.775913
     32          6           0      -12.139726   -1.325929   -3.187465
     33          7           0       -7.229720   -1.425189   -0.178214
     34          6           0       -8.246078   -2.246264   -0.515873
     35          6           0       -7.761773   -3.672634   -0.524012
     36          6           0       -6.551320   -3.588677   -0.048862
     37          6           0       -6.161494   -2.228403    0.139322
     38          6           0       -8.526487   -4.851151   -0.959028
     39          6           0       -5.317704   -4.476774    0.258776
     40          8           0       -5.144003   -5.598227    0.269967
     41          6           0       -4.071798   -3.250295    0.497810
     42          6           0       -3.372299   -3.701272    1.838013
     43          8           0       -3.527082   -3.223561    2.967591
     44          8           0       -2.525840   -4.771770    1.631585
     45          6           0       -1.926329   -5.190973    2.843363
     46          6           0        2.786361   -0.411592   -1.095736
     47          6           0        4.062261   -0.194381   -0.496825
     48          6           0        5.139092    0.461197   -0.946205
     49          6           0        5.042589    1.255032   -2.196270
     50          6           0        6.436364    0.577761   -0.215526
     51          6           0        7.595291   -0.121726   -0.958678
     52          6           0        8.927139   -0.024869   -0.136431
     53          6           0       10.122140   -0.527330   -0.881848
     54          6           0        9.923269   -1.982665   -1.309966
     55          6           0       11.321293   -0.435160    0.016489
     56          6           0       12.701661   -0.585980   -0.766359
     57          6           0       13.928486   -0.218307    0.145825
     58          6           0       15.253560   -0.307209   -0.520513
     59          6           0       15.745133   -1.691867   -0.850430
     60          6           0       16.325593    0.332681    0.383696
     61          6           0       17.755048    0.523128   -0.241216
     62          6           0       18.709971    1.362567    0.723135
     63          6           0       20.155450    1.361733    0.354752
     64          6           0       20.233860    2.014865   -1.031129
     65          6           0       21.078747    2.082067    1.310710
     66          1           0       -3.863284    3.575035    1.209473
     67          1           0      -10.009411    3.863519   -0.518474
     68          1           0      -10.297952   -2.696183   -1.125698
     69          1           0       -2.331185   -0.999526    1.986210
     70          1           0       -2.010298    1.666071    1.390794
     71          1           0       -1.930268    0.929362    3.616935
     72          1           0       -3.010590    2.307013    3.679035
     73          1           0       -3.731188    0.701935    3.620649
     74          1           0       -2.001260   -1.583004   -0.233813
     75          1           0       -2.014912    0.139899   -0.662073
     76          1           0       -0.390314    0.603441    1.195312
     77          1           0       -0.157492   -1.188723    1.134492
     78          1           0       -5.427442    6.808101    0.500625
     79          1           0       -5.900840    6.225166    2.073918
     80          1           0       -4.451795    5.653186    1.229087
     81          1           0       -9.106142    5.944064   -0.976352
     82          1           0       -9.504120    7.948119    0.331632
     83          1           0       -7.832729    7.427705    1.425567
     84          1           0      -11.995774    3.233960   -1.995890
     85          1           0      -13.199921    2.133293   -1.708443
     86          1           0      -12.622813    2.877270   -0.311014
     87          1           0      -12.253702   -1.601470   -1.139820
     88          1           0      -13.463348   -0.303018   -1.697140
     89          1           0      -12.792508   -2.171571   -3.373460
     90          1           0      -11.999903   -0.556790   -4.017971
     91          1           0      -11.310866   -1.958177   -2.982026
     92          1           0       -8.774702   -4.886460   -1.869367
     93          1           0       -7.804791   -5.745932   -0.778038
     94          1           0       -9.450476   -4.986805   -0.201653
     95          1           0       -3.149104   -3.344272   -0.385732
     96          1           0       -1.452276   -4.381588    3.478467
     97          1           0       -2.632946   -5.656645    3.423315
     98          1           0       -1.010341   -5.795234    2.659880
     99          1           0        2.762095   -1.324329   -1.438168
    100          1           0        2.438573    0.462526   -1.934933
    101          1           0        4.067496   -0.807143    0.325788
    102          1           0        4.165715    1.228746   -2.722333
    103          1           0        5.291104    2.389767   -1.855462
    104          1           0        5.757502    0.975395   -3.070530
    105          1           0        6.698883    1.623302   -0.179037
    106          1           0        6.431029    0.022040    0.641480
    107          1           0        7.462566   -1.305595   -1.386532
    108          1           0        7.726181    0.508355   -1.911272
    109          1           0        9.310643    0.945420    0.294652
    110          1           0        8.732933   -0.690836    0.794312
    111          1           0       10.155607   -0.057777   -1.927691
    112          1           0        9.000429   -2.286074   -2.018962
    113          1           0       10.937391   -2.318633   -2.023795
    114          1           0        9.918311   -2.670469   -0.545790
    115          1           0       11.164822    0.508639    0.595931
    116          1           0       11.229091   -1.182963    0.795965
    117          1           0       12.706138   -1.485374   -1.191073
    118          1           0       12.662536    0.034010   -1.628706
    119          1           0       13.831257    0.744820    0.407135
    120          1           0       13.921531   -0.853304    1.133572
    121          1           0       15.404217    0.436815   -1.497882
    122          1           0       15.637038   -2.305558   -0.062208
    123          1           0       15.178519   -2.072764   -1.539687
    124          1           0       16.532370   -1.632509   -1.591305
    125          1           0       16.132533    1.256064    0.742115
    126          1           0       16.543090   -0.280023    1.246094
    127          1           0       18.253676   -0.424325   -0.494804
    128          1           0       17.692910    0.927818   -1.251651
    129          1           0       18.333836    2.345847    0.735414
    130          1           0       18.574458    0.852413    1.710206
    131          1           0       20.548258    0.245334    0.226477
    132          1           0       19.762914    3.010171   -1.041560
    133          1           0       21.365617    1.883214   -1.411369
    134          1           0       19.375599    1.565698   -1.956570
    135          1           0       20.970299    1.664895    2.411161
    136          1           0       22.199284    2.061559    0.966461
    137          1           0       20.716765    3.120464    1.382977
 ---------------------------------------------------------------------

 SCF Done:  E(RCAM-B3LYP) =  -2933.46929156     A.U. after   16 cycles

 Excitation energies and oscillator strengths:

 Excited State   1:      Singlet-A      1.9924 eV  622.28 nm  f=0.2634  <S**2>=0.000
     240 -> 243        0.20882
     241 -> 242        0.67300
 This state for optimization and/or second-order correction.
 Total Energy, E(TD-HF/TD-DFT) =  -2933.39607183
 Copying the excited state density for this state as the 1-particle RhoCI density.

 The electronic state is 1-A.
 Alpha  occ. eigenvalues --  -46.79780 -19.21725 -19.20641 -19.18985 -19.17411
 Alpha  occ. eigenvalues --  -19.16170 -14.38298 -14.35529 -14.35515 -14.35496
 Alpha  occ. eigenvalues --  -10.34412 -10.34317 -10.32208 -10.27115 -10.26606
 Alpha  occ. eigenvalues --  -10.26029 -10.25890 -10.25657 -10.25522 -10.25430
 Alpha  occ. eigenvalues --  -10.25022 -10.24980 -10.24700 -10.24578 -10.24109
 Alpha  occ. eigenvalues --  -10.23917 -10.23891 -10.23443 -10.23301 -10.22997
 Alpha  occ. eigenvalues --  -10.22900 -10.22878 -10.22812 -10.22767 -10.22658
 Alpha  occ. eigenvalues --  -10.22588 -10.22461 -10.22384 -10.22252 -10.22137
 Alpha  occ. eigenvalues --  -10.22006 -10.21958 -10.21877 -10.21871 -10.21863
 Alpha  occ. eigenvalues --  -10.21808 -10.21716 -10.21697 -10.21605 -10.21508
 Alpha  occ. eigenvalues --  -10.21477 -10.21352 -10.21329 -10.21021 -10.21012
 Alpha  occ. eigenvalues --  -10.20882 -10.20643 -10.20539 -10.20534 -10.20365
 Alpha  occ. eigenvalues --  -10.20263 -10.20102 -10.19906 -10.18906 -10.17466
 Alpha  occ. eigenvalues --   -3.08424  -1.83362  -1.82901  -1.82830  -1.12689
 Alpha  occ. eigenvalues --   -1.11785  -1.11106  -1.03934  -1.02693  -0.98879
 Alpha  occ. eigenvalues --   -0.98031  -0.97470  -0.96757  -0.86872  -0.86466
 Alpha  occ. eigenvalues --   -0.85879  -0.85277  -0.84892  -0.84530  -0.84001
 Alpha  occ. eigenvalues --   -0.83796  -0.83249  -0.82887  -0.81862  -0.81259
 Alpha  occ. eigenvalues --   -0.80204  -0.78844  -0.78214  -0.77972  -0.77379
 Alpha  occ. eigenvalues --   -0.76592  -0.75782  -0.75675  -0.75379  -0.73387
 Alpha  occ. eigenvalues --   -0.73037  -0.72541  -0.72188  -0.71174  -0.70875
 Alpha  occ. eigenvalues --   -0.70295  -0.70021  -0.68888  -0.68648  -0.67822
 Alpha  occ. eigenvalues --   -0.67120  -0.66137  -0.65411  -0.64740  -0.63021
 Alpha  occ. eigenvalues --   -0.62199  -0.62144  -0.60915  -0.60706  -0.60011
 Alpha  occ. eigenvalues --   -0.59582  -0.58853  -0.58514  -0.58240  -0.57405
 Alpha  occ. eigenvalues --   -0.57191  -0.56782  -0.56136  -0.56082  -0.55253
 Alpha  occ. eigenvalues --   -0.54563  -0.54421  -0.53726  -0.53065  -0.52787
 Alpha  occ. eigenvalues --   -0.52299  -0.51847  -0.51637  -0.51374  -0.51051
 Alpha  occ. eigenvalues --   -0.50891  -0.50479  -0.50068  -0.49444  -0.49242
 Alpha  occ. eigenvalues --   -0.49076  -0.48732  -0.48696  -0.48106  -0.47995
 Alpha  occ. eigenvalues --   -0.47871  -0.47430  -0.47269  -0.47004  -0.46745
 Alpha  occ. eigenvalues --   -0.46712  -0.46596  -0.46325  -0.46190  -0.45929
 Alpha  occ. eigenvalues --   -0.45641  -0.45544  -0.45394  -0.45200  -0.45124
 Alpha  occ. eigenvalues --   -0.44757  -0.44243  -0.44083  -0.43748  -0.43358
 Alpha  occ. eigenvalues --   -0.43339  -0.43189  -0.42927  -0.42737  -0.42510
 Alpha  occ. eigenvalues --   -0.42497  -0.42367  -0.42239  -0.41681  -0.41467
 Alpha  occ. eigenvalues --   -0.41330  -0.41167  -0.41036  -0.40981  -0.40924
 Alpha  occ. eigenvalues --   -0.40647  -0.40382  -0.40262  -0.40085  -0.39757
 Alpha  occ. eigenvalues --   -0.39576  -0.39447  -0.39309  -0.39054  -0.38934
 Alpha  occ. eigenvalues --   -0.38720  -0.38414  -0.38244  -0.38106  -0.37942
 Alpha  occ. eigenvalues --   -0.37434  -0.37264  -0.37017  -0.36865  -0.36739
 Alpha  occ. eigenvalues --   -0.36630  -0.36377  -0.36335  -0.36077  -0.36007
 Alpha  occ. eigenvalues --   -0.35740  -0.35266  -0.35229  -0.34892  -0.34730
 Alpha  occ. eigenvalues --   -0.34720  -0.34078  -0.33658  -0.33543  -0.33384
 Alpha  occ. eigenvalues --   -0.33362  -0.33248  -0.32910  -0.32338  -0.32168
 Alpha  occ. eigenvalues --   -0.32047  -0.31818  -0.31663  -0.30905  -0.30742
 Alpha  occ. eigenvalues --   -0.30272  -0.30105  -0.29409  -0.28370  -0.27783
 Alpha  occ. eigenvalues --   -0.26834  -0.26755  -0.26188  -0.25059  -0.21868
 Alpha  occ. eigenvalues --   -0.19597
 Alpha virt. eigenvalues --   -0.06919  -0.03669   0.00695   0.01664   0.03635
 Alpha virt. eigenvalues --    0.03968   0.04126   0.04329   0.04791   0.05533
 Alpha virt. eigenvalues --    0.06605   0.08356   0.09107   0.09341   0.09354

 Mulliken charges:
               1
     1  Mg   0.817108
     2  C    0.149903
     3  C   -0.197153
     4  C   -0.152697
     5  C   -0.187025
     6  N   -0.658120
     7  C    0.293991
     8  C   -0.148203
     9  C   -0.153312
    10  C    0.362590
    11  C   -0.307521
    12  C   -0.160348
    13  C   -0.255420
    14  C    0.608075
    15  O   -0.463675
    16  O   -0.514630
    17  N   -0.715859
    18  C    0.322581
    19  C    0.031219
    20  C    0.032945
    21  C    0.289253
    22  C   -0.392214
    23  C   -0.099715
    24  C   -0.245899
    25  N   -0.680163
    26  C    0.307241
    27  C    0.024936
    28  C    0.104299
    29  C    0.292008
    30  C   -0.385297
    31  C   -0.275714
    32  C   -0.306469
    33  N   -0.694189
    34  C    0.223635
    35  C   -0.015004
    36  C    0.020363
    37  C    0.244705
    38  C   -0.373167
    39  C    0.385765
    40  O   -0.360248
    41  C   -0.375542
    42  C    0.606702
    43  O   -0.478372
    44  O   -0.442905
    45  C   -0.083603
    46  C    0.043548
    47  C   -0.140810
    48  C    0.156520
    49  C   -0.359072
    50  C   -0.210371
    51  C   -0.184230
    52  C   -0.163730
    53  C   -0.040576
    54  C   -0.294410
    55  C   -0.180226
    56  C   -0.184717
    57  C   -0.152828
    58  C   -0.074336
    59  C   -0.289355
    60  C   -0.162197
    61  C   -0.199554
    62  C   -0.165455
    63  C   -0.039868
    64  C   -0.275140
    65  C   -0.291969
    66  H    0.095341
    67  H    0.066424
    68  H    0.096371
    69  H    0.102870
    70  H    0.092029
    71  H    0.117454
    72  H    0.079460
    73  H    0.126476
    74  H    0.114035
    75  H    0.114193
    76  H    0.122095
    77  H    0.151013
    78  H    0.129387
    79  H    0.120464
    80  H    0.117751
    81  H    0.103855
    82  H    0.110737
    83  H    0.088379
    84  H    0.125989
    85  H    0.112398
    86  H    0.116925
    87  H    0.100638
    88  H    0.102579
    89  H    0.103076
    90  H    0.109986
    91  H    0.109823
    92  H    0.138314
    93  H    0.123870
    94  H    0.106555
    95  H    0.130976
    96  H    0.113842
    97  H    0.136731
    98  H    0.109386
    99  H    0.136591
   100  H    0.082195
   101  H    0.082848
   102  H    0.118056
   103  H    0.089052
   104  H    0.107309
   105  H    0.110942
   106  H    0.106913
   107  H    0.077278
   108  H    0.084575
   109  H    0.086787
   110  H    0.075741
   111  H    0.084507
   112  H    0.082700
   113  H    0.050952
   114  H    0.114733
   115  H    0.076224
   116  H    0.096722
   117  H    0.107193
   118  H    0.095657
   119  H    0.105267
   120  H    0.072135
   121  H    0.046902
   122  H    0.107955
   123  H    0.104563
   124  H    0.101218
   125  H    0.089912
   126  H    0.084549
   127  H    0.093181
   128  H    0.080851
   129  H    0.094233
   130  H    0.082373
   131  H    0.070552
   132  H    0.107582
   133  H    0.084125
   134  H    0.048212
   135  H    0.087894
   136  H    0.094545
   137  H    0.101473
 Sum of Mulliken charges =  -0.00000

 Dipole moment (field-independent basis, Debye):
    X=              0.8702    Y=              3.9015    Z=             -0.6542  Tot=              4.0505
 Quadrupole moment (field-independent basis, Debye-Ang):
   XX=           -354.7143   YY=           -387.9301   ZZ=           -400.7191
   XY=            -19.4933   XZ=             21.6617   YZ=             -0.2223

 Normal termination of Gaussian 16 at Tue Sep 17 10:02:54 2019.
