 Gaussian 16, Revision A.03,
 Gaussian 16:  ES64L-G16RevA.03 25-Dec-2016

 ----------------------------------------------------------------------
 # td=(NStates=1) iop(3/107=0140000000,3/108=0140000000) CAM-B3LYP/6-31
 G(d,p)
 ----------------------------------------------------------------------

 --
 TD
 --
 Symbolic Z-matrix:
 Charge =  0 Multiplicity = 1

                         Standard orientation:
 ---------------------------------------------------------------------
 Center     Atomic      Atomic             Coordinates (Angstroms)
 Number     Number       Type             X           Y           Z
 ---------------------------------------------------------------------
      1         12           0       -7.052276    0.671961    0.140213
      2          6           0       -4.871404   -1.972823    0.654935
      3          6           0       -4.764296    2.806302    1.204347
      4          6           0       -9.278874    3.136535   -0.381453
      5          6           0       -9.633882   -1.745878   -0.744920
      6          7           0       -5.125345    0.470471    0.765122
      7          6           0       -4.418288   -0.724198    0.861527
      8          6           0       -3.017133   -0.377617    1.316167
      9          6           0       -3.139209    1.083744    1.914492
     10          6           0       -4.413191    1.495453    1.164731
     11          6           0       -2.947920    1.072192    3.459191
     12          6           0       -1.928691   -0.553255    0.203906
     13          6           0       -0.498767   -0.465110    0.546625
     14          6           0        0.469809   -0.649685   -0.595341
     15          8           0        0.222100   -1.071473   -1.699852
     16          8           0        1.697010   -0.469313   -0.196196
     17          7           0       -7.049552    2.604232    0.292220
     18          6           0       -6.020558    3.349147    0.623195
     19          6           0       -6.312525    4.776381    0.710690
     20          6           0       -7.573065    4.970301    0.224504
     21          6           0       -8.062286    3.646635   -0.029590
     22          6           0       -5.237030    5.859889    1.050387
     23          6           0       -8.389075    6.085028    0.162437
     24          6           0       -8.283432    7.305906    0.619704
     25          7           0       -9.005004    0.723972   -0.498386
     26          6           0       -9.818401    1.849031   -0.614269
     27          6           0      -11.187358    1.477990   -1.104985
     28          6           0      -11.227850    0.150552   -1.263112
     29          6           0       -9.931557   -0.373741   -0.780709
     30          6           0      -12.238049    2.508828   -1.497519
     31          6           0      -12.318878   -0.747769   -1.834815
     32          6           0      -12.144234   -1.014733   -3.331382
     33          7           0       -7.205114   -1.401684   -0.109753
     34          6           0       -8.265626   -2.167980   -0.464050
     35          6           0       -7.860703   -3.587375   -0.422426
     36          6           0       -6.575414   -3.575165   -0.026503
     37          6           0       -6.197881   -2.274127    0.170253
     38          6           0       -8.642713   -4.776184   -1.007728
     39          6           0       -5.351624   -4.390065    0.118885
     40          8           0       -5.193267   -5.627128    0.030233
     41          6           0       -4.195091   -3.357267    0.552777
     42          6           0       -3.581615   -3.648029    1.840104
     43          8           0       -3.771363   -3.165676    2.958093
     44          8           0       -2.726446   -4.759509    1.659757
     45          6           0       -2.095695   -5.224673    2.904966
     46          6           0        2.754553   -0.810271   -1.091122
     47          6           0        4.055349   -0.440788   -0.490659
     48          6           0        5.043359    0.315086   -0.933894
     49          6           0        5.025162    1.165667   -2.133323
     50          6           0        6.401278    0.464081   -0.179945
     51          6           0        7.563128   -0.124631   -0.998134
     52          6           0        8.909873   -0.134119   -0.163935
     53          6           0       10.099948   -0.642149   -0.814050
     54          6           0       10.132278   -2.115351   -1.256520
     55          6           0       11.426209   -0.428890   -0.083981
     56          6           0       12.637292   -0.575661   -0.864777
     57          6           0       13.943067   -0.267324    0.144072
     58          6           0       15.289938   -0.310774   -0.534622
     59          6           0       15.666232   -1.676565   -0.997768
     60          6           0       16.354572    0.438974    0.251206
     61          6           0       17.788183    0.597235   -0.200946
     62          6           0       18.679521    1.280589    0.817318
     63          6           0       20.227217    1.450978    0.382740
     64          6           0       20.254632    2.209160   -1.049594
     65          6           0       21.094403    2.154106    1.314084
     66          1           0       -4.020544    3.627228    1.522000
     67          1           0       -9.952635    3.785453   -0.531057
     68          1           0      -10.644308   -2.451366   -0.725017
     69          1           0       -2.643145   -1.151585    2.033950
     70          1           0       -2.239737    1.634483    1.534206
     71          1           0       -2.018718    0.566720    3.909781
     72          1           0       -3.010267    2.035931    3.753905
     73          1           0       -3.930937    0.652728    3.957098
     74          1           0       -2.072116   -1.561474   -0.323918
     75          1           0       -2.144678    0.338592   -0.404498
     76          1           0       -0.291796    0.589448    1.029731
     77          1           0       -0.297686   -1.132252    1.543102
     78          1           0       -5.323199    6.825178    0.420956
     79          1           0       -5.124631    5.976523    2.200427
     80          1           0       -4.225989    5.409379    0.652944
     81          1           0       -9.247756    5.963316   -0.680401
     82          1           0       -8.926303    8.050502    0.511702
     83          1           0       -7.542274    7.502978    1.456448
     84          1           0      -11.656117    3.227086   -2.144397
     85          1           0      -13.079681    2.034066   -1.912984
     86          1           0      -12.533829    3.033701   -0.599824
     87          1           0      -12.294323   -1.758755   -1.158972
     88          1           0      -13.122548   -0.167088   -1.537008
     89          1           0      -12.886357   -1.688345   -3.650399
     90          1           0      -11.994495   -0.225963   -3.928961
     91          1           0      -11.225085   -1.557847   -3.583957
     92          1           0       -8.793535   -4.727039   -2.154202
     93          1           0       -8.039309   -5.496105   -0.933512
     94          1           0       -9.686199   -4.948593   -0.668017
     95          1           0       -3.355340   -3.148405   -0.277087
     96          1           0       -1.580285   -4.492910    3.498055
     97          1           0       -2.807334   -5.559519    3.567787
     98          1           0       -1.343551   -5.983107    2.745666
     99          1           0        2.756405   -1.975524   -1.205315
    100          1           0        2.645602   -0.235871   -2.332616
    101          1           0        4.189030   -1.089883    0.475187
    102          1           0        4.168984    1.288493   -2.896166
    103          1           0        5.285386    2.070749   -1.741665
    104          1           0        5.856726    0.825027   -2.852116
    105          1           0        6.445234    1.578280   -0.093086
    106          1           0        6.223480   -0.119112    0.790854
    107          1           0        7.337773   -1.165656   -1.200747
    108          1           0        7.582631    0.348537   -2.085774
    109          1           0        8.921955    0.908464    0.011667
    110          1           0        8.770029   -0.700565    0.804700
    111          1           0       10.567614    0.064858   -1.726977
    112          1           0        9.226296   -2.364765   -1.702025
    113          1           0       10.856367   -2.277660   -2.189262
    114          1           0        9.987660   -2.996514   -0.614093
    115          1           0       11.296109    0.649749    0.212946
    116          1           0       11.448916   -0.865845    0.862078
    117          1           0       12.646576   -1.582512   -1.353024
    118          1           0       12.491426    0.032969   -1.646745
    119          1           0       13.728081    0.722146    0.463082
    120          1           0       13.849568   -0.863662    0.963051
    121          1           0       15.269613    0.183816   -1.356548
    122          1           0       15.431127   -2.394841   -0.185206
    123          1           0       14.972576   -1.988484   -1.867109
    124          1           0       16.619103   -1.539718   -1.492244
    125          1           0       15.871199    1.376177    0.462134
    126          1           0       16.213903   -0.067256    1.314281
    127          1           0       18.182267   -0.309659   -0.577025
    128          1           0       17.777118    1.173525   -1.035170
    129          1           0       18.517437    2.259244    1.336024
    130          1           0       18.806744    0.436810    1.614729
    131          1           0       20.507755    0.436038    0.193361
    132          1           0       19.861034    3.244256   -0.854263
    133          1           0       21.320089    2.174285   -1.382689
    134          1           0       19.519537    1.606156   -1.782268
    135          1           0       21.460071    1.581695    2.213311
    136          1           0       22.027605    2.181847    0.854801
    137          1           0       20.551683    3.108221    1.706080
 ---------------------------------------------------------------------

 SCF Done:  E(RCAM-B3LYP) =  -2933.45125124     A.U. after   16 cycles

 Excitation energies and oscillator strengths:

 Excited State   1:      Singlet-A      1.9747 eV  627.87 nm  f=0.3163  <S**2>=0.000
     240 -> 243        0.19427
     241 -> 242        0.67721
 This state for optimization and/or second-order correction.
 Total Energy, E(TD-HF/TD-DFT) =  -2933.37868318
 Copying the excited state density for this state as the 1-particle RhoCI density.

 The electronic state is 1-A.
 Alpha  occ. eigenvalues --  -46.79094 -19.22267 -19.20760 -19.16901 -19.16384
 Alpha  occ. eigenvalues --  -19.15685 -14.37047 -14.36011 -14.35842 -14.35027
 Alpha  occ. eigenvalues --  -10.34307 -10.34013 -10.31398 -10.29861 -10.25906
 Alpha  occ. eigenvalues --  -10.25885 -10.25768 -10.25704 -10.25519 -10.25309
 Alpha  occ. eigenvalues --  -10.24976 -10.24852 -10.24818 -10.24699 -10.24594
 Alpha  occ. eigenvalues --  -10.24339 -10.23682 -10.23627 -10.23586 -10.23537
 Alpha  occ. eigenvalues --  -10.23354 -10.23171 -10.23123 -10.23085 -10.22958
 Alpha  occ. eigenvalues --  -10.22653 -10.22554 -10.22528 -10.22284 -10.22154
 Alpha  occ. eigenvalues --  -10.22097 -10.22042 -10.21923 -10.21743 -10.21735
 Alpha  occ. eigenvalues --  -10.21730 -10.21647 -10.21483 -10.21458 -10.21423
 Alpha  occ. eigenvalues --  -10.21384 -10.21366 -10.21074 -10.20431 -10.20395
 Alpha  occ. eigenvalues --  -10.20303 -10.20268 -10.20266 -10.20131 -10.19973
 Alpha  occ. eigenvalues --  -10.19965 -10.19830 -10.19713 -10.18937 -10.18703
 Alpha  occ. eigenvalues --   -3.07959  -1.82879  -1.82422  -1.82404  -1.14876
 Alpha  occ. eigenvalues --   -1.10083  -1.04129  -1.04085  -1.02283  -0.99746
 Alpha  occ. eigenvalues --   -0.98809  -0.98290  -0.95449  -0.87412  -0.86733
 Alpha  occ. eigenvalues --   -0.86122  -0.85990  -0.85155  -0.84397  -0.84353
 Alpha  occ. eigenvalues --   -0.83193  -0.82968  -0.82566  -0.81178  -0.81024
 Alpha  occ. eigenvalues --   -0.80177  -0.79661  -0.79107  -0.78786  -0.78540
 Alpha  occ. eigenvalues --   -0.77652  -0.76468  -0.75815  -0.75568  -0.73781
 Alpha  occ. eigenvalues --   -0.73326  -0.73061  -0.71807  -0.71615  -0.70956
 Alpha  occ. eigenvalues --   -0.70482  -0.70194  -0.69661  -0.68988  -0.68242
 Alpha  occ. eigenvalues --   -0.67526  -0.66400  -0.65833  -0.65532  -0.64327
 Alpha  occ. eigenvalues --   -0.64047  -0.63457  -0.61654  -0.60588  -0.60184
 Alpha  occ. eigenvalues --   -0.59441  -0.59197  -0.58169  -0.57602  -0.57344
 Alpha  occ. eigenvalues --   -0.57223  -0.56545  -0.55618  -0.55262  -0.54623
 Alpha  occ. eigenvalues --   -0.54425  -0.53690  -0.53417  -0.52579  -0.52417
 Alpha  occ. eigenvalues --   -0.52100  -0.51609  -0.51301  -0.51087  -0.50828
 Alpha  occ. eigenvalues --   -0.50636  -0.50310  -0.50045  -0.49257  -0.49168
 Alpha  occ. eigenvalues --   -0.49003  -0.48799  -0.48782  -0.48630  -0.48309
 Alpha  occ. eigenvalues --   -0.48282  -0.47415  -0.47217  -0.47149  -0.46966
 Alpha  occ. eigenvalues --   -0.46635  -0.46530  -0.46276  -0.46219  -0.45820
 Alpha  occ. eigenvalues --   -0.45748  -0.45517  -0.45120  -0.44994  -0.44899
 Alpha  occ. eigenvalues --   -0.44627  -0.44370  -0.44237  -0.44124  -0.43809
 Alpha  occ. eigenvalues --   -0.43560  -0.43396  -0.43113  -0.42954  -0.42648
 Alpha  occ. eigenvalues --   -0.42236  -0.42033  -0.41900  -0.41634  -0.41441
 Alpha  occ. eigenvalues --   -0.41369  -0.41114  -0.40816  -0.40763  -0.40619
 Alpha  occ. eigenvalues --   -0.40562  -0.40308  -0.40277  -0.39915  -0.39686
 Alpha  occ. eigenvalues --   -0.39418  -0.39183  -0.39116  -0.39081  -0.38919
 Alpha  occ. eigenvalues --   -0.38756  -0.38685  -0.38522  -0.38363  -0.37839
 Alpha  occ. eigenvalues --   -0.37780  -0.37637  -0.37162  -0.37060  -0.36848
 Alpha  occ. eigenvalues --   -0.36658  -0.36469  -0.36361  -0.36075  -0.36057
 Alpha  occ. eigenvalues --   -0.35842  -0.35337  -0.35311  -0.35190  -0.34678
 Alpha  occ. eigenvalues --   -0.34391  -0.34273  -0.34064  -0.33963  -0.33208
 Alpha  occ. eigenvalues --   -0.33143  -0.33043  -0.32915  -0.32429  -0.32207
 Alpha  occ. eigenvalues --   -0.31611  -0.31157  -0.30848  -0.30591  -0.30169
 Alpha  occ. eigenvalues --   -0.29886  -0.29546  -0.29529  -0.28372  -0.27526
 Alpha  occ. eigenvalues --   -0.27210  -0.27175  -0.26381  -0.25991  -0.21884
 Alpha  occ. eigenvalues --   -0.19963
 Alpha virt. eigenvalues --   -0.07527  -0.03526  -0.00465   0.01790   0.03244
 Alpha virt. eigenvalues --    0.03756   0.04755   0.04880   0.05183   0.05417
 Alpha virt. eigenvalues --    0.06131   0.08120   0.08996   0.09182   0.09451

 Mulliken charges:
               1
     1  Mg   0.805443
     2  C    0.091758
     3  C   -0.204487
     4  C   -0.181063
     5  C   -0.163215
     6  N   -0.668079
     7  C    0.331532
     8  C   -0.191133
     9  C   -0.137582
    10  C    0.370643
    11  C   -0.302984
    12  C   -0.152186
    13  C   -0.270851
    14  C    0.613167
    15  O   -0.470721
    16  O   -0.426071
    17  N   -0.688139
    18  C    0.339928
    19  C   -0.026801
    20  C    0.134918
    21  C    0.252522
    22  C   -0.376426
    23  C   -0.079945
    24  C   -0.242154
    25  N   -0.653660
    26  C    0.301275
    27  C    0.016556
    28  C    0.022211
    29  C    0.260152
    30  C   -0.366542
    31  C   -0.218384
    32  C   -0.313671
    33  N   -0.686154
    34  C    0.256126
    35  C   -0.050533
    36  C    0.096837
    37  C    0.230403
    38  C   -0.356279
    39  C    0.370190
    40  O   -0.465309
    41  C   -0.338279
    42  C    0.653682
    43  O   -0.469933
    44  O   -0.474850
    45  C   -0.090560
    46  C    0.028030
    47  C   -0.136059
    48  C    0.131802
    49  C   -0.356693
    50  C   -0.223585
    51  C   -0.182413
    52  C   -0.169105
    53  C   -0.037060
    54  C   -0.325686
    55  C   -0.165214
    56  C   -0.184802
    57  C   -0.187366
    58  C   -0.044065
    59  C   -0.303238
    60  C   -0.173641
    61  C   -0.183241
    62  C   -0.166667
    63  C   -0.069009
    64  C   -0.303167
    65  C   -0.295929
    66  H    0.074499
    67  H    0.031989
    68  H    0.101841
    69  H    0.104885
    70  H    0.089947
    71  H    0.114318
    72  H    0.117823
    73  H    0.108524
    74  H    0.105242
    75  H    0.104989
    76  H    0.112237
    77  H    0.113211
    78  H    0.125440
    79  H    0.124112
    80  H    0.111188
    81  H    0.069027
    82  H    0.108301
    83  H    0.091833
    84  H    0.122604
    85  H    0.117987
    86  H    0.129855
    87  H    0.080043
    88  H    0.112804
    89  H    0.114422
    90  H    0.125825
    91  H    0.114433
    92  H    0.109274
    93  H    0.145524
    94  H    0.113274
    95  H    0.165531
    96  H    0.118298
    97  H    0.136148
    98  H    0.119432
    99  H    0.117207
   100  H    0.072014
   101  H    0.071288
   102  H    0.109229
   103  H    0.125955
   104  H    0.110950
   105  H    0.101180
   106  H    0.100031
   107  H    0.105724
   108  H    0.086425
   109  H    0.105905
   110  H    0.091325
   111  H    0.048797
   112  H    0.099234
   113  H    0.096366
   114  H    0.104909
   115  H    0.066125
   116  H    0.084375
   117  H    0.090924
   118  H    0.095677
   119  H    0.094363
   120  H    0.101994
   121  H    0.089991
   122  H    0.098268
   123  H    0.086452
   124  H    0.097256
   125  H    0.090779
   126  H    0.053780
   127  H    0.101672
   128  H    0.106234
   129  H    0.084445
   130  H    0.079718
   131  H    0.087215
   132  H    0.098971
   133  H    0.097603
   134  H    0.082634
   135  H    0.092354
   136  H    0.111791
   137  H    0.091735
 Sum of Mulliken charges =  -0.00000

 Dipole moment (field-independent basis, Debye):
    X=              0.1377    Y=              6.0812    Z=             -0.0090  Tot=              6.0828
 Quadrupole moment (field-independent basis, Debye-Ang):
   XX=           -322.4420   YY=           -395.9459   ZZ=           -396.5075
   XY=            -30.0327   XZ=             13.2510   YZ=             -0.6346

 Normal termination of Gaussian 16 at Fri Sep  6 12:32:54 2019.
