 Gaussian 09, Revision D.01,
 Gaussian 09:  ES64L-G09RevD.01 24-Apr-2013

 -------------------------------------
 # td=(NStates=1) CAM-B3LYP/6-31G(d,p)
 -------------------------------------

 --
 TD
 --
 Symbolic Z-matrix:
 Charge =  0 Multiplicity = 1

                         Standard orientation:
 ---------------------------------------------------------------------
 Center     Atomic      Atomic             Coordinates (Angstroms)
 Number     Number       Type             X           Y           Z
 ---------------------------------------------------------------------
      1         12           0       -7.131570    0.610240    0.111958
      2          6           0       -4.791355   -1.987108    0.528059
      3          6           0       -4.787330    2.765621    1.137916
      4          6           0       -9.461059    2.985568   -0.428142
      5          6           0       -9.471376   -1.779592   -0.989468
      6          7           0       -5.010572    0.351749    0.745453
      7          6           0       -4.301395   -0.789464    0.909786
      8          6           0       -2.859616   -0.395431    1.210583
      9          6           0       -3.020136    1.009880    1.725233
     10          6           0       -4.347491    1.433564    1.213484
     11          6           0       -3.035709    1.125314    3.279873
     12          6           0       -2.032157   -0.632356    0.028796
     13          6           0       -0.463207   -0.597778    0.492131
     14          6           0        0.583814   -0.612156   -0.661117
     15          8           0        0.230948   -0.905877   -1.857174
     16          8           0        1.766615   -0.466764   -0.204009
     17          7           0       -7.105830    2.607927    0.350092
     18          6           0       -6.130440    3.359987    0.777858
     19          6           0       -6.455308    4.764672    0.970499
     20          6           0       -7.862562    4.835803    0.432730
     21          6           0       -8.192189    3.458564    0.055105
     22          6           0       -5.536412    5.828975    1.330610
     23          6           0       -8.656691    6.047084    0.330777
     24          6           0       -8.515395    7.290043    0.802104
     25          7           0       -9.085879    0.584505   -0.588694
     26          6           0       -9.892296    1.738902   -0.659948
     27          6           0      -11.240211    1.417088   -1.185864
     28          6           0      -11.225353   -0.001796   -1.475907
     29          6           0       -9.860493   -0.484781   -0.986482
     30          6           0      -12.228712    2.526904   -1.446688
     31          6           0      -12.312898   -0.823043   -1.945078
     32          6           0      -12.175357   -1.043431   -3.440841
     33          7           0       -7.138733   -1.449588   -0.245074
     34          6           0       -8.165200   -2.295641   -0.523844
     35          6           0       -7.834408   -3.637097   -0.524582
     36          6           0       -6.478481   -3.624963    0.007860
     37          6           0       -6.098986   -2.270278    0.053705
     38          6           0       -8.675542   -4.793481   -0.882164
     39          6           0       -5.314396   -4.377209    0.222620
     40          8           0       -5.069939   -5.538952    0.255403
     41          6           0       -4.146023   -3.370098    0.584888
     42          6           0       -3.503588   -3.626686    1.913190
     43          8           0       -3.652137   -2.998779    2.964242
     44          8           0       -2.759192   -4.760133    1.914299
     45          6           0       -2.133390   -5.163390    3.152881
     46          6           0        2.822664   -0.405537   -1.301712
     47          6           0        4.074014   -0.243996   -0.651662
     48          6           0        5.130889    0.491082   -0.988124
     49          6           0        5.000569    1.311533   -2.216688
     50          6           0        6.382731    0.578195   -0.196814
     51          6           0        7.569109   -0.023411   -0.998161
     52          6           0        8.851857   -0.045310   -0.182777
     53          6           0       10.145680   -0.521841   -0.854697
     54          6           0       10.145576   -2.008875   -1.209749
     55          6           0       11.343514   -0.219660   -0.061781
     56          6           0       12.763404   -0.454995   -0.728222
     57          6           0       13.904687   -0.158224    0.264903
     58          6           0       15.356630   -0.154336   -0.429238
     59          6           0       15.630228   -1.592210   -0.805139
     60          6           0       16.455564    0.284077    0.567305
     61          6           0       17.852826    0.544255   -0.255282
     62          6           0       18.785011    1.279182    0.687413
     63          6           0       20.223149    1.286902    0.231240
     64          6           0       20.440409    1.939135   -1.233003
     65          6           0       21.023162    1.909926    1.274820
     66          1           0       -4.092034    3.428283    1.764744
     67          1           0      -10.124727    3.887583   -0.471186
     68          1           0      -10.141656   -2.445126   -1.065133
     69          1           0       -2.637974   -1.077847    2.014309
     70          1           0       -2.267399    1.855204    1.418446
     71          1           0       -2.258209    0.720118    3.689908
     72          1           0       -3.141718    2.182764    3.674765
     73          1           0       -3.950685    0.628857    3.755896
     74          1           0       -2.178596   -1.492113   -0.577656
     75          1           0       -2.213066    0.124521   -0.779640
     76          1           0       -0.128327    0.205937    1.229183
     77          1           0       -0.333603   -1.665651    1.186867
     78          1           0       -5.922324    6.772021    0.906230
     79          1           0       -5.612127    5.959952    2.475841
     80          1           0       -4.536147    5.741502    0.964108
     81          1           0       -9.695600    6.004647   -0.183720
     82          1           0       -9.208044    8.009385    0.581742
     83          1           0       -7.729982    7.385298    1.646020
     84          1           0      -11.753956    2.979191   -2.381152
     85          1           0      -13.257100    1.976362   -1.537208
     86          1           0      -12.208497    3.374125   -0.762013
     87          1           0      -12.541731   -1.751815   -1.412306
     88          1           0      -13.289618   -0.246670   -1.809626
     89          1           0      -12.925361   -1.694789   -3.743020
     90          1           0      -12.039868   -0.015770   -3.861839
     91          1           0      -11.178506   -1.584078   -3.400057
     92          1           0       -9.025147   -4.753125   -1.865465
     93          1           0       -8.037410   -5.651510   -0.527084
     94          1           0       -9.659475   -4.923315   -0.422261
     95          1           0       -3.456087   -3.404491   -0.337367
     96          1           0       -1.410647   -4.378555    3.564301
     97          1           0       -3.012185   -5.244993    3.913633
     98          1           0       -1.606693   -6.074820    2.700619
     99          1           0        2.721171   -1.301550   -1.777098
    100          1           0        2.549129    0.411933   -2.059124
    101          1           0        4.349418   -1.015619    0.059956
    102          1           0        4.092828    1.267218   -2.949192
    103          1           0        5.249530    2.439763   -2.027662
    104          1           0        5.987084    1.125954   -2.868121
    105          1           0        6.495170    1.730834   -0.136856
    106          1           0        6.295672    0.144698    0.749752
    107          1           0        7.293289   -1.052520   -1.465683
    108          1           0        7.681429    0.701417   -1.910314
    109          1           0        9.085726    0.910067    0.531331
    110          1           0        8.625761   -1.043278    0.542591
    111          1           0       10.214613   -0.045816   -1.715485
    112          1           0        9.308515   -2.269928   -1.779989
    113          1           0       10.965845   -2.315808   -1.606295
    114          1           0       10.084337   -2.562621   -0.150774
    115          1           0       11.320438    0.871498    0.296253
    116          1           0       11.351501   -0.838399    0.772751
    117          1           0       12.879445   -1.333535   -1.311510
    118          1           0       12.858837    0.356790   -1.528882
    119          1           0       13.611185    0.858853    0.884775
    120          1           0       13.973960   -0.963096    0.893367
    121          1           0       15.431451    0.509344   -1.189502
    122          1           0       15.672361   -2.390396    0.076606
    123          1           0       14.932854   -1.778795   -1.661045
    124          1           0       16.701907   -1.610137   -1.304728
    125          1           0       16.194159    1.107708    0.938128
    126          1           0       16.728742   -0.525116    1.451096
    127          1           0       18.402496   -0.502177   -0.422583
    128          1           0       17.538913    1.184386   -1.130916
    129          1           0       18.450315    2.435062    0.534700
    130          1           0       18.815573    0.905079    1.557720
    131          1           0       20.533372    0.124989    0.234208
    132          1           0       20.102892    3.106423   -1.218228
    133          1           0       21.503087    1.997211   -1.583818
    134          1           0       20.085255    1.227569   -1.985476
    135          1           0       20.902409    1.457018    2.247071
    136          1           0       22.088629    1.743629    1.159072
    137          1           0       20.648825    3.010766    1.206807
 ---------------------------------------------------------------------

 SCF Done:  E(RCAM-B3LYP) =  -2932.64819487     A.U. after   19 cycles

 Excitation energies and oscillator strengths:

 Excited State   1:      Singlet-A      1.8919 eV  655.35 nm  f=0.3604  <S**2>=0.000
     240 -> 242       -0.13240
     240 -> 243        0.19748
     241 -> 242        0.65966
 This state for optimization and/or second-order correction.
 Total Energy, E(TD-HF/TD-KS) =  -2932.57866962
 Copying the excited state density for this state as the 1-particle RhoCI density.

 The electronic state is 1-A.
 Alpha  occ. eigenvalues --  -46.85307 -19.27373 -19.24892 -19.20166 -19.18994
 Alpha  occ. eigenvalues --  -19.18949 -14.40916 -14.39962 -14.39854 -14.38618
 Alpha  occ. eigenvalues --  -10.38707 -10.38675 -10.33604 -10.32072 -10.32008
 Alpha  occ. eigenvalues --  -10.30722 -10.30529 -10.30180 -10.29539 -10.29520
 Alpha  occ. eigenvalues --  -10.29361 -10.29196 -10.28661 -10.28335 -10.28221
 Alpha  occ. eigenvalues --  -10.28112 -10.28076 -10.28073 -10.28059 -10.28053
 Alpha  occ. eigenvalues --  -10.28035 -10.27895 -10.27894 -10.27878 -10.27735
 Alpha  occ. eigenvalues --  -10.27678 -10.27600 -10.27485 -10.27135 -10.26846
 Alpha  occ. eigenvalues --  -10.26440 -10.26422 -10.26421 -10.26363 -10.26353
 Alpha  occ. eigenvalues --  -10.26343 -10.26096 -10.26061 -10.26042 -10.26007
 Alpha  occ. eigenvalues --  -10.25866 -10.25620 -10.25401 -10.25367 -10.25191
 Alpha  occ. eigenvalues --  -10.25189 -10.25175 -10.24815 -10.24720 -10.24600
 Alpha  occ. eigenvalues --  -10.24582 -10.24325 -10.24134 -10.24056 -10.23700
 Alpha  occ. eigenvalues --   -3.14099  -1.88822  -1.88316  -1.88282  -1.18907
 Alpha  occ. eigenvalues --   -1.16716  -1.11599  -1.07249  -1.05165  -1.04651
 Alpha  occ. eigenvalues --   -1.03750  -1.03440  -1.01319  -0.92873  -0.92395
 Alpha  occ. eigenvalues --   -0.91197  -0.90410  -0.89597  -0.89350  -0.88963
 Alpha  occ. eigenvalues --   -0.88716  -0.88551  -0.87531  -0.86860  -0.86765
 Alpha  occ. eigenvalues --   -0.85158  -0.83843  -0.83705  -0.83481  -0.82419
 Alpha  occ. eigenvalues --   -0.81640  -0.81153  -0.80214  -0.79973  -0.78303
 Alpha  occ. eigenvalues --   -0.77524  -0.76740  -0.76493  -0.75571  -0.75411
 Alpha  occ. eigenvalues --   -0.75294  -0.75082  -0.74447  -0.73510  -0.73079
 Alpha  occ. eigenvalues --   -0.71334  -0.70306  -0.69280  -0.68918  -0.68163
 Alpha  occ. eigenvalues --   -0.67354  -0.66649  -0.65103  -0.64911  -0.64705
 Alpha  occ. eigenvalues --   -0.63838  -0.63606  -0.63357  -0.63319  -0.61212
 Alpha  occ. eigenvalues --   -0.60887  -0.60347  -0.60055  -0.59242  -0.59041
 Alpha  occ. eigenvalues --   -0.58830  -0.57972  -0.57420  -0.57334  -0.56885
 Alpha  occ. eigenvalues --   -0.56185  -0.56020  -0.55914  -0.55292  -0.54806
 Alpha  occ. eigenvalues --   -0.54523  -0.53977  -0.53933  -0.53362  -0.52913
 Alpha  occ. eigenvalues --   -0.52797  -0.52619  -0.52356  -0.52301  -0.52068
 Alpha  occ. eigenvalues --   -0.51328  -0.50969  -0.50879  -0.50567  -0.50393
 Alpha  occ. eigenvalues --   -0.50349  -0.50177  -0.49896  -0.49629  -0.49320
 Alpha  occ. eigenvalues --   -0.49188  -0.48761  -0.48628  -0.48490  -0.48206
 Alpha  occ. eigenvalues --   -0.48018  -0.47748  -0.47647  -0.47553  -0.47494
 Alpha  occ. eigenvalues --   -0.47273  -0.46841  -0.46670  -0.45817  -0.45653
 Alpha  occ. eigenvalues --   -0.45579  -0.45437  -0.45373  -0.45006  -0.44897
 Alpha  occ. eigenvalues --   -0.44728  -0.44706  -0.44336  -0.44263  -0.44140
 Alpha  occ. eigenvalues --   -0.43968  -0.43862  -0.43460  -0.43279  -0.43124
 Alpha  occ. eigenvalues --   -0.42959  -0.42741  -0.42466  -0.42449  -0.42207
 Alpha  occ. eigenvalues --   -0.41717  -0.41520  -0.41470  -0.41397  -0.41277
 Alpha  occ. eigenvalues --   -0.41117  -0.40863  -0.40696  -0.40543  -0.40356
 Alpha  occ. eigenvalues --   -0.40157  -0.39871  -0.39604  -0.39374  -0.39328
 Alpha  occ. eigenvalues --   -0.38780  -0.38482  -0.38381  -0.38043  -0.37986
 Alpha  occ. eigenvalues --   -0.37803  -0.37656  -0.37497  -0.37318  -0.36931
 Alpha  occ. eigenvalues --   -0.36315  -0.35860  -0.35690  -0.35448  -0.35299
 Alpha  occ. eigenvalues --   -0.35259  -0.34998  -0.34629  -0.33158  -0.33010
 Alpha  occ. eigenvalues --   -0.33006  -0.32037  -0.31575  -0.30649  -0.29562
 Alpha  occ. eigenvalues --   -0.29161  -0.28631  -0.27782  -0.26663  -0.22345
 Alpha  occ. eigenvalues --   -0.21610
 Alpha virt. eigenvalues --   -0.08189  -0.02207   0.01845   0.03984   0.04871
 Alpha virt. eigenvalues --    0.05637   0.05882   0.06244   0.06751   0.07306
 Alpha virt. eigenvalues --    0.09282   0.10789   0.11427   0.11828   0.11939

 Mulliken charges:
               1
     1  Mg   0.831487
     2  C    0.075021
     3  C   -0.213228
     4  C   -0.188223
     5  C   -0.128228
     6  N   -0.624337
     7  C    0.271784
     8  C   -0.131497
     9  C   -0.167982
    10  C    0.375070
    11  C   -0.309193
    12  C   -0.162268
    13  C   -0.259348
    14  C    0.607562
    15  O   -0.534873
    16  O   -0.440782
    17  N   -0.705889
    18  C    0.311116
    19  C    0.029499
    20  C    0.000962
    21  C    0.271727
    22  C   -0.390392
    23  C   -0.082366
    24  C   -0.247727
    25  N   -0.699566
    26  C    0.330825
    27  C    0.018694
    28  C    0.024273
    29  C    0.316621
    30  C   -0.364405
    31  C   -0.276237
    32  C   -0.288695
    33  N   -0.702489
    34  C    0.251204
    35  C    0.049246
    36  C    0.001445
    37  C    0.253123
    38  C   -0.385731
    39  C    0.330158
    40  O   -0.447880
    41  C   -0.333797
    42  C    0.630580
    43  O   -0.496126
    44  O   -0.453718
    45  C   -0.075946
    46  C    0.005760
    47  C   -0.139196
    48  C    0.155429
    49  C   -0.379622
    50  C   -0.219364
    51  C   -0.170670
    52  C   -0.160189
    53  C   -0.047422
    54  C   -0.302945
    55  C   -0.168590
    56  C   -0.200541
    57  C   -0.160073
    58  C   -0.066031
    59  C   -0.301783
    60  C   -0.149327
    61  C   -0.192721
    62  C   -0.108414
    63  C   -0.067954
    64  C   -0.312408
    65  C   -0.281635
    66  H    0.073984
    67  H    0.084708
    68  H    0.061601
    69  H    0.130818
    70  H    0.102717
    71  H    0.122997
    72  H    0.097802
    73  H    0.116126
    74  H    0.133479
    75  H    0.116590
    76  H    0.119098
    77  H    0.097862
    78  H    0.127552
    79  H    0.118785
    80  H    0.133534
    81  H    0.077456
    82  H    0.106866
    83  H    0.094920
    84  H    0.133206
    85  H    0.112144
    86  H    0.131085
    87  H    0.112795
    88  H    0.091225
    89  H    0.111719
    90  H    0.114804
    91  H    0.101385
    92  H    0.134153
    93  H    0.144697
    94  H    0.121533
    95  H    0.162629
    96  H    0.118421
    97  H    0.133558
    98  H    0.132163
    99  H    0.154788
   100  H    0.127371
   101  H    0.085413
   102  H    0.118781
   103  H    0.101438
   104  H    0.104671
   105  H    0.103973
   106  H    0.117973
   107  H    0.102632
   108  H    0.081219
   109  H    0.081689
   110  H    0.055349
   111  H    0.092510
   112  H    0.103250
   113  H    0.115713
   114  H    0.072567
   115  H    0.074640
   116  H    0.098105
   117  H    0.103605
   118  H    0.075546
   119  H    0.061699
   120  H    0.104062
   121  H    0.090525
   122  H    0.098281
   123  H    0.096722
   124  H    0.087686
   125  H    0.097618
   126  H    0.058013
   127  H    0.080757
   128  H    0.097072
   129  H    0.059461
   130  H    0.094807
   131  H    0.049784
   132  H    0.083906
   133  H    0.098739
   134  H    0.115448
   135  H    0.097607
   136  H    0.098555
   137  H    0.083838
 Sum of Mulliken charges =   0.00000

 Dipole moment (field-independent basis, Debye):
    X=              2.2276    Y=              4.9065    Z=              0.1647  Tot=              5.3910
 Quadrupole moment (field-independent basis, Debye-Ang):
   XX=           -308.5695   YY=           -398.3713   ZZ=           -399.3099
   XY=            -24.5889   XZ=              5.5907   YZ=             -0.3469

 Normal termination of Gaussian 09 at Sat Jul  6 00:07:33 2019.
