 Gaussian 16, Revision A.03,
 Gaussian 16:  ES64L-G16RevA.03 25-Dec-2016

 ----------------------------------------------------------------------
 # td=(NStates=1) iop(3/107=0140000000,3/108=0140000000) CAM-B3LYP/6-31
 G(d,p)
 ----------------------------------------------------------------------

 --
 TD
 --
 Symbolic Z-matrix:
 Charge =  0 Multiplicity = 1

                         Standard orientation:
 ---------------------------------------------------------------------
 Center     Atomic      Atomic             Coordinates (Angstroms)
 Number     Number       Type             X           Y           Z
 ---------------------------------------------------------------------
      1         12           0       -7.144121    0.660895    0.025088
      2          6           0       -4.838644   -1.946585    0.519313
      3          6           0       -4.809823    2.827884    1.223366
      4          6           0       -9.331479    3.153008   -0.384554
      5          6           0       -9.544938   -1.632774   -0.781197
      6          7           0       -5.107640    0.437916    0.660121
      7          6           0       -4.238518   -0.772608    0.811734
      8          6           0       -2.854105   -0.437799    1.207974
      9          6           0       -3.051221    1.046871    1.713609
     10          6           0       -4.491405    1.492028    1.187382
     11          6           0       -3.177114    1.032694    3.272015
     12          6           0       -1.859855   -0.523787   -0.035833
     13          6           0       -0.441174   -0.436488    0.366496
     14          6           0        0.524072   -0.565122   -0.697466
     15          8           0        0.214560   -0.998707   -1.765329
     16          8           0        1.787584   -0.445429   -0.341316
     17          7           0       -7.048251    2.667821    0.290188
     18          6           0       -6.091270    3.441801    0.743245
     19          6           0       -6.332019    4.858688    0.729303
     20          6           0       -7.635532    4.876501    0.273508
     21          6           0       -8.076845    3.443174   -0.004213
     22          6           0       -5.398236    5.970784    1.187308
     23          6           0       -8.467440    6.025268    0.008110
     24          6           0       -8.398832    7.269872    0.542897
     25          7           0       -9.020472    0.682901   -0.496328
     26          6           0       -9.845223    1.890622   -0.638938
     27          6           0      -11.231474    1.436305   -0.977078
     28          6           0      -11.176387    0.113560   -1.186270
     29          6           0       -9.886152   -0.264257   -0.796335
     30          6           0      -12.318071    2.468516   -1.134958
     31          6           0      -12.309818   -0.715632   -1.633626
     32          6           0      -12.232784   -1.198632   -3.092925
     33          7           0       -7.098968   -1.385797   -0.139791
     34          6           0       -8.292130   -2.216681   -0.552511
     35          6           0       -7.833997   -3.617094   -0.562330
     36          6           0       -6.518549   -3.559449   -0.098150
     37          6           0       -6.172350   -2.121026    0.023403
     38          6           0       -8.524666   -4.851200   -0.969532
     39          6           0       -5.369636   -4.346644    0.237706
     40          8           0       -5.321817   -5.650181    0.311541
     41          6           0       -4.193353   -3.349578    0.528743
     42          6           0       -3.559652   -3.689301    1.924038
     43          8           0       -3.812176   -3.199938    2.963402
     44          8           0       -2.661209   -4.667954    1.630389
     45          6           0       -2.084655   -5.382612    2.766639
     46          6           0        2.797004   -0.717245   -1.237575
     47          6           0        4.134651   -0.519072   -0.578530
     48          6           0        5.076404    0.331394   -0.954309
     49          6           0        5.148251    1.284279   -2.151019
     50          6           0        6.414945    0.339781   -0.154138
     51          6           0        7.645402   -0.327515   -0.897425
     52          6           0        8.882077   -0.160533   -0.067055
     53          6           0       10.233981   -0.590384   -0.757435
     54          6           0       10.122823   -2.089673   -1.249438
     55          6           0       11.440738   -0.324667    0.124411
     56          6           0       12.757608   -0.561663   -0.607680
     57          6           0       13.928311   -0.092965    0.205513
     58          6           0       15.274415   -0.130658   -0.480716
     59          6           0       15.564771   -1.538907   -1.014159
     60          6           0       16.403380    0.342539    0.479112
     61          6           0       17.765452    0.574638   -0.193650
     62          6           0       18.710197    1.238453    0.647068
     63          6           0       20.093936    1.430007    0.178786
     64          6           0       20.255669    2.318038   -1.031324
     65          6           0       20.972566    1.942113    1.391261
     66          1           0       -4.126469    3.547120    1.766522
     67          1           0       -9.984572    3.995122   -0.448119
     68          1           0      -10.372093   -2.218859   -0.952721
     69          1           0       -2.380691   -1.235303    1.944395
     70          1           0       -2.347156    1.732083    1.325236
     71          1           0       -2.274908    0.733245    3.741914
     72          1           0       -3.250356    2.087513    3.641268
     73          1           0       -4.120406    0.609668    3.604925
     74          1           0       -2.272784   -1.354622   -0.647663
     75          1           0       -2.329372    0.214487   -0.654846
     76          1           0       -0.293940    0.346219    0.945532
     77          1           0       -0.210574   -1.313188    0.987582
     78          1           0       -5.514488    6.853879    0.542587
     79          1           0       -5.405311    6.362269    2.258730
     80          1           0       -4.308372    5.519771    1.363120
     81          1           0       -9.337216    5.850872   -0.598339
     82          1           0       -9.050610    7.989661    0.209428
     83          1           0       -7.631177    7.694290    1.368941
     84          1           0      -12.042258    2.811497   -2.166043
     85          1           0      -13.156846    1.965730   -1.473721
     86          1           0      -12.329118    3.230173   -0.449281
     87          1           0      -12.042425   -1.574826   -1.152698
     88          1           0      -13.241046   -0.158821   -1.545173
     89          1           0      -12.854921   -1.887321   -3.322010
     90          1           0      -12.333357   -0.550528   -3.886741
     91          1           0      -11.495249   -1.840273   -3.190551
     92          1           0       -9.010200   -4.731374   -1.833496
     93          1           0       -7.861477   -5.787878   -1.138986
     94          1           0       -9.440839   -5.101714   -0.344872
     95          1           0       -3.324762   -3.105177   -0.222964
     96          1           0       -1.254954   -4.653848    3.276321
     97          1           0       -2.943125   -5.763248    3.434996
     98          1           0       -1.524155   -6.252265    2.350851
     99          1           0        2.774708   -1.648381   -1.959387
    100          1           0        2.991490   -0.200249   -2.133180
    101          1           0        4.313563   -1.113154    0.351874
    102          1           0        4.218804    1.252959   -2.626955
    103          1           0        5.337422    2.241187   -1.854305
    104          1           0        6.055255    0.968766   -2.771986
    105          1           0        6.598394    1.299286    0.290257
    106          1           0        6.231807   -0.259039    0.695021
    107          1           0        7.378059   -1.381509   -0.920162
    108          1           0        7.757297    0.333503   -1.792762
    109          1           0        8.782054    0.907119    0.147868
    110          1           0        8.631183   -0.713390    0.907813
    111          1           0       10.332864    0.052606   -1.575109
    112          1           0        9.254457   -2.083601   -1.976211
    113          1           0       10.999255   -2.429214   -1.777631
    114          1           0        9.817661   -2.813512   -0.361832
    115          1           0       11.558217    0.613001    0.500629
    116          1           0       11.447390   -1.014946    1.009814
    117          1           0       12.744812   -1.574824   -0.969943
    118          1           0       12.700717    0.032691   -1.697230
    119          1           0       13.916310    0.963781    0.517894
    120          1           0       13.978364   -0.668186    1.143970
    121          1           0       15.160704    0.525659   -1.417037
    122          1           0       15.418423   -2.446842   -0.240232
    123          1           0       14.968634   -1.720920   -2.083271
    124          1           0       16.646146   -1.710326   -1.256623
    125          1           0       16.009732    1.292426    1.077041
    126          1           0       16.533723   -0.336758    1.438449
    127          1           0       18.310098   -0.359525   -0.745577
    128          1           0       17.750778    1.226837   -1.126964
    129          1           0       18.397898    2.282069    0.939833
    130          1           0       18.797377    0.623038    1.586799
    131          1           0       20.327176    0.402107   -0.090609
    132          1           0       19.575087    3.222379   -0.999003
    133          1           0       21.340652    2.497065   -1.377734
    134          1           0       20.065953    1.510762   -2.073471
    135          1           0       20.990732    1.190927    2.251884
    136          1           0       21.983214    2.168112    1.194622
    137          1           0       20.614225    2.991160    1.913998
 ---------------------------------------------------------------------

 SCF Done:  E(RCAM-B3LYP) =  -2933.48689930     A.U. after   15 cycles

 Excitation energies and oscillator strengths:

 Excited State   1:      Singlet-A      1.9451 eV  637.40 nm  f=0.2779  <S**2>=0.000
     240 -> 243        0.16367
     241 -> 242        0.68166
 This state for optimization and/or second-order correction.
 Total Energy, E(TD-HF/TD-DFT) =  -2933.41541644
 Copying the excited state density for this state as the 1-particle RhoCI density.

 The electronic state is 1-A.
 Alpha  occ. eigenvalues --  -46.79574 -19.23044 -19.21363 -19.17160 -19.15635
 Alpha  occ. eigenvalues --  -19.14629 -14.36435 -14.35395 -14.35346 -14.35338
 Alpha  occ. eigenvalues --  -10.34102 -10.33766 -10.29894 -10.28355 -10.27191
 Alpha  occ. eigenvalues --  -10.25906 -10.25712 -10.25700 -10.25457 -10.24871
 Alpha  occ. eigenvalues --  -10.24704 -10.24565 -10.24270 -10.23909 -10.23884
 Alpha  occ. eigenvalues --  -10.23726 -10.23712 -10.23219 -10.22987 -10.22881
 Alpha  occ. eigenvalues --  -10.22858 -10.22820 -10.22778 -10.22746 -10.22605
 Alpha  occ. eigenvalues --  -10.22499 -10.22326 -10.22166 -10.22057 -10.22036
 Alpha  occ. eigenvalues --  -10.22028 -10.21980 -10.21862 -10.21693 -10.21658
 Alpha  occ. eigenvalues --  -10.21613 -10.21609 -10.21542 -10.21474 -10.21381
 Alpha  occ. eigenvalues --  -10.21261 -10.21249 -10.21207 -10.21202 -10.21142
 Alpha  occ. eigenvalues --  -10.20817 -10.20816 -10.20810 -10.20712 -10.20510
 Alpha  occ. eigenvalues --  -10.20431 -10.20392 -10.19880 -10.19464 -10.17792
 Alpha  occ. eigenvalues --   -3.08354  -1.83282  -1.82811  -1.82796  -1.15778
 Alpha  occ. eigenvalues --   -1.12645  -1.05457  -1.05390  -1.01000  -1.00772
 Alpha  occ. eigenvalues --   -0.99625  -0.97951  -0.95841  -0.86437  -0.86124
 Alpha  occ. eigenvalues --   -0.85945  -0.85640  -0.85419  -0.84779  -0.84395
 Alpha  occ. eigenvalues --   -0.84155  -0.83415  -0.83272  -0.81899  -0.81280
 Alpha  occ. eigenvalues --   -0.80197  -0.80058  -0.78985  -0.78415  -0.78164
 Alpha  occ. eigenvalues --   -0.77096  -0.76148  -0.75360  -0.74993  -0.74931
 Alpha  occ. eigenvalues --   -0.74052  -0.72740  -0.71983  -0.71273  -0.70157
 Alpha  occ. eigenvalues --   -0.69935  -0.69823  -0.69276  -0.69184  -0.68766
 Alpha  occ. eigenvalues --   -0.68453  -0.66519  -0.65759  -0.64812  -0.64144
 Alpha  occ. eigenvalues --   -0.63250  -0.62618  -0.61823  -0.61401  -0.60058
 Alpha  occ. eigenvalues --   -0.59818  -0.58908  -0.58877  -0.57961  -0.57578
 Alpha  occ. eigenvalues --   -0.57211  -0.56984  -0.56293  -0.55893  -0.55630
 Alpha  occ. eigenvalues --   -0.54584  -0.54212  -0.53908  -0.53377  -0.53112
 Alpha  occ. eigenvalues --   -0.51936  -0.51876  -0.51796  -0.51023  -0.50787
 Alpha  occ. eigenvalues --   -0.50707  -0.50609  -0.50525  -0.50310  -0.49790
 Alpha  occ. eigenvalues --   -0.49639  -0.49064  -0.48635  -0.48271  -0.48037
 Alpha  occ. eigenvalues --   -0.47932  -0.47572  -0.47341  -0.47072  -0.46641
 Alpha  occ. eigenvalues --   -0.46572  -0.46382  -0.46218  -0.45954  -0.45761
 Alpha  occ. eigenvalues --   -0.45692  -0.45451  -0.45050  -0.44758  -0.44600
 Alpha  occ. eigenvalues --   -0.44553  -0.44239  -0.44045  -0.43669  -0.43636
 Alpha  occ. eigenvalues --   -0.43475  -0.43269  -0.43194  -0.43035  -0.42656
 Alpha  occ. eigenvalues --   -0.42314  -0.42189  -0.42097  -0.41878  -0.41663
 Alpha  occ. eigenvalues --   -0.41595  -0.41425  -0.41130  -0.40802  -0.40636
 Alpha  occ. eigenvalues --   -0.40588  -0.40426  -0.40281  -0.40026  -0.40000
 Alpha  occ. eigenvalues --   -0.39692  -0.39480  -0.39219  -0.39075  -0.38961
 Alpha  occ. eigenvalues --   -0.38737  -0.38682  -0.38311  -0.38268  -0.37897
 Alpha  occ. eigenvalues --   -0.37677  -0.37455  -0.37376  -0.36715  -0.36533
 Alpha  occ. eigenvalues --   -0.36497  -0.36429  -0.36021  -0.35858  -0.35797
 Alpha  occ. eigenvalues --   -0.35714  -0.35545  -0.34992  -0.34742  -0.34357
 Alpha  occ. eigenvalues --   -0.34349  -0.34208  -0.33859  -0.33625  -0.33428
 Alpha  occ. eigenvalues --   -0.33273  -0.32866  -0.32842  -0.32705  -0.32546
 Alpha  occ. eigenvalues --   -0.32193  -0.31955  -0.31584  -0.30977  -0.30576
 Alpha  occ. eigenvalues --   -0.30150  -0.29793  -0.29468  -0.27855  -0.27059
 Alpha  occ. eigenvalues --   -0.26987  -0.26126  -0.25697  -0.25319  -0.21560
 Alpha  occ. eigenvalues --   -0.19533
 Alpha virt. eigenvalues --   -0.07181  -0.03377   0.00030   0.02300   0.04344
 Alpha virt. eigenvalues --    0.04783   0.05137   0.05284   0.05594   0.06091
 Alpha virt. eigenvalues --    0.06751   0.08864   0.09230   0.09439   0.10144

 Mulliken charges:
               1
     1  Mg   0.811066
     2  C    0.039841
     3  C   -0.206602
     4  C   -0.175327
     5  C   -0.172230
     6  N   -0.643287
     7  C    0.269521
     8  C   -0.148833
     9  C   -0.149490
    10  C    0.372083
    11  C   -0.307689
    12  C   -0.178256
    13  C   -0.247101
    14  C    0.593209
    15  O   -0.460387
    16  O   -0.431786
    17  N   -0.707322
    18  C    0.275271
    19  C    0.085236
    20  C   -0.022006
    21  C    0.357289
    22  C   -0.379308
    23  C   -0.097165
    24  C   -0.239830
    25  N   -0.724704
    26  C    0.244021
    27  C   -0.012829
    28  C    0.073535
    29  C    0.349098
    30  C   -0.359111
    31  C   -0.242572
    32  C   -0.314436
    33  N   -0.680152
    34  C    0.198273
    35  C    0.059260
    36  C    0.025992
    37  C    0.368370
    38  C   -0.390796
    39  C    0.345928
    40  O   -0.521512
    41  C   -0.307542
    42  C    0.612385
    43  O   -0.431830
    44  O   -0.444706
    45  C   -0.084698
    46  C    0.010093
    47  C   -0.152654
    48  C    0.121656
    49  C   -0.360248
    50  C   -0.250626
    51  C   -0.174185
    52  C   -0.168990
    53  C   -0.049034
    54  C   -0.322982
    55  C   -0.154343
    56  C   -0.174323
    57  C   -0.163651
    58  C   -0.040930
    59  C   -0.293952
    60  C   -0.171381
    61  C   -0.161199
    62  C   -0.141544
    63  C   -0.041984
    64  C   -0.287718
    65  C   -0.308124
    66  H    0.067547
    67  H    0.076287
    68  H    0.061867
    69  H    0.101512
    70  H    0.098054
    71  H    0.111077
    72  H    0.091943
    73  H    0.136509
    74  H    0.115005
    75  H    0.119094
    76  H    0.133609
    77  H    0.147669
    78  H    0.131716
    79  H    0.121249
    80  H    0.098759
    81  H    0.087864
    82  H    0.103982
    83  H    0.093110
    84  H    0.128048
    85  H    0.111870
    86  H    0.133206
    87  H    0.110825
    88  H    0.106236
    89  H    0.109667
    90  H    0.112401
    91  H    0.105360
    92  H    0.133877
    93  H    0.149648
    94  H    0.118762
    95  H    0.152078
    96  H    0.102646
    97  H    0.137509
    98  H    0.133629
    99  H    0.109403
   100  H    0.109832
   101  H    0.077001
   102  H    0.115582
   103  H    0.129919
   104  H    0.114929
   105  H    0.095880
   106  H    0.095031
   107  H    0.109592
   108  H    0.088609
   109  H    0.085849
   110  H    0.074845
   111  H    0.089395
   112  H    0.105307
   113  H    0.111501
   114  H    0.091134
   115  H    0.097002
   116  H    0.080412
   117  H    0.107044
   118  H    0.042269
   119  H    0.087661
   120  H    0.089474
   121  H    0.084149
   122  H    0.080788
   123  H    0.075973
   124  H    0.097892
   125  H    0.076133
   126  H    0.081963
   127  H    0.069325
   128  H    0.091569
   129  H    0.077621
   130  H    0.078186
   131  H    0.089287
   132  H    0.107690
   133  H    0.107573
   134  H    0.044544
   135  H    0.094493
   136  H    0.107624
   137  H    0.072155
 Sum of Mulliken charges =  -0.00000

 Dipole moment (field-independent basis, Debye):
    X=              0.1125    Y=              5.0104    Z=             -0.3085  Tot=              5.0212
 Quadrupole moment (field-independent basis, Debye-Ang):
   XX=           -315.0099   YY=           -394.7947   ZZ=           -397.6739
   XY=            -21.7046   XZ=             22.3039   YZ=              1.1310

 Normal termination of Gaussian 16 at Thu Sep 12 16:23:53 2019.
