 Gaussian 09, Revision D.01,
 Gaussian 09:  ES64L-G09RevD.01 24-Apr-2013

 -------------------------------------
 # td=(NStates=1) CAM-B3LYP/6-31G(d,p)
 -------------------------------------

 --
 TD
 --
 Symbolic Z-matrix:
 Charge =  0 Multiplicity = 1

                         Standard orientation:
 ---------------------------------------------------------------------
 Center     Atomic      Atomic             Coordinates (Angstroms)
 Number     Number       Type             X           Y           Z
 ---------------------------------------------------------------------
      1         12           0       -7.154897    0.730989    0.144705
      2          6           0       -4.852787   -2.043402    0.610008
      3          6           0       -4.792062    2.787291    1.388512
      4          6           0       -9.291063    3.105319   -0.413568
      5          6           0       -9.530230   -1.772760   -0.925923
      6          7           0       -5.104046    0.449375    0.826219
      7          6           0       -4.323954   -0.709694    0.812913
      8          6           0       -2.873588   -0.450942    1.220897
      9          6           0       -3.103503    0.981353    1.740005
     10          6           0       -4.401408    1.463447    1.244482
     11          6           0       -3.013809    1.173770    3.320312
     12          6           0       -1.938158   -0.475316    0.125012
     13          6           0       -0.522011   -0.252472    0.414936
     14          6           0        0.496128   -0.676386   -0.638154
     15          8           0        0.276455   -0.965084   -1.852611
     16          8           0        1.846107   -0.574973   -0.254674
     17          7           0       -7.040591    2.638562    0.601001
     18          6           0       -6.075265    3.349882    1.006938
     19          6           0       -6.450406    4.734978    0.890949
     20          6           0       -7.633468    4.848646    0.370555
     21          6           0       -8.058714    3.402329    0.130226
     22          6           0       -5.615725    5.887760    1.462932
     23          6           0       -8.431230    6.051559   -0.006331
     24          6           0       -8.491901    7.255992    0.582379
     25          7           0       -9.038003    0.637599   -0.738517
     26          6           0       -9.793760    1.880672   -0.823082
     27          6           0      -11.171402    1.469387   -1.205833
     28          6           0      -11.169585    0.144824   -1.371634
     29          6           0       -9.855513   -0.357464   -1.050650
     30          6           0      -12.226943    2.481192   -1.398802
     31          6           0      -12.347426   -0.727883   -1.843388
     32          6           0      -12.137093   -1.010559   -3.237608
     33          7           0       -7.250592   -1.415975   -0.089315
     34          6           0       -8.262358   -2.213193   -0.576081
     35          6           0       -7.913539   -3.541579   -0.476527
     36          6           0       -6.569315   -3.550221   -0.080809
     37          6           0       -6.213638   -2.131982    0.109221
     38          6           0       -8.718154   -4.741490   -0.870162
     39          6           0       -5.409628   -4.426215    0.327643
     40          8           0       -5.234264   -5.641501    0.366551
     41          6           0       -4.198334   -3.448185    0.624231
     42          6           0       -3.599600   -3.766991    1.929140
     43          8           0       -3.716701   -3.079389    2.989326
     44          8           0       -2.847346   -4.819271    1.818369
     45          6           0       -2.392924   -5.450842    3.108351
     46          6           0        2.817618   -0.788672   -1.296307
     47          6           0        4.195865   -0.507188   -0.689516
     48          6           0        5.112359    0.293108   -1.168888
     49          6           0        4.883249    1.243945   -2.286542
     50          6           0        6.404543    0.362714   -0.347750
     51          6           0        7.610862   -0.218828   -1.088739
     52          6           0        8.935981   -0.117309   -0.222877
     53          6           0       10.183303   -0.617052   -1.092436
     54          6           0       10.158005   -1.962385   -1.516596
     55          6           0       11.405964   -0.362148   -0.069954
     56          6           0       12.827230   -0.477325   -0.750392
     57          6           0       14.017455   -0.145255    0.149221
     58          6           0       15.342234   -0.119033   -0.576636
     59          6           0       15.779812   -1.501785   -1.078567
     60          6           0       16.396344    0.412843    0.418879
     61          6           0       17.763356    0.507642   -0.154279
     62          6           0       18.796764    1.239571    0.874961
     63          6           0       20.229112    1.386779    0.438572
     64          6           0       20.395977    2.135836   -0.899096
     65          6           0       21.059200    2.036998    1.511894
     66          1           0       -3.955139    3.522358    1.760372
     67          1           0       -9.957624    4.131299   -0.605369
     68          1           0      -10.497858   -2.259387   -1.291615
     69          1           0       -2.541730   -0.922413    2.107048
     70          1           0       -2.355755    1.764156    1.229754
     71          1           0       -2.165613    0.828710    3.778565
     72          1           0       -2.840955    2.266997    3.412993
     73          1           0       -3.946032    0.775348    3.748817
     74          1           0       -1.947533   -1.362132   -0.347594
     75          1           0       -2.298600    0.278442   -0.667405
     76          1           0       -0.163895    0.756027    0.736824
     77          1           0       -0.283457   -0.864950    1.197479
     78          1           0       -5.662685    6.697839    0.815870
     79          1           0       -5.704643    6.132303    2.629678
     80          1           0       -4.525809    5.732632    1.426072
     81          1           0       -9.186879    6.094843   -0.761611
     82          1           0       -9.099633    8.103002    0.147191
     83          1           0       -7.674288    7.489844    1.225449
     84          1           0      -12.086197    2.779896   -2.569439
     85          1           0      -13.206038    2.006431   -1.348556
     86          1           0      -12.067239    3.487879   -0.612876
     87          1           0      -12.180830   -1.598302   -1.462035
     88          1           0      -13.204723   -0.255985   -1.621504
     89          1           0      -12.922708   -1.607523   -3.833555
     90          1           0      -11.916354   -0.232234   -4.101140
     91          1           0      -11.103226   -1.627425   -3.245178
     92          1           0       -9.073877   -4.642443   -1.844945
     93          1           0       -8.169848   -5.557054   -0.871780
     94          1           0       -9.437385   -4.871035   -0.157505
     95          1           0       -3.243808   -3.503141   -0.040726
     96          1           0       -1.788086   -4.543324    3.571390
     97          1           0       -3.082102   -5.786105    3.659027
     98          1           0       -1.720138   -6.182606    2.846968
     99          1           0        2.891045   -1.856348   -1.479424
    100          1           0        2.471603   -0.102521   -2.393684
    101          1           0        4.266372   -1.023500    0.193058
    102          1           0        3.858548    1.326077   -2.662206
    103          1           0        5.134953    2.330230   -1.924872
    104          1           0        5.542138    0.952203   -3.107580
    105          1           0        6.533795    1.391750   -0.210032
    106          1           0        6.413215   -0.148706    0.547182
    107          1           0        7.278834   -1.406484   -1.330790
    108          1           0        7.751513    0.343251   -2.059363
    109          1           0        9.026627    0.837296    0.204240
    110          1           0        9.067244   -0.857589    0.640759
    111          1           0       10.263454    0.151580   -1.899722
    112          1           0        9.337023   -2.085230   -2.197747
    113          1           0       11.057180   -2.217272   -2.066452
    114          1           0        9.961062   -2.624812   -0.710948
    115          1           0       11.134195    0.661864    0.276722
    116          1           0       11.421444   -1.232979    0.906133
    117          1           0       12.833071   -1.526717   -1.041643
    118          1           0       12.813080    0.150736   -1.771267
    119          1           0       13.963378    0.875837    0.551087
    120          1           0       14.202908   -0.891174    1.025355
    121          1           0       15.385115    0.664504   -1.190937
    122          1           0       15.656084   -2.334186   -0.249277
    123          1           0       15.086450   -1.773985   -2.014854
    124          1           0       16.855002   -1.532492   -1.398553
    125          1           0       16.136338    1.277222    0.890458
    126          1           0       16.550205   -0.208934    1.347413
    127          1           0       18.359994   -0.434638   -0.040886
    128          1           0       17.935036    1.080738   -1.204637
    129          1           0       18.469701    2.292468    1.034599
    130          1           0       18.740172    0.687906    1.920415
    131          1           0       20.487215    0.163902    0.320129
    132          1           0       19.858148    3.156105   -0.741630
    133          1           0       21.494287    2.425561   -0.972604
    134          1           0       19.954920    1.468792   -1.782506
    135          1           0       20.812128    1.372606    2.455953
    136          1           0       22.115734    1.806703    1.191820
    137          1           0       20.591658    3.071560    1.631515
 ---------------------------------------------------------------------

 SCF Done:  E(RCAM-B3LYP) =  -2932.60656135     A.U. after   15 cycles

 Excitation energies and oscillator strengths:

 Excited State   1:      Singlet-A      2.0603 eV  601.78 nm  f=0.2427  <S**2>=0.000
     240 -> 243       -0.23916
     241 -> 242        0.65474
 This state for optimization and/or second-order correction.
 Total Energy, E(TD-HF/TD-KS) =  -2932.53084713
 Copying the excited state density for this state as the 1-particle RhoCI density.

 The electronic state is 1-A.
 Alpha  occ. eigenvalues --  -46.85759 -19.26808 -19.25733 -19.20684 -19.20664
 Alpha  occ. eigenvalues --  -19.19295 -14.41654 -14.40152 -14.39625 -14.39431
 Alpha  occ. eigenvalues --  -10.39930 -10.38569 -10.36047 -10.32590 -10.31557
 Alpha  occ. eigenvalues --  -10.30986 -10.30003 -10.29943 -10.29718 -10.29175
 Alpha  occ. eigenvalues --  -10.29114 -10.29072 -10.28921 -10.28859 -10.28688
 Alpha  occ. eigenvalues --  -10.28639 -10.28592 -10.27843 -10.27809 -10.27490
 Alpha  occ. eigenvalues --  -10.27424 -10.27421 -10.27291 -10.27145 -10.26959
 Alpha  occ. eigenvalues --  -10.26876 -10.26669 -10.26647 -10.26295 -10.26282
 Alpha  occ. eigenvalues --  -10.26263 -10.26260 -10.26235 -10.26223 -10.26199
 Alpha  occ. eigenvalues --  -10.26155 -10.26138 -10.26086 -10.26060 -10.26042
 Alpha  occ. eigenvalues --  -10.25734 -10.25713 -10.25609 -10.25578 -10.25498
 Alpha  occ. eigenvalues --  -10.25389 -10.25270 -10.25261 -10.24672 -10.24387
 Alpha  occ. eigenvalues --  -10.24342 -10.24229 -10.23836 -10.23368 -10.23030
 Alpha  occ. eigenvalues --   -3.14638  -1.89352  -1.88920  -1.88766  -1.18208
 Alpha  occ. eigenvalues --   -1.15544  -1.10429  -1.07181  -1.06180  -1.05931
 Alpha  occ. eigenvalues --   -1.05690  -1.04788  -1.02134  -0.92517  -0.91263
 Alpha  occ. eigenvalues --   -0.91051  -0.90786  -0.90393  -0.89893  -0.89461
 Alpha  occ. eigenvalues --   -0.88793  -0.88745  -0.88044  -0.86851  -0.86169
 Alpha  occ. eigenvalues --   -0.85072  -0.84296  -0.84165  -0.83825  -0.83203
 Alpha  occ. eigenvalues --   -0.82159  -0.81001  -0.80111  -0.79658  -0.78919
 Alpha  occ. eigenvalues --   -0.77975  -0.77488  -0.76748  -0.76551  -0.75479
 Alpha  occ. eigenvalues --   -0.74603  -0.74417  -0.74200  -0.73454  -0.72917
 Alpha  occ. eigenvalues --   -0.71574  -0.70698  -0.69298  -0.68626  -0.68352
 Alpha  occ. eigenvalues --   -0.67527  -0.65577  -0.65392  -0.65221  -0.64110
 Alpha  occ. eigenvalues --   -0.63733  -0.63095  -0.62339  -0.62095  -0.61538
 Alpha  occ. eigenvalues --   -0.60885  -0.60272  -0.59784  -0.59764  -0.59491
 Alpha  occ. eigenvalues --   -0.58991  -0.58678  -0.57936  -0.57009  -0.56807
 Alpha  occ. eigenvalues --   -0.56216  -0.55696  -0.55550  -0.55327  -0.54636
 Alpha  occ. eigenvalues --   -0.54525  -0.54117  -0.54000  -0.53822  -0.53269
 Alpha  occ. eigenvalues --   -0.53129  -0.52751  -0.52504  -0.52287  -0.51961
 Alpha  occ. eigenvalues --   -0.51594  -0.51514  -0.51463  -0.50746  -0.50589
 Alpha  occ. eigenvalues --   -0.50530  -0.50185  -0.50002  -0.49892  -0.49510
 Alpha  occ. eigenvalues --   -0.49276  -0.49169  -0.48786  -0.48613  -0.48388
 Alpha  occ. eigenvalues --   -0.48290  -0.47976  -0.47879  -0.47667  -0.47359
 Alpha  occ. eigenvalues --   -0.47117  -0.47065  -0.47000  -0.46656  -0.46347
 Alpha  occ. eigenvalues --   -0.45923  -0.45631  -0.45387  -0.45063  -0.44963
 Alpha  occ. eigenvalues --   -0.44773  -0.44636  -0.44440  -0.44399  -0.44278
 Alpha  occ. eigenvalues --   -0.43890  -0.43750  -0.43550  -0.43407  -0.43177
 Alpha  occ. eigenvalues --   -0.42832  -0.42745  -0.42614  -0.42451  -0.42220
 Alpha  occ. eigenvalues --   -0.42157  -0.42001  -0.41758  -0.41616  -0.41230
 Alpha  occ. eigenvalues --   -0.40597  -0.40502  -0.40374  -0.40103  -0.39980
 Alpha  occ. eigenvalues --   -0.39664  -0.39640  -0.39450  -0.39396  -0.39128
 Alpha  occ. eigenvalues --   -0.39022  -0.38462  -0.37662  -0.37626  -0.37543
 Alpha  occ. eigenvalues --   -0.37247  -0.37085  -0.36899  -0.36713  -0.36416
 Alpha  occ. eigenvalues --   -0.36226  -0.35796  -0.35643  -0.35575  -0.35206
 Alpha  occ. eigenvalues --   -0.34956  -0.34724  -0.33979  -0.33147  -0.32798
 Alpha  occ. eigenvalues --   -0.32707  -0.32393  -0.32118  -0.30625  -0.30087
 Alpha  occ. eigenvalues --   -0.29657  -0.29456  -0.29215  -0.28400  -0.23096
 Alpha  occ. eigenvalues --   -0.21106
 Alpha virt. eigenvalues --   -0.06327  -0.02646   0.01621   0.03951   0.04984
 Alpha virt. eigenvalues --    0.05590   0.05868   0.06264   0.07293   0.07883
 Alpha virt. eigenvalues --    0.08379   0.10244   0.10980   0.11016   0.11626

 Mulliken charges:
               1
     1  Mg   0.839572
     2  C    0.066773
     3  C   -0.217054
     4  C   -0.171426
     5  C   -0.136718
     6  N   -0.633940
     7  C    0.246294
     8  C   -0.136583
     9  C   -0.196667
    10  C    0.405618
    11  C   -0.301552
    12  C   -0.147860
    13  C   -0.254929
    14  C    0.583238
    15  O   -0.485636
    16  O   -0.496174
    17  N   -0.734833
    18  C    0.341521
    19  C   -0.030038
    20  C    0.066763
    21  C    0.283742
    22  C   -0.371431
    23  C   -0.096454
    24  C   -0.243336
    25  N   -0.688374
    26  C    0.239982
    27  C    0.054436
    28  C   -0.031859
    29  C    0.287653
    30  C   -0.359297
    31  C   -0.182221
    32  C   -0.297790
    33  N   -0.698647
    34  C    0.253284
    35  C    0.008216
    36  C   -0.060520
    37  C    0.334745
    38  C   -0.345240
    39  C    0.395296
    40  O   -0.464570
    41  C   -0.317270
    42  C    0.626209
    43  O   -0.523634
    44  O   -0.446676
    45  C   -0.071798
    46  C    0.038350
    47  C   -0.141011
    48  C    0.128786
    49  C   -0.361436
    50  C   -0.212365
    51  C   -0.175025
    52  C   -0.180375
    53  C   -0.068641
    54  C   -0.293215
    55  C   -0.158784
    56  C   -0.177987
    57  C   -0.155263
    58  C   -0.043388
    59  C   -0.301684
    60  C   -0.175494
    61  C   -0.183111
    62  C   -0.175796
    63  C   -0.049124
    64  C   -0.289814
    65  C   -0.286924
    66  H    0.079979
    67  H    0.095284
    68  H    0.094670
    69  H    0.134661
    70  H    0.077299
    71  H    0.116263
    72  H    0.103920
    73  H    0.132923
    74  H    0.121728
    75  H    0.108377
    76  H    0.144435
    77  H    0.143944
    78  H    0.127153
    79  H    0.112798
    80  H    0.104320
    81  H    0.097177
    82  H    0.103854
    83  H    0.101379
    84  H    0.111254
    85  H    0.117332
    86  H    0.095756
    87  H    0.120629
    88  H    0.106399
    89  H    0.092279
    90  H    0.096403
    91  H    0.079523
    92  H    0.126292
    93  H    0.144348
    94  H    0.130844
    95  H    0.164444
    96  H    0.127452
    97  H    0.152283
    98  H    0.135273
    99  H    0.123003
   100  H    0.090485
   101  H    0.094623
   102  H    0.118363
   103  H    0.100672
   104  H    0.122018
   105  H    0.096692
   106  H    0.110303
   107  H    0.069505
   108  H    0.088522
   109  H    0.101273
   110  H    0.086009
   111  H    0.081005
   112  H    0.102224
   113  H    0.107247
   114  H    0.104545
   115  H    0.084230
   116  H    0.043411
   117  H    0.105397
   118  H    0.070292
   119  H    0.087183
   120  H    0.079518
   121  H    0.098516
   122  H    0.088710
   123  H    0.083639
   124  H    0.110378
   125  H    0.098697
   126  H    0.076150
   127  H    0.102565
   128  H    0.076783
   129  H    0.068243
   130  H    0.070528
   131  H    0.039876
   132  H    0.088409
   133  H    0.098351
   134  H    0.101392
   135  H    0.088740
   136  H    0.110061
   137  H    0.103253
 Sum of Mulliken charges =   0.00000

 Dipole moment (field-independent basis, Debye):
    X=              0.6406    Y=              3.7240    Z=              0.6018  Tot=              3.8263
 Quadrupole moment (field-independent basis, Debye-Ang):
   XX=           -351.0178   YY=           -386.8728   ZZ=           -400.0256
   XY=            -12.8180   XZ=             14.5441   YZ=             -8.1141

 Normal termination of Gaussian 09 at Fri Jul  5 00:25:56 2019.
