 Gaussian 09, Revision D.01,
 Gaussian 09:  ES64L-G09RevD.01 24-Apr-2013

 -------------------------------------
 # td=(NStates=1) CAM-B3LYP/6-31G(d,p)
 -------------------------------------

 --
 TD
 --
 Symbolic Z-matrix:
 Charge =  0 Multiplicity = 1

                         Standard orientation:
 ---------------------------------------------------------------------
 Center     Atomic      Atomic             Coordinates (Angstroms)
 Number     Number       Type             X           Y           Z
 ---------------------------------------------------------------------
      1         12           0       -7.234472    0.617754    0.049464
      2          6           0       -4.865954   -1.899022    0.561600
      3          6           0       -4.912795    2.823540    0.976732
      4          6           0       -9.558810    3.082079   -0.502889
      5          6           0       -9.622597   -1.779556   -0.751884
      6          7           0       -5.087999    0.459349    0.667378
      7          6           0       -4.349123   -0.622741    0.854476
      8          6           0       -2.934288   -0.215726    1.193082
      9          6           0       -2.974612    1.273162    1.668569
     10          6           0       -4.434361    1.551355    1.044102
     11          6           0       -3.007881    1.384626    3.176697
     12          6           0       -1.975648   -0.526764    0.049549
     13          6           0       -0.555786   -0.325736    0.412080
     14          6           0        0.488977   -0.732487   -0.645362
     15          8           0        0.268845   -1.119558   -1.738139
     16          8           0        1.822606   -0.555818   -0.176119
     17          7           0       -7.185382    2.551464    0.281953
     18          6           0       -6.152631    3.345322    0.631968
     19          6           0       -6.541212    4.765999    0.656408
     20          6           0       -7.817212    4.822851    0.281560
     21          6           0       -8.364845    3.482340    0.060703
     22          6           0       -5.793814    6.064725    1.013102
     23          6           0       -8.740292    6.031943    0.094529
     24          6           0       -8.691469    7.246302    0.687410
     25          7           0       -9.193859    0.576518   -0.484052
     26          6           0      -10.012232    1.681487   -0.688063
     27          6           0      -11.192320    1.366747   -1.162504
     28          6           0      -11.246470   -0.019056   -1.258818
     29          6           0      -10.037974   -0.412513   -0.809167
     30          6           0      -12.311634    2.276331   -1.503781
     31          6           0      -12.361235   -0.960695   -1.650270
     32          6           0      -12.184298   -1.443128   -3.157566
     33          7           0       -7.295371   -1.428762   -0.047548
     34          6           0       -8.310489   -2.280537   -0.440549
     35          6           0       -7.806064   -3.636386   -0.397002
     36          6           0       -6.386458   -3.573570   -0.009414
     37          6           0       -6.227048   -2.062648    0.176018
     38          6           0       -8.609317   -4.918006   -0.669004
     39          6           0       -5.219014   -4.359799    0.165181
     40          8           0       -5.083816   -5.534741    0.221525
     41          6           0       -4.053293   -3.161588    0.484563
     42          6           0       -3.487776   -3.515307    1.839530
     43          8           0       -3.746901   -2.991416    2.929174
     44          8           0       -2.575160   -4.501822    1.742963
     45          6           0       -1.955080   -4.886409    2.977706
     46          6           0        2.793758   -0.808839   -1.164530
     47          6           0        4.171594   -0.607733   -0.503472
     48          6           0        5.140673    0.255061   -0.896654
     49          6           0        5.051539    1.062077   -2.112049
     50          6           0        6.411532    0.256550   -0.050685
     51          6           0        7.643395   -0.264655   -0.787414
     52          6           0        8.942609   -0.110650    0.004187
     53          6           0       10.264775   -0.552524   -0.857200
     54          6           0       10.172648   -1.979541   -1.151575
     55          6           0       11.559030   -0.234230    0.043653
     56          6           0       12.874826   -0.377913   -0.709843
     57          6           0       14.116340   -0.024657    0.106570
     58          6           0       15.423880   -0.169660   -0.470797
     59          6           0       15.669275   -1.625723   -0.875660
     60          6           0       16.499474    0.428024    0.378006
     61          6           0       17.909152    0.519031   -0.162407
     62          6           0       18.939826    1.314252    0.699796
     63          6           0       20.399745    1.383196    0.124129
     64          6           0       20.477043    2.009726   -1.239079
     65          6           0       21.319150    2.123324    1.209418
     66          1           0       -4.098027    3.680714    1.182008
     67          1           0      -10.260888    3.800717   -0.555177
     68          1           0      -10.287849   -2.588541   -0.963801
     69          1           0       -2.603447   -0.938756    1.910296
     70          1           0       -2.401182    1.887061    1.194159
     71          1           0       -1.923329    0.985222    3.298618
     72          1           0       -3.384875    2.258531    3.648221
     73          1           0       -3.771788    0.826735    3.522105
     74          1           0       -2.172769   -1.616046   -0.294020
     75          1           0       -2.354934   -0.068595   -0.871219
     76          1           0       -0.332987    0.739009    0.856868
     77          1           0       -0.180477   -0.741480    1.291955
     78          1           0       -6.064991    6.801153    0.419083
     79          1           0       -5.789802    6.503156    2.149965
     80          1           0       -4.780475    5.777547    0.970192
     81          1           0       -9.426136    5.951207   -0.671667
     82          1           0       -9.409633    8.144560    0.283651
     83          1           0       -7.895912    7.406361    1.338860
     84          1           0      -11.955735    2.862542   -2.295730
     85          1           0      -13.316736    1.894621   -2.060201
     86          1           0      -12.883332    2.854459   -0.621847
     87          1           0      -12.483694   -1.875628   -1.024788
     88          1           0      -13.249204   -0.351984   -1.522996
     89          1           0      -13.153776   -1.973900   -3.480933
     90          1           0      -12.243867   -0.686258   -3.893322
     91          1           0      -11.222401   -2.007140   -3.366863
     92          1           0       -9.288415   -4.804623   -1.625523
     93          1           0       -8.014981   -5.994470   -0.801243
     94          1           0       -9.351647   -5.206403    0.381224
     95          1           0       -3.320597   -3.189396   -0.273707
     96          1           0       -1.126011   -4.245327    3.305479
     97          1           0       -2.700905   -4.980094    3.777020
     98          1           0       -1.453668   -5.850275    2.776878
     99          1           0        2.671600   -1.981794   -1.401620
    100          1           0        2.622979   -0.216530   -1.935178
    101          1           0        4.446586   -1.077965    0.506010
    102          1           0        3.912123    1.013798   -2.489983
    103          1           0        5.469468    2.069978   -1.803050
    104          1           0        5.618003    0.698861   -2.919567
    105          1           0        6.659953    1.242407    0.004155
    106          1           0        6.234713   -0.346985    0.871025
    107          1           0        7.357688   -1.380118   -0.936350
    108          1           0        7.725752    0.291822   -1.885744
    109          1           0        9.138346    0.921978    0.396160
    110          1           0        8.799518   -0.967926    0.808030
    111          1           0       10.208233    0.101369   -1.539136
    112          1           0        9.252708   -2.401411   -1.940179
    113          1           0       11.197571   -2.537817   -1.317173
    114          1           0       10.093767   -2.580785   -0.107247
    115          1           0       11.537433    0.747394    0.631486
    116          1           0       11.458535   -0.967324    0.821684
    117          1           0       12.946897   -1.539480   -0.845063
    118          1           0       12.708553    0.167065   -1.727990
    119          1           0       13.745256    1.184110    0.454109
    120          1           0       14.060004   -0.370585    1.168386
    121          1           0       15.223708    0.475277   -1.352507
    122          1           0       15.528307   -2.333270    0.049254
    123          1           0       14.838040   -1.884405   -1.725122
    124          1           0       16.707296   -1.821454   -1.338674
    125          1           0       16.284948    1.478062    0.908429
    126          1           0       16.725042   -0.293849    1.232872
    127          1           0       18.310862   -0.575839   -0.614931
    128          1           0       17.657134    0.944528   -1.176518
    129          1           0       18.698310    2.322973    0.956017
    130          1           0       18.997691    0.877971    1.695575
    131          1           0       20.900711    0.206390   -0.125840
    132          1           0       20.456639    3.275036   -1.324180
    133          1           0       21.506618    1.762422   -1.743579
    134          1           0       19.726772    1.682539   -2.001626
    135          1           0       21.117250    1.488213    2.213111
    136          1           0       22.435460    2.244035    1.004445
    137          1           0       21.140111    3.156924    1.531930
 ---------------------------------------------------------------------

 SCF Done:  E(RCAM-B3LYP) =  -2932.57256014     A.U. after   17 cycles

 Excitation energies and oscillator strengths:

 Excited State   1:      Singlet-A      2.2912 eV  541.14 nm  f=0.1437  <S**2>=0.000
     240 -> 242       -0.22676
     240 -> 243       -0.29663
     241 -> 242        0.56712
     241 -> 243       -0.16260
 This state for optimization and/or second-order correction.
 Total Energy, E(TD-HF/TD-KS) =  -2932.48836155
 Copying the excited state density for this state as the 1-particle RhoCI density.

 The electronic state is 1-A.
 Alpha  occ. eigenvalues --  -46.84433 -19.25883 -19.24751 -19.22147 -19.20970
 Alpha  occ. eigenvalues --  -19.19939 -14.41172 -14.40061 -14.39897 -14.38210
 Alpha  occ. eigenvalues --  -10.39677 -10.38663 -10.35374 -10.31269 -10.31249
 Alpha  occ. eigenvalues --  -10.30780 -10.30653 -10.30516 -10.30404 -10.30372
 Alpha  occ. eigenvalues --  -10.30202 -10.29877 -10.29819 -10.29133 -10.28770
 Alpha  occ. eigenvalues --  -10.28564 -10.28000 -10.27968 -10.27812 -10.27750
 Alpha  occ. eigenvalues --  -10.27656 -10.27597 -10.27508 -10.27441 -10.27409
 Alpha  occ. eigenvalues --  -10.27304 -10.27288 -10.27170 -10.27138 -10.27072
 Alpha  occ. eigenvalues --  -10.27018 -10.26844 -10.26793 -10.26685 -10.26658
 Alpha  occ. eigenvalues --  -10.26654 -10.26528 -10.26526 -10.26521 -10.26506
 Alpha  occ. eigenvalues --  -10.26506 -10.26450 -10.26100 -10.26008 -10.25910
 Alpha  occ. eigenvalues --  -10.25901 -10.25849 -10.25803 -10.25738 -10.25561
 Alpha  occ. eigenvalues --  -10.25441 -10.25366 -10.25141 -10.24554 -10.24496
 Alpha  occ. eigenvalues --   -3.13546  -1.88239  -1.87795  -1.87727  -1.17967
 Alpha  occ. eigenvalues --   -1.17444  -1.12986  -1.10076  -1.07367  -1.05978
 Alpha  occ. eigenvalues --   -1.05062  -1.04237  -1.01868  -0.91923  -0.91751
 Alpha  occ. eigenvalues --   -0.91240  -0.91008  -0.89676  -0.89233  -0.88559
 Alpha  occ. eigenvalues --   -0.88177  -0.87799  -0.87669  -0.86709  -0.86027
 Alpha  occ. eigenvalues --   -0.84841  -0.84270  -0.83266  -0.83131  -0.82720
 Alpha  occ. eigenvalues --   -0.81336  -0.80859  -0.80280  -0.79668  -0.78535
 Alpha  occ. eigenvalues --   -0.77832  -0.77350  -0.75932  -0.75772  -0.75113
 Alpha  occ. eigenvalues --   -0.74833  -0.74373  -0.74004  -0.73234  -0.72467
 Alpha  occ. eigenvalues --   -0.71937  -0.71029  -0.69987  -0.69095  -0.68426
 Alpha  occ. eigenvalues --   -0.67172  -0.66920  -0.66010  -0.64989  -0.64286
 Alpha  occ. eigenvalues --   -0.63800  -0.63280  -0.62848  -0.62184  -0.62124
 Alpha  occ. eigenvalues --   -0.61270  -0.61169  -0.61094  -0.59999  -0.59072
 Alpha  occ. eigenvalues --   -0.58653  -0.58334  -0.57871  -0.57474  -0.56765
 Alpha  occ. eigenvalues --   -0.56018  -0.55518  -0.55245  -0.55042  -0.54596
 Alpha  occ. eigenvalues --   -0.54071  -0.53796  -0.53377  -0.53339  -0.53059
 Alpha  occ. eigenvalues --   -0.52760  -0.52513  -0.52305  -0.51919  -0.51626
 Alpha  occ. eigenvalues --   -0.51434  -0.51118  -0.50931  -0.50838  -0.50427
 Alpha  occ. eigenvalues --   -0.50195  -0.50026  -0.49938  -0.49839  -0.49706
 Alpha  occ. eigenvalues --   -0.49281  -0.48995  -0.48828  -0.48578  -0.48377
 Alpha  occ. eigenvalues --   -0.48150  -0.48014  -0.47866  -0.47716  -0.47274
 Alpha  occ. eigenvalues --   -0.47196  -0.47123  -0.46709  -0.46429  -0.45976
 Alpha  occ. eigenvalues --   -0.45467  -0.45351  -0.45305  -0.45116  -0.45028
 Alpha  occ. eigenvalues --   -0.44757  -0.44399  -0.44151  -0.44026  -0.44000
 Alpha  occ. eigenvalues --   -0.43638  -0.43459  -0.43351  -0.43287  -0.43058
 Alpha  occ. eigenvalues --   -0.42769  -0.42687  -0.42595  -0.42560  -0.42308
 Alpha  occ. eigenvalues --   -0.42082  -0.41846  -0.41594  -0.41426  -0.41127
 Alpha  occ. eigenvalues --   -0.40917  -0.40771  -0.40746  -0.40386  -0.40143
 Alpha  occ. eigenvalues --   -0.40115  -0.39871  -0.39742  -0.39617  -0.39145
 Alpha  occ. eigenvalues --   -0.39057  -0.38545  -0.38193  -0.37795  -0.37767
 Alpha  occ. eigenvalues --   -0.37320  -0.37241  -0.37057  -0.36980  -0.36683
 Alpha  occ. eigenvalues --   -0.35936  -0.35602  -0.35403  -0.35348  -0.35234
 Alpha  occ. eigenvalues --   -0.34915  -0.34594  -0.34302  -0.33966  -0.33343
 Alpha  occ. eigenvalues --   -0.33057  -0.32897  -0.32422  -0.31152  -0.29676
 Alpha  occ. eigenvalues --   -0.29529  -0.29163  -0.28885  -0.27679  -0.23366
 Alpha  occ. eigenvalues --   -0.22091
 Alpha virt. eigenvalues --   -0.05945  -0.03987   0.01372   0.04265   0.05433
 Alpha virt. eigenvalues --    0.06039   0.06220   0.06885   0.06944   0.07307
 Alpha virt. eigenvalues --    0.08765   0.10605   0.10956   0.11340   0.11570

 Mulliken charges:
               1
     1  Mg   0.830039
     2  C    0.031635
     3  C   -0.236090
     4  C   -0.152074
     5  C   -0.159269
     6  N   -0.622400
     7  C    0.344327
     8  C   -0.171679
     9  C   -0.106600
    10  C    0.310191
    11  C   -0.281303
    12  C   -0.177448
    13  C   -0.268196
    14  C    0.605805
    15  O   -0.435921
    16  O   -0.508780
    17  N   -0.740113
    18  C    0.369313
    19  C    0.001092
    20  C    0.026102
    21  C    0.240252
    22  C   -0.351244
    23  C   -0.068733
    24  C   -0.239935
    25  N   -0.700704
    26  C    0.268867
    27  C    0.028925
    28  C    0.055145
    29  C    0.287484
    30  C   -0.388856
    31  C   -0.234192
    32  C   -0.316728
    33  N   -0.734041
    34  C    0.256802
    35  C    0.031132
    36  C   -0.012524
    37  C    0.379357
    38  C   -0.359832
    39  C    0.343588
    40  O   -0.424421
    41  C   -0.364533
    42  C    0.641547
    43  O   -0.497167
    44  O   -0.451274
    45  C   -0.087043
    46  C    0.048994
    47  C   -0.144217
    48  C    0.127707
    49  C   -0.356079
    50  C   -0.204901
    51  C   -0.174786
    52  C   -0.172860
    53  C   -0.025718
    54  C   -0.296610
    55  C   -0.195459
    56  C   -0.162016
    57  C   -0.156306
    58  C   -0.035410
    59  C   -0.304374
    60  C   -0.164971
    61  C   -0.175773
    62  C   -0.172056
    63  C   -0.023166
    64  C   -0.286567
    65  C   -0.317467
    66  H    0.064633
    67  H    0.091641
    68  H    0.098254
    69  H    0.122405
    70  H    0.105027
    71  H    0.102017
    72  H    0.113988
    73  H    0.135950
    74  H    0.106877
    75  H    0.122151
    76  H    0.124639
    77  H    0.149219
    78  H    0.139764
    79  H    0.099334
    80  H    0.113854
    81  H    0.098881
    82  H    0.101814
    83  H    0.106559
    84  H    0.130957
    85  H    0.093289
    86  H    0.107694
    87  H    0.110915
    88  H    0.105735
    89  H    0.088814
    90  H    0.117871
    91  H    0.107873
    92  H    0.112977
    93  H    0.136137
    94  H    0.095651
    95  H    0.160992
    96  H    0.115348
    97  H    0.142819
    98  H    0.120934
    99  H    0.099999
   100  H    0.112260
   101  H    0.077152
   102  H    0.092764
   103  H    0.105145
   104  H    0.137148
   105  H    0.098553
   106  H    0.099518
   107  H    0.092527
   108  H    0.058384
   109  H    0.090145
   110  H    0.078802
   111  H    0.095142
   112  H    0.090672
   113  H    0.094445
   114  H    0.079727
   115  H    0.077875
   116  H    0.096856
   117  H    0.085919
   118  H    0.087657
   119  H    0.029029
   120  H    0.091974
   121  H    0.092046
   122  H    0.097013
   123  H    0.095968
   124  H    0.102577
   125  H    0.083809
   126  H    0.080797
   127  H    0.062756
   128  H    0.087409
   129  H    0.107838
   130  H    0.097739
   131  H    0.054427
   132  H    0.061236
   133  H    0.089946
   134  H    0.110387
   135  H    0.081581
   136  H    0.099694
   137  H    0.109603
 Sum of Mulliken charges =   0.00000

 Dipole moment (field-independent basis, Debye):
    X=              0.5764    Y=              5.2266    Z=             -0.3644  Tot=              5.2709
 Quadrupole moment (field-independent basis, Debye-Ang):
   XX=           -352.8240   YY=           -391.2284   ZZ=           -399.5049
   XY=            -22.6571   XZ=             19.4797   YZ=             -0.5825

 Normal termination of Gaussian 09 at Sat Jul  6 19:16:41 2019.
