 Gaussian 16, Revision A.03,
 Gaussian 16:  ES64L-G16RevA.03 25-Dec-2016

 ----------------------------------------------------------------------
 # td=(NStates=1) iop(3/107=0140000000,3/108=0140000000) CAM-B3LYP/6-31
 G(d,p)
 ----------------------------------------------------------------------

 --
 TD
 --
 Symbolic Z-matrix:
 Charge =  0 Multiplicity = 1

                         Standard orientation:
 ---------------------------------------------------------------------
 Center     Atomic      Atomic             Coordinates (Angstroms)
 Number     Number       Type             X           Y           Z
 ---------------------------------------------------------------------
      1         12           0       -7.165191    0.594483    0.107728
      2          6           0       -4.892729   -2.031947    0.418220
      3          6           0       -4.876237    2.826736    1.166413
      4          6           0       -9.457837    3.142121   -0.406944
      5          6           0       -9.474391   -1.733290   -0.971040
      6          7           0       -5.144814    0.394131    0.759036
      7          6           0       -4.281295   -0.711819    0.796050
      8          6           0       -2.887230   -0.457988    1.248560
      9          6           0       -3.151792    1.138352    1.801276
     10          6           0       -4.443408    1.511941    1.117652
     11          6           0       -3.245144    1.166287    3.287805
     12          6           0       -1.931450   -0.470552    0.069441
     13          6           0       -0.444060   -0.352327    0.522210
     14          6           0        0.515036   -0.580592   -0.576009
     15          8           0        0.253996   -0.869019   -1.781974
     16          8           0        1.694276   -0.366104   -0.199031
     17          7           0       -7.135798    2.569996    0.251930
     18          6           0       -6.117897    3.355564    0.823210
     19          6           0       -6.503510    4.760774    0.839886
     20          6           0       -7.755119    4.944749    0.366898
     21          6           0       -8.156220    3.487214    0.042393
     22          6           0       -5.599677    5.972739    1.170204
     23          6           0       -8.471697    6.019772    0.038324
     24          6           0       -8.325990    7.234958    0.664707
     25          7           0       -9.174591    0.647935   -0.426771
     26          6           0       -9.924681    1.845787   -0.604645
     27          6           0      -11.196363    1.437025   -1.082750
     28          6           0      -11.233431    0.086804   -1.230038
     29          6           0       -9.919803   -0.274105   -0.876460
     30          6           0      -12.346857    2.416610   -1.410864
     31          6           0      -12.269519   -0.810566   -1.873713
     32          6           0      -12.170228   -1.246920   -3.304876
     33          7           0       -7.198304   -1.387218   -0.210837
     34          6           0       -8.189517   -2.135787   -0.700519
     35          6           0       -7.808953   -3.595183   -0.635447
     36          6           0       -6.483430   -3.610249   -0.194835
     37          6           0       -6.136652   -2.230055   -0.009900
     38          6           0       -8.555953   -4.807652   -0.903610
     39          6           0       -5.303626   -4.378272    0.162836
     40          8           0       -5.250715   -5.670161    0.278166
     41          6           0       -4.214876   -3.318663    0.587429
     42          6           0       -3.670381   -3.651530    2.049983
     43          8           0       -3.979128   -3.161479    3.087347
     44          8           0       -2.772674   -4.694379    1.828288
     45          6           0       -2.259065   -5.236215    3.042716
     46          6           0        2.833943   -0.603408   -1.125655
     47          6           0        4.107817   -0.265584   -0.414353
     48          6           0        5.233340    0.382572   -0.953661
     49          6           0        5.098692    1.126767   -2.134277
     50          6           0        6.484291    0.341209   -0.215759
     51          6           0        7.652396   -0.251813   -0.919597
     52          6           0        9.024802   -0.021882   -0.181467
     53          6           0       10.282182   -0.568873   -0.914656
     54          6           0       10.101880   -2.002298   -1.335480
     55          6           0       11.562380   -0.419119   -0.032036
     56          6           0       12.869370   -0.559508   -0.745884
     57          6           0       14.088081   -0.158201    0.228038
     58          6           0       15.355329   -0.269842   -0.440359
     59          6           0       15.668404   -1.718281   -0.994187
     60          6           0       16.419465    0.235804    0.472701
     61          6           0       17.877479    0.652243   -0.237777
     62          6           0       18.786804    1.374938    0.720619
     63          6           0       20.251728    1.450829    0.241740
     64          6           0       20.477482    2.225898   -1.005439
     65          6           0       21.184704    1.922107    1.342029
     66          1           0       -4.230356    3.560613    1.534220
     67          1           0      -10.173447    3.983124   -0.149223
     68          1           0      -10.269306   -2.583156   -1.272381
     69          1           0       -2.504624   -0.984752    2.207237
     70          1           0       -2.228355    1.514569    1.501553
     71          1           0       -2.333029    0.787730    3.917648
     72          1           0       -3.349036    2.153206    3.769970
     73          1           0       -4.038172    0.388257    3.684094
     74          1           0       -1.890452   -1.409360   -0.680637
     75          1           0       -2.103638    0.323067   -0.871313
     76          1           0       -0.305488    0.571072    1.099425
     77          1           0       -0.199633   -1.297020    1.208760
     78          1           0       -5.791305    6.916023    0.485761
     79          1           0       -5.740347    6.074447    2.200136
     80          1           0       -4.573713    5.701632    1.105526
     81          1           0       -9.400439    5.927502   -0.510525
     82          1           0       -9.074553    7.997435    0.329566
     83          1           0       -7.522247    7.388590    1.298704
     84          1           0      -12.252100    2.874057   -2.410216
     85          1           0      -13.254943    1.892150   -1.669000
     86          1           0      -12.571753    3.193959   -0.593713
     87          1           0      -12.510055   -1.691215   -1.281769
     88          1           0      -13.214897   -0.453710   -1.857167
     89          1           0      -12.940856   -1.879861   -3.508313
     90          1           0      -12.319359   -0.256319   -3.973923
     91          1           0      -11.048282   -1.677506   -3.470217
     92          1           0       -9.003503   -5.000306   -1.945790
     93          1           0       -7.801722   -5.531494   -0.840777
     94          1           0       -9.360712   -5.006956   -0.146605
     95          1           0       -3.146590   -3.194267   -0.019557
     96          1           0       -1.749837   -4.476802    3.744667
     97          1           0       -2.957814   -5.761588    3.632702
     98          1           0       -1.360056   -6.065804    2.697730
     99          1           0        2.688517   -1.663890   -1.360171
    100          1           0        2.489493   -0.047324   -2.112944
    101          1           0        4.386312   -0.806129    0.514440
    102          1           0        4.046475    1.227186   -2.489129
    103          1           0        5.482024    2.203386   -1.890624
    104          1           0        5.688397    0.938598   -3.073716
    105          1           0        6.741186    1.445131    0.033878
    106          1           0        6.295289    0.028644    0.779533
    107          1           0        7.569568   -1.343429   -1.077204
    108          1           0        7.659256    0.143079   -2.034977
    109          1           0        9.180642    1.131950   -0.033926
    110          1           0        8.829323   -0.545379    0.825461
    111          1           0       10.582255    0.053822   -1.817868
    112          1           0        9.366047   -2.192822   -2.005649
    113          1           0       10.961586   -2.613134   -2.038467
    114          1           0       10.157760   -2.897617   -0.629294
    115          1           0       11.514188    0.652469    0.297633
    116          1           0       11.477201   -1.014387    0.867689
    117          1           0       12.913560   -1.572132   -1.000932
    118          1           0       13.097272   -0.080332   -1.781973
    119          1           0       13.817205    0.872911    0.562089
    120          1           0       14.160319   -0.881636    1.045006
    121          1           0       15.276795    0.303725   -1.396791
    122          1           0       15.731327   -2.504629   -0.360391
    123          1           0       14.970395   -1.935951   -1.604534
    124          1           0       16.566674   -1.505525   -1.513681
    125          1           0       16.028426    1.247272    0.929444
    126          1           0       16.572492   -0.613265    1.359761
    127          1           0       18.247814   -0.237359   -0.448492
    128          1           0       17.531580    1.108648   -1.135216
    129          1           0       18.412564    2.390322    0.697364
    130          1           0       18.741914    0.849098    1.662983
    131          1           0       20.649199    0.420632    0.010651
    132          1           0       20.076828    3.285115   -0.948437
    133          1           0       21.421732    2.134097   -1.568992
    134          1           0       19.802126    1.604977   -1.830868
    135          1           0       20.970005    1.584857    2.468628
    136          1           0       22.347228    1.886812    1.206884
    137          1           0       20.700954    2.822675    1.333028
 ---------------------------------------------------------------------

 SCF Done:  E(RCAM-B3LYP) =  -2933.48405855     A.U. after   16 cycles

 Excitation energies and oscillator strengths:

 Excited State   1:      Singlet-A      2.0026 eV  619.13 nm  f=0.1605  <S**2>=0.000
     240 -> 243       -0.28579
     241 -> 242        0.62871
     241 -> 243       -0.10188
 This state for optimization and/or second-order correction.
 Total Energy, E(TD-HF/TD-DFT) =  -2933.41046578
 Copying the excited state density for this state as the 1-particle RhoCI density.

 The electronic state is 1-A.
 Alpha  occ. eigenvalues --  -46.79698 -19.22449 -19.22244 -19.18578 -19.16127
 Alpha  occ. eigenvalues --  -19.14773 -14.38329 -14.35925 -14.34942 -14.34382
 Alpha  occ. eigenvalues --  -10.35489 -10.33715 -10.31338 -10.29337 -10.28061
 Alpha  occ. eigenvalues --  -10.27805 -10.26011 -10.25477 -10.25174 -10.25016
 Alpha  occ. eigenvalues --  -10.25016 -10.24810 -10.24741 -10.24478 -10.24267
 Alpha  occ. eigenvalues --  -10.24043 -10.23926 -10.23878 -10.23567 -10.23442
 Alpha  occ. eigenvalues --  -10.23438 -10.23348 -10.23168 -10.22930 -10.22871
 Alpha  occ. eigenvalues --  -10.22692 -10.22643 -10.22553 -10.22377 -10.22267
 Alpha  occ. eigenvalues --  -10.22180 -10.22178 -10.21765 -10.21752 -10.21702
 Alpha  occ. eigenvalues --  -10.21615 -10.21569 -10.21512 -10.21489 -10.21481
 Alpha  occ. eigenvalues --  -10.21470 -10.21409 -10.21305 -10.21283 -10.21272
 Alpha  occ. eigenvalues --  -10.20863 -10.20806 -10.20758 -10.20750 -10.20399
 Alpha  occ. eigenvalues --  -10.20325 -10.20272 -10.20252 -10.19667 -10.17532
 Alpha  occ. eigenvalues --   -3.08394  -1.83325  -1.82860  -1.82821  -1.15170
 Alpha  occ. eigenvalues --   -1.13108  -1.06117  -1.01785  -1.00921  -0.99693
 Alpha  occ. eigenvalues --   -0.98857  -0.97919  -0.96595  -0.88457  -0.87866
 Alpha  occ. eigenvalues --   -0.86138  -0.85611  -0.85002  -0.84605  -0.84090
 Alpha  occ. eigenvalues --   -0.83528  -0.83168  -0.82636  -0.81889  -0.81402
 Alpha  occ. eigenvalues --   -0.80076  -0.79284  -0.78336  -0.78167  -0.77740
 Alpha  occ. eigenvalues --   -0.77449  -0.76212  -0.75660  -0.75256  -0.73645
 Alpha  occ. eigenvalues --   -0.73228  -0.72656  -0.72279  -0.72071  -0.70609
 Alpha  occ. eigenvalues --   -0.70513  -0.70277  -0.69918  -0.68862  -0.67305
 Alpha  occ. eigenvalues --   -0.67101  -0.66093  -0.65019  -0.64448  -0.64088
 Alpha  occ. eigenvalues --   -0.62768  -0.62672  -0.60928  -0.60557  -0.60385
 Alpha  occ. eigenvalues --   -0.59696  -0.59233  -0.58504  -0.58172  -0.57531
 Alpha  occ. eigenvalues --   -0.57505  -0.57000  -0.56510  -0.56266  -0.55340
 Alpha  occ. eigenvalues --   -0.54548  -0.54019  -0.53624  -0.53441  -0.52601
 Alpha  occ. eigenvalues --   -0.52020  -0.51858  -0.51698  -0.51364  -0.51185
 Alpha  occ. eigenvalues --   -0.51028  -0.50551  -0.50438  -0.50200  -0.49832
 Alpha  occ. eigenvalues --   -0.49281  -0.48711  -0.48574  -0.48074  -0.47823
 Alpha  occ. eigenvalues --   -0.47638  -0.47525  -0.47303  -0.47100  -0.46883
 Alpha  occ. eigenvalues --   -0.46604  -0.46443  -0.46318  -0.45927  -0.45515
 Alpha  occ. eigenvalues --   -0.45394  -0.45137  -0.44872  -0.44816  -0.44634
 Alpha  occ. eigenvalues --   -0.44527  -0.44420  -0.44205  -0.44093  -0.43674
 Alpha  occ. eigenvalues --   -0.43636  -0.43551  -0.43253  -0.42779  -0.42358
 Alpha  occ. eigenvalues --   -0.42264  -0.42065  -0.41878  -0.41646  -0.41491
 Alpha  occ. eigenvalues --   -0.41463  -0.41270  -0.41080  -0.40945  -0.40826
 Alpha  occ. eigenvalues --   -0.40526  -0.40162  -0.39978  -0.39827  -0.39672
 Alpha  occ. eigenvalues --   -0.39600  -0.39292  -0.39198  -0.38810  -0.38718
 Alpha  occ. eigenvalues --   -0.38614  -0.38542  -0.38306  -0.38035  -0.37770
 Alpha  occ. eigenvalues --   -0.37650  -0.37487  -0.37451  -0.37363  -0.37158
 Alpha  occ. eigenvalues --   -0.36909  -0.36885  -0.36517  -0.36342  -0.36300
 Alpha  occ. eigenvalues --   -0.36030  -0.35987  -0.35104  -0.34838  -0.34647
 Alpha  occ. eigenvalues --   -0.34454  -0.34323  -0.34041  -0.33566  -0.33387
 Alpha  occ. eigenvalues --   -0.33347  -0.33276  -0.33104  -0.32874  -0.32555
 Alpha  occ. eigenvalues --   -0.32241  -0.31526  -0.31402  -0.31249  -0.30386
 Alpha  occ. eigenvalues --   -0.30210  -0.29708  -0.28993  -0.28044  -0.26958
 Alpha  occ. eigenvalues --   -0.26902  -0.26792  -0.25901  -0.24558  -0.21133
 Alpha  occ. eigenvalues --   -0.19290
 Alpha virt. eigenvalues --   -0.06322  -0.04876  -0.01657   0.01525   0.01580
 Alpha virt. eigenvalues --    0.03608   0.04310   0.04827   0.05146   0.05829
 Alpha virt. eigenvalues --    0.05916   0.09189   0.09529   0.09567   0.10137

 Mulliken charges:
               1
     1  Mg   0.819107
     2  C    0.057286
     3  C   -0.177793
     4  C   -0.178588
     5  C   -0.196470
     6  N   -0.610222
     7  C    0.320993
     8  C   -0.185701
     9  C   -0.128898
    10  C    0.343163
    11  C   -0.314356
    12  C   -0.182109
    13  C   -0.254728
    14  C    0.591697
    15  O   -0.538644
    16  O   -0.422267
    17  N   -0.692335
    18  C    0.306828
    19  C   -0.013206
    20  C    0.120186
    21  C    0.236987
    22  C   -0.384129
    23  C   -0.120337
    24  C   -0.240553
    25  N   -0.668370
    26  C    0.261455
    27  C    0.005948
    28  C    0.064580
    29  C    0.294017
    30  C   -0.384310
    31  C   -0.250662
    32  C   -0.280381
    33  N   -0.725139
    34  C    0.338520
    35  C   -0.009411
    36  C    0.098355
    37  C    0.274277
    38  C   -0.407131
    39  C    0.349068
    40  O   -0.493344
    41  C   -0.324834
    42  C    0.609964
    43  O   -0.434317
    44  O   -0.429951
    45  C   -0.085497
    46  C   -0.007622
    47  C   -0.142180
    48  C    0.176958
    49  C   -0.379963
    50  C   -0.226438
    51  C   -0.177732
    52  C   -0.162542
    53  C   -0.049246
    54  C   -0.315842
    55  C   -0.171077
    56  C   -0.193158
    57  C   -0.146947
    58  C   -0.067612
    59  C   -0.311068
    60  C   -0.175347
    61  C   -0.186036
    62  C   -0.162145
    63  C   -0.067744
    64  C   -0.301532
    65  C   -0.289897
    66  H    0.066781
    67  H    0.096295
    68  H    0.094529
    69  H    0.123716
    70  H    0.101047
    71  H    0.090851
    72  H    0.115157
    73  H    0.119635
    74  H    0.122906
    75  H    0.110000
    76  H    0.137446
    77  H    0.122025
    78  H    0.120307
    79  H    0.138303
    80  H    0.109923
    81  H    0.091610
    82  H    0.096914
    83  H    0.105391
    84  H    0.120095
    85  H    0.111662
    86  H    0.108641
    87  H    0.098369
    88  H    0.106731
    89  H    0.116793
    90  H    0.080933
    91  H    0.089075
    92  H    0.116890
    93  H    0.158556
    94  H    0.130134
    95  H    0.141616
    96  H    0.112843
    97  H    0.143958
    98  H    0.092760
    99  H    0.142734
   100  H    0.137311
   101  H    0.086908
   102  H    0.113573
   103  H    0.102850
   104  H    0.122721
   105  H    0.087099
   106  H    0.105066
   107  H    0.108265
   108  H    0.078542
   109  H    0.083332
   110  H    0.090495
   111  H    0.090041
   112  H    0.120110
   113  H    0.052160
   114  H    0.101977
   115  H    0.075267
   116  H    0.096752
   117  H    0.106694
   118  H    0.075628
   119  H    0.085678
   120  H    0.087846
   121  H    0.070241
   122  H    0.103888
   123  H    0.110092
   124  H    0.103086
   125  H    0.070523
   126  H    0.058529
   127  H    0.110462
   128  H    0.100062
   129  H    0.093629
   130  H    0.105765
   131  H    0.074450
   132  H    0.095626
   133  H    0.114184
   134  H    0.072098
   135  H    0.071737
   136  H    0.093433
   137  H    0.107676
 Sum of Mulliken charges =  -0.00000

 Dipole moment (field-independent basis, Debye):
    X=              3.7975    Y=              3.8060    Z=              0.8720  Tot=              5.4468
 Quadrupole moment (field-independent basis, Debye-Ang):
   XX=           -357.6696   YY=           -399.5987   ZZ=           -397.6348
   XY=            -23.9766   XZ=              0.5787   YZ=             -0.9949

 Normal termination of Gaussian 16 at Wed Sep  4 00:24:27 2019.
