 Gaussian 09, Revision D.01,
 Gaussian 09:  ES64L-G09RevD.01 24-Apr-2013

 -------------------------------------
 # td=(NStates=1) CAM-B3LYP/6-31G(d,p)
 -------------------------------------

 --
 TD
 --
 Symbolic Z-matrix:
 Charge =  0 Multiplicity = 1

                         Standard orientation:
 ---------------------------------------------------------------------
 Center     Atomic      Atomic             Coordinates (Angstroms)
 Number     Number       Type             X           Y           Z
 ---------------------------------------------------------------------
      1         12           0       -7.143759    0.607429    0.055476
      2          6           0       -4.909386   -1.949933    0.507152
      3          6           0       -4.767835    2.820956    1.156632
      4          6           0       -9.341705    3.070723   -0.408623
      5          6           0       -9.561442   -1.636635   -0.839039
      6          7           0       -5.097781    0.432896    0.754170
      7          6           0       -4.349302   -0.652505    0.819574
      8          6           0       -2.929837   -0.361978    1.194570
      9          6           0       -2.985061    1.065586    1.639612
     10          6           0       -4.336104    1.504749    1.143494
     11          6           0       -2.899247    1.277267    3.126849
     12          6           0       -1.930798   -0.758248    0.073180
     13          6           0       -0.535432   -0.589106    0.556268
     14          6           0        0.555856   -0.683950   -0.599643
     15          8           0        0.233004   -1.019723   -1.677614
     16          8           0        1.811603   -0.425044   -0.262127
     17          7           0       -7.000315    2.606349    0.310244
     18          6           0       -6.039657    3.328178    0.800207
     19          6           0       -6.260807    4.875492    0.676896
     20          6           0       -7.654985    4.768712    0.359537
     21          6           0       -8.117689    3.528773    0.030192
     22          6           0       -5.296961    5.977870    1.027633
     23          6           0       -8.610730    5.947750    0.196970
     24          6           0       -8.571720    7.122084    0.921324
     25          7           0       -9.145746    0.636290   -0.551030
     26          6           0       -9.827711    1.807107   -0.657259
     27          6           0      -11.208789    1.449829   -1.101283
     28          6           0      -11.224338    0.088192   -1.225808
     29          6           0       -9.938330   -0.385143   -0.825347
     30          6           0      -12.238411    2.455042   -1.305743
     31          6           0      -12.325697   -0.774382   -1.561150
     32          6           0      -12.498531   -1.067127   -3.098675
     33          7           0       -7.287352   -1.406871   -0.113137
     34          6           0       -8.350224   -2.265008   -0.451150
     35          6           0       -7.883777   -3.636832   -0.432737
     36          6           0       -6.468873   -3.487337   -0.169853
     37          6           0       -6.211717   -2.144967    0.059370
     38          6           0       -8.572335   -4.850605   -0.829468
     39          6           0       -5.363990   -4.336358    0.167883
     40          8           0       -5.213029   -5.496691    0.145266
     41          6           0       -4.143407   -3.323521    0.496431
     42          6           0       -3.582648   -3.736471    1.765210
     43          8           0       -3.782352   -3.258476    2.838937
     44          8           0       -2.640554   -4.755624    1.722900
     45          6           0       -2.154624   -5.191111    3.050548
     46          6           0        2.875989   -0.689102   -1.207632
     47          6           0        4.126547   -0.418325   -0.609332
     48          6           0        5.092237    0.476027   -1.033789
     49          6           0        5.052038    1.199205   -2.326439
     50          6           0        6.426879    0.496670   -0.334537
     51          6           0        7.516213   -0.212927   -1.050570
     52          6           0        8.860454   -0.034439   -0.239746
     53          6           0       10.203666   -0.507632   -1.032881
     54          6           0       10.168981   -1.925293   -1.371437
     55          6           0       11.371129   -0.162166   -0.026350
     56          6           0       12.756616   -0.290001   -0.692343
     57          6           0       13.932690    0.087527    0.193626
     58          6           0       15.297871   -0.197768   -0.339730
     59          6           0       15.543399   -1.718089   -0.730037
     60          6           0       16.419047    0.243907    0.641212
     61          6           0       17.793706    0.370247   -0.051563
     62          6           0       18.872819    1.174374    0.722909
     63          6           0       20.284277    1.391035    0.321804
     64          6           0       20.350732    1.985029   -1.043701
     65          6           0       21.188152    1.925313    1.163360
     66          1           0       -4.196980    3.641946    1.606979
     67          1           0       -9.907071    4.081707   -0.423988
     68          1           0      -10.265737   -2.432736   -1.080297
     69          1           0       -2.799253   -0.884125    2.109237
     70          1           0       -2.258719    1.629574    1.093626
     71          1           0       -1.799671    1.190223    3.469181
     72          1           0       -3.373636    2.228380    3.341193
     73          1           0       -3.735312    0.765789    3.558027
     74          1           0       -1.984778   -1.892763   -0.132244
     75          1           0       -2.062866   -0.108027   -0.817036
     76          1           0       -0.349892    0.395003    1.160132
     77          1           0       -0.225810   -1.345024    1.249051
     78          1           0       -5.932366    6.970622    0.584456
     79          1           0       -5.223286    6.200493    2.137935
     80          1           0       -4.178572    5.901888    0.416759
     81          1           0       -9.294938    5.892345   -0.698261
     82          1           0       -9.421547    7.759395    0.776427
     83          1           0       -7.977896    7.407005    1.765709
     84          1           0      -11.969316    3.133533   -2.115063
     85          1           0      -13.110553    2.040832   -1.988957
     86          1           0      -12.509152    2.984397   -0.313171
     87          1           0      -12.145972   -1.603243   -0.820396
     88          1           0      -13.316735   -0.452562   -1.228985
     89          1           0      -13.345640   -1.759218   -3.414200
     90          1           0      -12.704505   -0.036122   -3.724790
     91          1           0      -11.478563   -1.524312   -3.420117
     92          1           0       -8.828680   -4.633350   -1.897657
     93          1           0       -7.698330   -5.740482   -0.661959
     94          1           0       -9.189245   -5.040925   -0.020432
     95          1           0       -3.491536   -3.460942   -0.266185
     96          1           0       -1.634370   -4.314194    3.369667
     97          1           0       -3.131281   -5.660238    3.650712
     98          1           0       -1.461697   -6.095988    2.640570
     99          1           0        2.847204   -1.856419   -1.407464
    100          1           0        2.626684   -0.003373   -1.962454
    101          1           0        4.147807   -0.862175    0.413001
    102          1           0        4.025655    0.974282   -2.804797
    103          1           0        5.481973    2.242864   -2.313146
    104          1           0        5.591904    0.701340   -3.281064
    105          1           0        6.620844    1.449324    0.024931
    106          1           0        6.492001   -0.134566    0.648908
    107          1           0        7.188471   -1.383761   -1.182459
    108          1           0        7.750393    0.193547   -2.095167
    109          1           0        8.847326    1.144284   -0.261361
    110          1           0        8.835532   -0.422250    0.764026
    111          1           0       10.448153    0.266731   -1.868910
    112          1           0        9.314812   -2.236062   -2.050131
    113          1           0       11.061481   -2.492283   -1.765963
    114          1           0        9.762337   -2.468046   -0.500700
    115          1           0       11.315845    0.850546    0.253755
    116          1           0       11.422482   -0.828883    0.808067
    117          1           0       12.818129   -1.356648   -1.063234
    118          1           0       12.833522    0.116049   -1.656446
    119          1           0       13.906527    1.278013    0.395152
    120          1           0       13.803709   -0.501355    1.113985
    121          1           0       15.598392    0.402148   -1.208373
    122          1           0       15.654241   -2.193886    0.229892
    123          1           0       14.668923   -2.201924   -1.227283
    124          1           0       16.383521   -1.920836   -1.265489
    125          1           0       16.353191    1.464335    0.988626
    126          1           0       16.388370   -0.416704    1.439843
    127          1           0       18.306629   -0.599681   -0.249254
    128          1           0       17.589117    0.917141   -0.992350
    129          1           0       18.438759    2.327761    0.974932
    130          1           0       18.961850    0.703402    1.781857
    131          1           0       20.790613    0.184501    0.286678
    132          1           0       19.836829    2.971423   -0.911719
    133          1           0       21.522715    2.319243   -1.310829
    134          1           0       19.695399    1.532500   -1.823701
    135          1           0       21.073014    1.564798    2.173834
    136          1           0       22.162134    1.935337    0.815060
    137          1           0       21.028311    2.870960    1.277991
 ---------------------------------------------------------------------

 SCF Done:  E(RCAM-B3LYP) =  -2932.63186641     A.U. after   17 cycles

 Excitation energies and oscillator strengths:

 Excited State   1:      Singlet-A      2.0210 eV  613.48 nm  f=0.3109  <S**2>=0.000
     240 -> 243       -0.22623
     241 -> 242        0.66317
 This state for optimization and/or second-order correction.
 Total Energy, E(TD-HF/TD-KS) =  -2932.55759594
 Copying the excited state density for this state as the 1-particle RhoCI density.

 The electronic state is 1-A.
 Alpha  occ. eigenvalues --  -46.84513 -19.25369 -19.23298 -19.20361 -19.19976
 Alpha  occ. eigenvalues --  -19.19173 -14.41531 -14.39300 -14.39139 -14.38342
 Alpha  occ. eigenvalues --  -10.38385 -10.37253 -10.34355 -10.32291 -10.31842
 Alpha  occ. eigenvalues --  -10.30595 -10.30419 -10.30404 -10.29906 -10.29222
 Alpha  occ. eigenvalues --  -10.29059 -10.28876 -10.28817 -10.28744 -10.28385
 Alpha  occ. eigenvalues --  -10.28307 -10.28029 -10.27895 -10.27837 -10.27799
 Alpha  occ. eigenvalues --  -10.27676 -10.27609 -10.27394 -10.27362 -10.27261
 Alpha  occ. eigenvalues --  -10.27257 -10.26949 -10.26816 -10.26811 -10.26774
 Alpha  occ. eigenvalues --  -10.26746 -10.26652 -10.26623 -10.26482 -10.26342
 Alpha  occ. eigenvalues --  -10.26223 -10.26174 -10.26147 -10.26136 -10.26110
 Alpha  occ. eigenvalues --  -10.26097 -10.25945 -10.25940 -10.25918 -10.25894
 Alpha  occ. eigenvalues --  -10.25811 -10.25779 -10.25246 -10.25224 -10.25088
 Alpha  occ. eigenvalues --  -10.24272 -10.24171 -10.24151 -10.23858 -10.21329
 Alpha  occ. eigenvalues --   -3.13482  -1.88200  -1.87750  -1.87620  -1.18968
 Alpha  occ. eigenvalues --   -1.16272  -1.13560  -1.10083  -1.06573  -1.05410
 Alpha  occ. eigenvalues --   -1.04634  -1.03305  -1.02694  -0.92299  -0.91917
 Alpha  occ. eigenvalues --   -0.91789  -0.90739  -0.90350  -0.89929  -0.89032
 Alpha  occ. eigenvalues --   -0.88883  -0.88284  -0.87805  -0.87236  -0.86575
 Alpha  occ. eigenvalues --   -0.85634  -0.84406  -0.83733  -0.83167  -0.82467
 Alpha  occ. eigenvalues --   -0.81998  -0.81170  -0.80706  -0.79940  -0.78254
 Alpha  occ. eigenvalues --   -0.78005  -0.77116  -0.76656  -0.75836  -0.75523
 Alpha  occ. eigenvalues --   -0.74968  -0.74785  -0.74504  -0.73091  -0.71951
 Alpha  occ. eigenvalues --   -0.71460  -0.70208  -0.69596  -0.69007  -0.67914
 Alpha  occ. eigenvalues --   -0.67262  -0.66533  -0.65532  -0.64799  -0.64752
 Alpha  occ. eigenvalues --   -0.63513  -0.63381  -0.62599  -0.62423  -0.61295
 Alpha  occ. eigenvalues --   -0.60969  -0.60833  -0.60131  -0.59992  -0.59113
 Alpha  occ. eigenvalues --   -0.58163  -0.58034  -0.57649  -0.57548  -0.57328
 Alpha  occ. eigenvalues --   -0.56114  -0.55599  -0.55258  -0.55098  -0.54716
 Alpha  occ. eigenvalues --   -0.54493  -0.53977  -0.53709  -0.53326  -0.53163
 Alpha  occ. eigenvalues --   -0.53007  -0.52837  -0.52564  -0.52387  -0.51976
 Alpha  occ. eigenvalues --   -0.51733  -0.51437  -0.51206  -0.51188  -0.50793
 Alpha  occ. eigenvalues --   -0.50536  -0.50204  -0.50139  -0.49937  -0.49613
 Alpha  occ. eigenvalues --   -0.49291  -0.49202  -0.48873  -0.48682  -0.48561
 Alpha  occ. eigenvalues --   -0.48303  -0.48111  -0.47973  -0.47760  -0.47613
 Alpha  occ. eigenvalues --   -0.46954  -0.46857  -0.46365  -0.46062  -0.45743
 Alpha  occ. eigenvalues --   -0.45676  -0.45487  -0.45374  -0.45181  -0.44983
 Alpha  occ. eigenvalues --   -0.44921  -0.44630  -0.44593  -0.44377  -0.44258
 Alpha  occ. eigenvalues --   -0.44049  -0.43939  -0.43673  -0.43338  -0.42880
 Alpha  occ. eigenvalues --   -0.42855  -0.42740  -0.42544  -0.42322  -0.42165
 Alpha  occ. eigenvalues --   -0.42072  -0.41948  -0.41938  -0.41617  -0.41399
 Alpha  occ. eigenvalues --   -0.40968  -0.40745  -0.40396  -0.40100  -0.40040
 Alpha  occ. eigenvalues --   -0.39842  -0.39446  -0.39207  -0.39176  -0.38936
 Alpha  occ. eigenvalues --   -0.38668  -0.38513  -0.38168  -0.37894  -0.37839
 Alpha  occ. eigenvalues --   -0.37561  -0.37366  -0.37017  -0.36811  -0.36506
 Alpha  occ. eigenvalues --   -0.36146  -0.35993  -0.35872  -0.35397  -0.35270
 Alpha  occ. eigenvalues --   -0.34714  -0.34271  -0.33984  -0.33053  -0.32744
 Alpha  occ. eigenvalues --   -0.32424  -0.32223  -0.32103  -0.30914  -0.29356
 Alpha  occ. eigenvalues --   -0.29273  -0.29023  -0.28231  -0.27720  -0.23111
 Alpha  occ. eigenvalues --   -0.20943
 Alpha virt. eigenvalues --   -0.06684  -0.02177   0.01847   0.03993   0.04090
 Alpha virt. eigenvalues --    0.05646   0.06343   0.06874   0.07449   0.08487
 Alpha virt. eigenvalues --    0.08983   0.10545   0.11210   0.11357   0.11397

 Mulliken charges:
               1
     1  Mg   0.812518
     2  C    0.016924
     3  C   -0.206571
     4  C   -0.162782
     5  C   -0.215036
     6  N   -0.617529
     7  C    0.315268
     8  C   -0.151496
     9  C   -0.138931
    10  C    0.308616
    11  C   -0.308899
    12  C   -0.158192
    13  C   -0.269711
    14  C    0.578228
    15  O   -0.446857
    16  O   -0.485413
    17  N   -0.700390
    18  C    0.300633
    19  C    0.048150
    20  C   -0.016417
    21  C    0.290921
    22  C   -0.374445
    23  C   -0.124292
    24  C   -0.243235
    25  N   -0.707840
    26  C    0.307165
    27  C    0.029768
    28  C    0.055059
    29  C    0.377409
    30  C   -0.387158
    31  C   -0.255216
    32  C   -0.296193
    33  N   -0.755186
    34  C    0.246617
    35  C    0.008351
    36  C   -0.032729
    37  C    0.383108
    38  C   -0.375115
    39  C    0.349564
    40  O   -0.429719
    41  C   -0.320435
    42  C    0.630840
    43  O   -0.474641
    44  O   -0.507758
    45  C   -0.057424
    46  C    0.031874
    47  C   -0.122168
    48  C    0.118608
    49  C   -0.367991
    50  C   -0.214776
    51  C   -0.163075
    52  C   -0.179975
    53  C   -0.055859
    54  C   -0.313221
    55  C   -0.165933
    56  C   -0.199924
    57  C   -0.145694
    58  C   -0.067583
    59  C   -0.324501
    60  C   -0.156585
    61  C   -0.174898
    62  C   -0.157663
    63  C    0.007583
    64  C   -0.304793
    65  C   -0.289620
    66  H    0.078639
    67  H    0.086221
    68  H    0.087985
    69  H    0.138615
    70  H    0.109141
    71  H    0.111649
    72  H    0.111384
    73  H    0.128638
    74  H    0.120447
    75  H    0.124603
    76  H    0.105996
    77  H    0.136369
    78  H    0.105625
    79  H    0.136343
    80  H    0.111396
    81  H    0.111767
    82  H    0.103153
    83  H    0.113246
    84  H    0.126657
    85  H    0.096479
    86  H    0.124095
    87  H    0.102531
    88  H    0.107363
    89  H    0.105978
    90  H    0.088897
    91  H    0.101828
    92  H    0.139918
    93  H    0.129900
    94  H    0.144891
    95  H    0.161840
    96  H    0.139169
    97  H    0.123566
    98  H    0.111946
    99  H    0.117225
   100  H    0.123400
   101  H    0.100403
   102  H    0.105463
   103  H    0.123233
   104  H    0.110168
   105  H    0.105767
   106  H    0.087610
   107  H    0.074234
   108  H    0.088937
   109  H    0.081826
   110  H    0.101958
   111  H    0.076880
   112  H    0.098484
   113  H    0.107586
   114  H    0.103058
   115  H    0.097351
   116  H    0.091521
   117  H    0.077903
   118  H    0.092371
   119  H    0.074034
   120  H    0.086430
   121  H    0.080365
   122  H    0.098494
   123  H    0.099607
   124  H    0.117178
   125  H    0.059293
   126  H    0.097711
   127  H    0.098336
   128  H    0.093635
   129  H    0.037110
   130  H    0.075880
   131  H    0.011538
   132  H    0.092399
   133  H    0.074324
   134  H    0.110161
   135  H    0.096982
   136  H    0.111968
   137  H    0.099566
 Sum of Mulliken charges =   0.00000

 Dipole moment (field-independent basis, Debye):
    X=              1.1625    Y=              5.2074    Z=              0.2088  Tot=              5.3397
 Quadrupole moment (field-independent basis, Debye-Ang):
   XX=           -352.2690   YY=           -393.6054   ZZ=           -397.2081
   XY=            -24.4935   XZ=              8.8133   YZ=              1.0737

 Normal termination of Gaussian 09 at Tue Jul  2 11:19:10 2019.
