 Gaussian 09, Revision D.01,
 Gaussian 09:  ES64L-G09RevD.01 24-Apr-2013

 -------------------------------------
 # td=(NStates=1) CAM-B3LYP/6-31G(d,p)
 -------------------------------------

 --
 TD
 --
 Symbolic Z-matrix:
 Charge =  0 Multiplicity = 1

                         Standard orientation:
 ---------------------------------------------------------------------
 Center     Atomic      Atomic             Coordinates (Angstroms)
 Number     Number       Type             X           Y           Z
 ---------------------------------------------------------------------
      1         12           0       -7.169281    0.577553    0.049121
      2          6           0       -4.784041   -1.903281    0.485044
      3          6           0       -4.975552    2.903769    1.244505
      4          6           0       -9.346654    3.127382   -0.407590
      5          6           0       -9.425746   -1.782291   -0.973858
      6          7           0       -5.126979    0.421779    0.702619
      7          6           0       -4.305390   -0.666410    0.896498
      8          6           0       -2.875325   -0.311212    1.299765
      9          6           0       -3.061944    1.175459    1.822182
     10          6           0       -4.534574    1.537011    1.241756
     11          6           0       -2.895845    1.237411    3.293890
     12          6           0       -1.872431   -0.536558    0.042314
     13          6           0       -0.476401   -0.305226    0.470650
     14          6           0        0.452986   -0.495068   -0.660607
     15          8           0        0.198137   -0.985087   -1.725103
     16          8           0        1.727061   -0.304254   -0.186895
     17          7           0       -7.226157    2.569467    0.340111
     18          6           0       -6.206777    3.380814    0.842593
     19          6           0       -6.553836    4.756073    0.878313
     20          6           0       -7.858279    4.781833    0.347792
     21          6           0       -8.245942    3.444480    0.059681
     22          6           0       -5.701843    5.874098    1.218132
     23          6           0       -8.800114    5.869945    0.125439
     24          6           0       -8.811523    7.053771    0.848061
     25          7           0       -9.197907    0.553153   -0.524102
     26          6           0       -9.876149    1.696680   -0.736654
     27          6           0      -11.160222    1.292791   -1.133732
     28          6           0      -11.127580   -0.031304   -1.419521
     29          6           0       -9.939005   -0.464668   -0.966227
     30          6           0      -12.179213    2.411018   -1.513364
     31          6           0      -12.273336   -0.869207   -1.893863
     32          6           0      -12.292123   -1.142389   -3.396652
     33          7           0       -7.134084   -1.467833   -0.193503
     34          6           0       -8.183265   -2.218235   -0.624854
     35          6           0       -7.665379   -3.631210   -0.598985
     36          6           0       -6.344093   -3.556662   -0.020661
     37          6           0       -6.081771   -2.204255    0.089397
     38          6           0       -8.567384   -4.849679   -0.793786
     39          6           0       -5.195023   -4.365493    0.272903
     40          8           0       -5.047784   -5.554242    0.346271
     41          6           0       -4.068065   -3.230569    0.589529
     42          6           0       -3.450704   -3.626516    1.953811
     43          8           0       -3.665586   -3.125140    3.054572
     44          8           0       -2.583217   -4.607931    1.841643
     45          6           0       -1.922063   -5.194638    3.028074
     46          6           0        2.818682   -0.576803   -1.220395
     47          6           0        4.078770   -0.297096   -0.524806
     48          6           0        5.101717    0.399432   -1.074604
     49          6           0        5.006070    1.097210   -2.348505
     50          6           0        6.386965    0.484184   -0.256190
     51          6           0        7.603253   -0.216464   -0.893960
     52          6           0        8.881338   -0.190642   -0.054470
     53          6           0       10.158164   -0.549177   -0.848297
     54          6           0       10.185004   -2.013556   -1.258345
     55          6           0       11.432715   -0.372964    0.166823
     56          6           0       12.801133   -0.637576   -0.481511
     57          6           0       13.965767   -0.214477    0.236652
     58          6           0       15.325022   -0.187273   -0.501801
     59          6           0       15.672321   -1.714631   -0.848025
     60          6           0       16.459556    0.323134    0.405488
     61          6           0       17.773487    0.544642   -0.266796
     62          6           0       18.789538    1.287680    0.637138
     63          6           0       20.265476    1.480023    0.181423
     64          6           0       20.266678    2.279627   -1.186677
     65          6           0       21.217607    2.149780    1.145334
     66          1           0       -4.329707    3.720271    1.776865
     67          1           0      -10.265111    3.879105   -0.340115
     68          1           0      -10.035009   -2.576543   -1.286221
     69          1           0       -2.524895   -0.747498    2.269316
     70          1           0       -2.453452    1.886486    1.034667
     71          1           0       -2.002856    0.893593    3.587148
     72          1           0       -3.094668    2.236288    3.571759
     73          1           0       -3.844437    0.881685    3.719442
     74          1           0       -2.254107   -1.615168   -0.276491
     75          1           0       -2.313234    0.389739   -0.595652
     76          1           0       -0.278954    0.602976    0.901372
     77          1           0       -0.124660   -1.202518    1.202022
     78          1           0       -5.967575    6.710081    0.614299
     79          1           0       -5.818487    6.298991    2.201016
     80          1           0       -4.726686    5.785530    1.046771
     81          1           0       -9.538554    5.911710   -0.595276
     82          1           0       -9.410285    7.845071    0.510502
     83          1           0       -8.018387    7.178031    1.581845
     84          1           0      -12.040029    2.858608   -2.426793
     85          1           0      -13.308154    2.252920   -1.718289
     86          1           0      -12.258998    3.143723   -0.846159
     87          1           0      -12.210269   -1.923919   -1.432362
     88          1           0      -13.213944   -0.602636   -1.545473
     89          1           0      -13.058049   -1.893756   -3.677573
     90          1           0      -12.226040   -0.300485   -3.995536
     91          1           0      -11.295070   -1.602216   -3.748953
     92          1           0       -8.855341   -5.020111   -1.787008
     93          1           0       -7.966396   -5.782326   -0.551270
     94          1           0       -9.536266   -4.579193   -0.166184
     95          1           0       -3.271293   -3.449488   -0.249443
     96          1           0       -1.498499   -4.367620    3.662653
     97          1           0       -2.703436   -5.793131    3.808158
     98          1           0       -1.130602   -5.955045    2.627610
     99          1           0        2.784439   -1.709676   -1.418175
    100          1           0        2.488282   -0.000789   -2.135390
    101          1           0        4.145600   -0.809299    0.565989
    102          1           0        4.204858    1.364112   -2.980724
    103          1           0        5.541456    2.197388   -2.568029
    104          1           0        5.556903    0.550213   -3.224064
    105          1           0        6.797544    1.509922   -0.221649
    106          1           0        6.194853   -0.037313    0.720714
    107          1           0        7.173074   -1.329589   -1.235939
    108          1           0        7.723885    0.396917   -1.825274
    109          1           0        9.112155    0.776010    0.392337
    110          1           0        8.483278   -0.832105    0.966615
    111          1           0       10.264141    0.126569   -1.721633
    112          1           0        9.580600   -2.153095   -2.540862
    113          1           0       11.279016   -2.441676   -1.521125
    114          1           0        9.765167   -2.695141   -0.467866
    115          1           0       11.307823    0.589439    0.728108
    116          1           0       11.385635   -0.959779    1.237005
    117          1           0       12.733727   -1.815997   -0.745506
    118          1           0       12.857317   -0.108898   -1.466979
    119          1           0       13.957745    0.959047    0.656827
    120          1           0       14.230481   -0.932102    0.978864
    121          1           0       15.398503    0.501491   -1.456982
    122          1           0       15.735612   -2.459931   -0.039955
    123          1           0       14.961214   -2.307960   -1.541289
    124          1           0       16.579096   -1.695842   -1.385871
    125          1           0       16.314635    1.439658    0.859124
    126          1           0       16.552653   -0.318172    1.241794
    127          1           0       18.311289   -0.440458   -0.419055
    128          1           0       17.699859    1.102605   -1.248941
    129          1           0       18.351910    2.313178    0.719858
    130          1           0       18.689818    1.034979    1.682276
    131          1           0       20.676165    0.370567   -0.048130
    132          1           0       19.952816    3.335397   -1.003430
    133          1           0       21.134618    2.421618   -1.849880
    134          1           0       19.537426    1.868458   -1.734359
    135          1           0       21.338804    1.745559    2.180573
    136          1           0       22.179913    2.090561    0.687056
    137          1           0       20.881539    3.041300    1.287401
 ---------------------------------------------------------------------

 SCF Done:  E(RCAM-B3LYP) =  -2932.61624796     A.U. after   17 cycles

 Excitation energies and oscillator strengths:

 Excited State   1:      Singlet-A      2.2978 eV  539.57 nm  f=0.1018  <S**2>=0.000
     240 -> 242       -0.16467
     240 -> 243        0.32961
     241 -> 242        0.56740
     241 -> 243        0.16897
 This state for optimization and/or second-order correction.
 Total Energy, E(TD-HF/TD-KS) =  -2932.53180384
 Copying the excited state density for this state as the 1-particle RhoCI density.

 The electronic state is 1-A.
 Alpha  occ. eigenvalues --  -46.84373 -19.25873 -19.24840 -19.20634 -19.20586
 Alpha  occ. eigenvalues --  -19.19145 -14.41945 -14.38967 -14.38681 -14.37961
 Alpha  occ. eigenvalues --  -10.38577 -10.38150 -10.35026 -10.33941 -10.32547
 Alpha  occ. eigenvalues --  -10.32423 -10.30900 -10.30279 -10.29531 -10.28993
 Alpha  occ. eigenvalues --  -10.28868 -10.28800 -10.28585 -10.28414 -10.28377
 Alpha  occ. eigenvalues --  -10.28284 -10.28264 -10.27971 -10.27864 -10.27680
 Alpha  occ. eigenvalues --  -10.27672 -10.27574 -10.27556 -10.27534 -10.27487
 Alpha  occ. eigenvalues --  -10.27486 -10.27438 -10.27410 -10.27338 -10.27329
 Alpha  occ. eigenvalues --  -10.27064 -10.27015 -10.26893 -10.26884 -10.26638
 Alpha  occ. eigenvalues --  -10.26527 -10.26400 -10.26379 -10.26183 -10.26136
 Alpha  occ. eigenvalues --  -10.25786 -10.25710 -10.25685 -10.25471 -10.25016
 Alpha  occ. eigenvalues --  -10.24981 -10.24880 -10.24838 -10.24727 -10.24720
 Alpha  occ. eigenvalues --  -10.24442 -10.23887 -10.23859 -10.23766 -10.22910
 Alpha  occ. eigenvalues --   -3.13292  -1.88016  -1.87515  -1.87468  -1.17550
 Alpha  occ. eigenvalues --   -1.16493  -1.11853  -1.08172  -1.06731  -1.04990
 Alpha  occ. eigenvalues --   -1.04203  -1.03717  -1.02561  -0.92616  -0.91455
 Alpha  occ. eigenvalues --   -0.90768  -0.90079  -0.89931  -0.89690  -0.89201
 Alpha  occ. eigenvalues --   -0.88126  -0.87687  -0.87238  -0.87053  -0.86003
 Alpha  occ. eigenvalues --   -0.85438  -0.84484  -0.83681  -0.83159  -0.82675
 Alpha  occ. eigenvalues --   -0.81390  -0.80940  -0.80478  -0.80008  -0.79302
 Alpha  occ. eigenvalues --   -0.78453  -0.78172  -0.76803  -0.75943  -0.75828
 Alpha  occ. eigenvalues --   -0.75325  -0.74768  -0.73783  -0.72744  -0.72311
 Alpha  occ. eigenvalues --   -0.71530  -0.70094  -0.69592  -0.68765  -0.68423
 Alpha  occ. eigenvalues --   -0.67145  -0.65689  -0.64970  -0.63964  -0.63630
 Alpha  occ. eigenvalues --   -0.63404  -0.63011  -0.62585  -0.61971  -0.61748
 Alpha  occ. eigenvalues --   -0.61570  -0.61138  -0.60941  -0.60313  -0.59617
 Alpha  occ. eigenvalues --   -0.58882  -0.58277  -0.57481  -0.57157  -0.56405
 Alpha  occ. eigenvalues --   -0.55965  -0.55621  -0.55141  -0.54811  -0.54481
 Alpha  occ. eigenvalues --   -0.54112  -0.53587  -0.53311  -0.52956  -0.52800
 Alpha  occ. eigenvalues --   -0.52626  -0.52084  -0.52015  -0.51853  -0.51457
 Alpha  occ. eigenvalues --   -0.51338  -0.51084  -0.50890  -0.50827  -0.50573
 Alpha  occ. eigenvalues --   -0.50407  -0.50257  -0.49914  -0.49871  -0.49578
 Alpha  occ. eigenvalues --   -0.49386  -0.48903  -0.48696  -0.48539  -0.48449
 Alpha  occ. eigenvalues --   -0.48259  -0.48033  -0.47754  -0.47534  -0.47000
 Alpha  occ. eigenvalues --   -0.46890  -0.46719  -0.46551  -0.46283  -0.46194
 Alpha  occ. eigenvalues --   -0.45603  -0.45425  -0.45342  -0.44960  -0.44848
 Alpha  occ. eigenvalues --   -0.44793  -0.44465  -0.44384  -0.44310  -0.44005
 Alpha  occ. eigenvalues --   -0.43868  -0.43655  -0.43343  -0.43075  -0.43026
 Alpha  occ. eigenvalues --   -0.42957  -0.42795  -0.42673  -0.42327  -0.41951
 Alpha  occ. eigenvalues --   -0.41833  -0.41769  -0.41550  -0.41380  -0.41109
 Alpha  occ. eigenvalues --   -0.40988  -0.40966  -0.40531  -0.40460  -0.40130
 Alpha  occ. eigenvalues --   -0.40118  -0.39845  -0.39637  -0.38901  -0.38783
 Alpha  occ. eigenvalues --   -0.38668  -0.38278  -0.38007  -0.37740  -0.37694
 Alpha  occ. eigenvalues --   -0.37124  -0.36965  -0.36794  -0.36619  -0.36456
 Alpha  occ. eigenvalues --   -0.36097  -0.35723  -0.35588  -0.35534  -0.35150
 Alpha  occ. eigenvalues --   -0.35121  -0.34863  -0.34846  -0.33728  -0.33427
 Alpha  occ. eigenvalues --   -0.33184  -0.32779  -0.32233  -0.30304  -0.29746
 Alpha  occ. eigenvalues --   -0.29382  -0.28978  -0.27951  -0.27538  -0.23329
 Alpha  occ. eigenvalues --   -0.21911
 Alpha virt. eigenvalues --   -0.05462  -0.04326   0.01326   0.03879   0.05092
 Alpha virt. eigenvalues --    0.05865   0.06523   0.06746   0.07148   0.07686
 Alpha virt. eigenvalues --    0.08684   0.10243   0.10602   0.11712   0.11865

 Mulliken charges:
               1
     1  Mg   0.811952
     2  C    0.054239
     3  C   -0.241428
     4  C   -0.260676
     5  C   -0.140317
     6  N   -0.619510
     7  C    0.316297
     8  C   -0.165295
     9  C   -0.145173
    10  C    0.312110
    11  C   -0.313092
    12  C   -0.143170
    13  C   -0.246103
    14  C    0.608004
    15  O   -0.464594
    16  O   -0.517936
    17  N   -0.758817
    18  C    0.339553
    19  C    0.043329
    20  C    0.019375
    21  C    0.460827
    22  C   -0.395628
    23  C   -0.104610
    24  C   -0.232347
    25  N   -0.681929
    26  C    0.257986
    27  C   -0.022679
    28  C    0.034078
    29  C    0.305016
    30  C   -0.381105
    31  C   -0.231800
    32  C   -0.313174
    33  N   -0.748166
    34  C    0.300120
    35  C   -0.015289
    36  C    0.012159
    37  C    0.326860
    38  C   -0.376531
    39  C    0.357401
    40  O   -0.444646
    41  C   -0.364581
    42  C    0.619364
    43  O   -0.501008
    44  O   -0.436409
    45  C   -0.072800
    46  C    0.012759
    47  C   -0.142212
    48  C    0.175379
    49  C   -0.397493
    50  C   -0.223712
    51  C   -0.172051
    52  C   -0.156565
    53  C   -0.044583
    54  C   -0.257397
    55  C   -0.187600
    56  C   -0.156234
    57  C   -0.137521
    58  C   -0.074284
    59  C   -0.335104
    60  C   -0.151931
    61  C   -0.172339
    62  C   -0.191288
    63  C   -0.057596
    64  C   -0.319275
    65  C   -0.295696
    66  H    0.082620
    67  H    0.097406
    68  H    0.090255
    69  H    0.122476
    70  H    0.082511
    71  H    0.129835
    72  H    0.113500
    73  H    0.135511
    74  H    0.121523
    75  H    0.099989
    76  H    0.142071
    77  H    0.135197
    78  H    0.131933
    79  H    0.128177
    80  H    0.128043
    81  H    0.104776
    82  H    0.108132
    83  H    0.098049
    84  H    0.127709
    85  H    0.085625
    86  H    0.117731
    87  H    0.082838
    88  H    0.117005
    89  H    0.100314
    90  H    0.119610
    91  H    0.087340
    92  H    0.135177
    93  H    0.144204
    94  H    0.120641
    95  H    0.154674
    96  H    0.136876
    97  H    0.114071
    98  H    0.129099
    99  H    0.128540
   100  H    0.135796
   101  H    0.101190
   102  H    0.136963
   103  H    0.087811
   104  H    0.111912
   105  H    0.102298
   106  H    0.093339
   107  H    0.076998
   108  H    0.087360
   109  H    0.098878
   110  H    0.062855
   111  H    0.106657
   112  H    0.024967
   113  H    0.089893
   114  H    0.115764
   115  H    0.086167
   116  H    0.066782
   117  H    0.084114
   118  H    0.088915
   119  H    0.064812
   120  H    0.095468
   121  H    0.071015
   122  H    0.104281
   123  H    0.090147
   124  H    0.114180
   125  H    0.061155
   126  H    0.101638
   127  H    0.090200
   128  H    0.094180
   129  H    0.077045
   130  H    0.094724
   131  H    0.058708
   132  H    0.091370
   133  H    0.100597
   134  H    0.111903
   135  H    0.087999
   136  H    0.109602
   137  H    0.113746
 Sum of Mulliken charges =   0.00000

 Dipole moment (field-independent basis, Debye):
    X=              3.0431    Y=              5.4494    Z=              0.1833  Tot=              6.2442
 Quadrupole moment (field-independent basis, Debye-Ang):
   XX=           -362.1161   YY=           -382.7798   ZZ=           -395.7709
   XY=            -23.9850   XZ=             12.3004   YZ=             -1.4417

 Normal termination of Gaussian 09 at Sat Jul  6 20:54:48 2019.
