 Gaussian 09, Revision D.01,
 Gaussian 09:  ES64L-G09RevD.01 24-Apr-2013

 -------------------------------------
 # td=(NStates=1) CAM-B3LYP/6-31G(d,p)
 -------------------------------------

 --
 TD
 --
 Symbolic Z-matrix:
 Charge =  0 Multiplicity = 1

                         Standard orientation:
 ---------------------------------------------------------------------
 Center     Atomic      Atomic             Coordinates (Angstroms)
 Number     Number       Type             X           Y           Z
 ---------------------------------------------------------------------
      1         12           0       -7.102334    0.647734    0.144189
      2          6           0       -4.818059   -2.008782    0.571051
      3          6           0       -4.808280    2.772984    1.187437
      4          6           0       -9.415944    3.117113   -0.549334
      5          6           0       -9.519061   -1.663177   -0.871821
      6          7           0       -5.178141    0.402418    0.699930
      7          6           0       -4.387493   -0.732494    0.853419
      8          6           0       -2.984964   -0.345061    1.152151
      9          6           0       -2.974273    1.011917    1.585744
     10          6           0       -4.398708    1.521502    1.174675
     11          6           0       -2.845073    1.176684    3.147979
     12          6           0       -2.064802   -0.642459    0.039624
     13          6           0       -0.484995   -0.473506    0.483526
     14          6           0        0.533047   -0.786844   -0.553282
     15          8           0        0.268356   -1.111834   -1.713638
     16          8           0        1.795606   -0.536427   -0.132984
     17          7           0       -7.083247    2.564518    0.322557
     18          6           0       -6.025511    3.298215    0.731264
     19          6           0       -6.420472    4.690072    0.803466
     20          6           0       -7.792830    4.760181    0.327964
     21          6           0       -8.156326    3.396706    0.018259
     22          6           0       -5.548713    5.883576    1.179467
     23          6           0       -8.476894    6.041987    0.192574
     24          6           0       -8.412774    7.178820    1.010725
     25          7           0       -9.101135    0.753321   -0.531525
     26          6           0       -9.897352    1.873986   -0.637023
     27          6           0      -11.207603    1.451073   -1.179058
     28          6           0      -11.269745    0.164091   -1.341820
     29          6           0       -9.891745   -0.327711   -0.946724
     30          6           0      -12.285061    2.526231   -1.467365
     31          6           0      -12.334446   -0.746568   -1.771421
     32          6           0      -12.201604   -1.014655   -3.267548
     33          7           0       -7.125849   -1.397568   -0.258466
     34          6           0       -8.199979   -2.229014   -0.569773
     35          6           0       -7.817498   -3.615046   -0.616013
     36          6           0       -6.499719   -3.501463   -0.321963
     37          6           0       -6.087108   -2.187012    0.070814
     38          6           0       -8.658929   -4.877770   -0.884764
     39          6           0       -5.311243   -4.292033    0.187599
     40          8           0       -5.115356   -5.562649    0.186945
     41          6           0       -4.178136   -3.330974    0.680424
     42          6           0       -3.503496   -3.700009    1.990720
     43          8           0       -3.719741   -3.014400    2.993441
     44          8           0       -2.743319   -4.689449    1.839215
     45          6           0       -2.101208   -5.230059    2.983031
     46          6           0        2.764492   -0.763811   -1.207207
     47          6           0        4.056082   -0.428052   -0.527563
     48          6           0        5.004095    0.330948   -0.883583
     49          6           0        4.908070    1.233605   -2.077866
     50          6           0        6.324591    0.369599   -0.191885
     51          6           0        7.599625   -0.171556   -0.911151
     52          6           0        8.848547   -0.085294   -0.112054
     53          6           0       10.212888   -0.478032   -0.819910
     54          6           0       10.151246   -1.989593   -1.243052
     55          6           0       11.399331   -0.201388    0.078333
     56          6           0       12.761786   -0.308165   -0.680871
     57          6           0       13.954975   -0.003360    0.194564
     58          6           0       15.332054   -0.215211   -0.371411
     59          6           0       15.517756   -1.812934   -0.724811
     60          6           0       16.389211    0.407754    0.451959
     61          6           0       17.820443    0.461794   -0.344349
     62          6           0       18.756543    1.279887    0.616360
     63          6           0       20.341803    1.375382    0.141395
     64          6           0       20.442344    2.162474   -1.289132
     65          6           0       21.234027    1.998781    1.147808
     66          1           0       -4.113862    3.527764    1.417000
     67          1           0      -10.042968    3.873419   -0.724471
     68          1           0      -10.287998   -2.420170   -1.226978
     69          1           0       -2.791800   -0.992635    2.058494
     70          1           0       -2.428511    1.849905    0.976842
     71          1           0       -1.886046    0.932681    3.550260
     72          1           0       -3.062179    2.073911    3.637376
     73          1           0       -3.596469    0.493987    3.641764
     74          1           0       -2.251374   -1.841659   -0.298174
     75          1           0       -2.551185   -0.072299   -0.763345
     76          1           0       -0.241986    0.384838    0.938326
     77          1           0       -0.248534   -1.273195    1.367333
     78          1           0       -5.928399    6.773645    0.702945
     79          1           0       -5.794050    6.182242    2.250066
     80          1           0       -4.433606    5.797335    1.110119
     81          1           0       -9.111897    5.996976   -0.605037
     82          1           0       -9.117272    8.186986    0.985701
     83          1           0       -7.792749    7.321802    1.945796
     84          1           0      -12.211667    2.995818   -2.643187
     85          1           0      -13.152654    1.898324   -1.495497
     86          1           0      -12.479907    3.346317   -0.855679
     87          1           0      -12.599559   -1.697212   -1.190195
     88          1           0      -13.248543   -0.242468   -1.581350
     89          1           0      -12.824388   -1.896695   -3.644108
     90          1           0      -12.179039   -0.155273   -3.964622
     91          1           0      -11.176876   -1.360473   -3.400848
     92          1           0       -9.250621   -4.853325   -1.733908
     93          1           0       -8.062392   -5.897822   -0.866961
     94          1           0       -9.300167   -5.018373   -0.032774
     95          1           0       -3.255219   -3.459151   -0.011769
     96          1           0       -1.618009   -4.378410    3.568111
     97          1           0       -2.989301   -5.603814    3.697644
     98          1           0       -1.544769   -5.971902    2.714235
     99          1           0        2.563380   -1.814418   -1.426427
    100          1           0        2.770539   -0.188656   -2.114928
    101          1           0        4.224117   -1.075128    0.362617
    102          1           0        3.856106    1.390237   -2.217379
    103          1           0        5.654483    2.073949   -1.962114
    104          1           0        5.372592    0.698333   -3.112905
    105          1           0        6.409893    1.333915    0.315082
    106          1           0        6.522247   -0.277100    0.636837
    107          1           0        7.445509   -1.096225   -1.241576
    108          1           0        7.673821    0.427814   -1.803167
    109          1           0        8.747349    0.994199    0.269786
    110          1           0        8.789692   -0.737197    0.846518
    111          1           0       10.464433    0.060573   -1.779478
    112          1           0        9.349923   -2.208811   -1.976558
    113          1           0       10.932251   -2.538953   -1.689954
    114          1           0        9.935517   -2.583483   -0.348876
    115          1           0       11.289756    0.998816    0.593406
    116          1           0       11.666964   -0.913737    0.979931
    117          1           0       12.716439   -1.344753   -1.143644
    118          1           0       12.786681    0.535743   -1.401675
    119          1           0       13.806146    0.953809    0.360421
    120          1           0       13.852626   -0.435272    1.285006
    121          1           0       15.179644    0.417418   -1.278091
    122          1           0       15.626580   -2.453290    0.207025
    123          1           0       14.546584   -2.121911   -1.415533
    124          1           0       16.492924   -1.928019   -1.312744
    125          1           0       16.264860    1.575581    0.573258
    126          1           0       16.701256   -0.034834    1.470393
    127          1           0       18.370594   -0.636506   -0.346803
    128          1           0       18.009621    0.977173   -1.390606
    129          1           0       18.517986    2.180447    1.110887
    130          1           0       18.925688    0.593872    1.598613
    131          1           0       20.697538    0.437608   -0.080748
    132          1           0       20.137013    3.230540   -1.073723
    133          1           0       21.590957    2.016660   -1.453302
    134          1           0       19.814707    1.755545   -2.204126
    135          1           0       21.163759    1.655562    2.248709
    136          1           0       22.130989    1.911209    0.607217
    137          1           0       21.097600    3.014689    1.206492
 ---------------------------------------------------------------------

 SCF Done:  E(RCAM-B3LYP) =  -2932.63491166     A.U. after   18 cycles

 Excitation energies and oscillator strengths:

 Excited State   1:      Singlet-A      1.8425 eV  672.90 nm  f=0.3505  <S**2>=0.000
     240 -> 243        0.18955
     241 -> 242        0.67796
 This state for optimization and/or second-order correction.
 Total Energy, E(TD-HF/TD-KS) =  -2932.56719924
 Copying the excited state density for this state as the 1-particle RhoCI density.

 The electronic state is 1-A.
 Alpha  occ. eigenvalues --  -46.82705 -19.28499 -19.26482 -19.20425 -19.20126
 Alpha  occ. eigenvalues --  -19.19354 -14.41495 -14.39787 -14.39183 -14.38876
 Alpha  occ. eigenvalues --  -10.39267 -10.39041 -10.35181 -10.32589 -10.31519
 Alpha  occ. eigenvalues --  -10.30583 -10.30091 -10.29875 -10.29597 -10.29546
 Alpha  occ. eigenvalues --  -10.29270 -10.28912 -10.28880 -10.28647 -10.28528
 Alpha  occ. eigenvalues --  -10.28344 -10.28271 -10.28245 -10.28226 -10.28105
 Alpha  occ. eigenvalues --  -10.27817 -10.27743 -10.27729 -10.27635 -10.27226
 Alpha  occ. eigenvalues --  -10.27218 -10.27067 -10.26978 -10.26849 -10.26760
 Alpha  occ. eigenvalues --  -10.26713 -10.26700 -10.26671 -10.26668 -10.26470
 Alpha  occ. eigenvalues --  -10.26323 -10.26308 -10.26252 -10.26196 -10.26166
 Alpha  occ. eigenvalues --  -10.26028 -10.25996 -10.25679 -10.25662 -10.25464
 Alpha  occ. eigenvalues --  -10.25442 -10.25389 -10.25282 -10.25141 -10.24810
 Alpha  occ. eigenvalues --  -10.24713 -10.24529 -10.24244 -10.23645 -10.23621
 Alpha  occ. eigenvalues --   -3.12063  -1.86750  -1.86305  -1.86267  -1.22393
 Alpha  occ. eigenvalues --   -1.17822  -1.09076  -1.07988  -1.06539  -1.03973
 Alpha  occ. eigenvalues --   -1.03151  -1.02381  -1.01581  -0.92776  -0.92174
 Alpha  occ. eigenvalues --   -0.90656  -0.90477  -0.90133  -0.89023  -0.88972
 Alpha  occ. eigenvalues --   -0.87671  -0.87635  -0.87605  -0.86657  -0.86236
 Alpha  occ. eigenvalues --   -0.85534  -0.84954  -0.83957  -0.82957  -0.82445
 Alpha  occ. eigenvalues --   -0.82253  -0.81261  -0.80055  -0.79426  -0.78675
 Alpha  occ. eigenvalues --   -0.77870  -0.77070  -0.76446  -0.76095  -0.75490
 Alpha  occ. eigenvalues --   -0.74870  -0.74419  -0.73703  -0.73371  -0.73084
 Alpha  occ. eigenvalues --   -0.72032  -0.71123  -0.70133  -0.69285  -0.68027
 Alpha  occ. eigenvalues --   -0.67546  -0.66505  -0.65659  -0.64970  -0.64459
 Alpha  occ. eigenvalues --   -0.63963  -0.63596  -0.63037  -0.62913  -0.62486
 Alpha  occ. eigenvalues --   -0.61599  -0.61087  -0.60119  -0.59531  -0.59337
 Alpha  occ. eigenvalues --   -0.58681  -0.58310  -0.57849  -0.57581  -0.57305
 Alpha  occ. eigenvalues --   -0.57287  -0.56426  -0.55414  -0.55133  -0.55044
 Alpha  occ. eigenvalues --   -0.54897  -0.54410  -0.54064  -0.53324  -0.53005
 Alpha  occ. eigenvalues --   -0.52502  -0.51978  -0.51921  -0.51449  -0.51237
 Alpha  occ. eigenvalues --   -0.50988  -0.50702  -0.50599  -0.50351  -0.50220
 Alpha  occ. eigenvalues --   -0.50046  -0.49712  -0.49678  -0.49393  -0.49313
 Alpha  occ. eigenvalues --   -0.49125  -0.48915  -0.48538  -0.48271  -0.48080
 Alpha  occ. eigenvalues --   -0.48018  -0.47742  -0.47280  -0.47229  -0.46907
 Alpha  occ. eigenvalues --   -0.46772  -0.46399  -0.46368  -0.46174  -0.45990
 Alpha  occ. eigenvalues --   -0.45808  -0.45539  -0.45419  -0.44928  -0.44866
 Alpha  occ. eigenvalues --   -0.44755  -0.44425  -0.44306  -0.44149  -0.43977
 Alpha  occ. eigenvalues --   -0.43731  -0.43550  -0.43416  -0.43261  -0.43103
 Alpha  occ. eigenvalues --   -0.42976  -0.42918  -0.42731  -0.42544  -0.42425
 Alpha  occ. eigenvalues --   -0.42325  -0.41955  -0.41716  -0.41594  -0.41254
 Alpha  occ. eigenvalues --   -0.41148  -0.41044  -0.40620  -0.40270  -0.40133
 Alpha  occ. eigenvalues --   -0.39877  -0.39591  -0.39380  -0.39339  -0.38785
 Alpha  occ. eigenvalues --   -0.38648  -0.38355  -0.37934  -0.37909  -0.37819
 Alpha  occ. eigenvalues --   -0.37602  -0.37400  -0.37110  -0.36431  -0.36348
 Alpha  occ. eigenvalues --   -0.36178  -0.36148  -0.35838  -0.35776  -0.35591
 Alpha  occ. eigenvalues --   -0.35245  -0.34581  -0.34043  -0.33583  -0.33300
 Alpha  occ. eigenvalues --   -0.33032  -0.32640  -0.31723  -0.31366  -0.30537
 Alpha  occ. eigenvalues --   -0.29851  -0.29282  -0.28828  -0.26518  -0.23306
 Alpha  occ. eigenvalues --   -0.20806
 Alpha virt. eigenvalues --   -0.07388  -0.02012   0.02181   0.03584   0.05652
 Alpha virt. eigenvalues --    0.06007   0.06550   0.06822   0.06939   0.07275
 Alpha virt. eigenvalues --    0.07972   0.10655   0.11076   0.11217   0.11726

 Mulliken charges:
               1
     1  Mg   0.818154
     2  C    0.146460
     3  C   -0.184090
     4  C   -0.117278
     5  C   -0.183985
     6  N   -0.655875
     7  C    0.292611
     8  C   -0.160182
     9  C   -0.126918
    10  C    0.320945
    11  C   -0.327564
    12  C   -0.141695
    13  C   -0.260351
    14  C    0.611840
    15  O   -0.487344
    16  O   -0.481041
    17  N   -0.763570
    18  C    0.320977
    19  C    0.006167
    20  C   -0.020480
    21  C    0.307930
    22  C   -0.384853
    23  C   -0.078355
    24  C   -0.254178
    25  N   -0.659854
    26  C    0.290779
    27  C   -0.007478
    28  C    0.076867
    29  C    0.273434
    30  C   -0.361674
    31  C   -0.252575
    32  C   -0.317878
    33  N   -0.719942
    34  C    0.247710
    35  C    0.046039
    36  C   -0.037894
    37  C    0.287741
    38  C   -0.379161
    39  C    0.374040
    40  O   -0.506898
    41  C   -0.333592
    42  C    0.623764
    43  O   -0.504980
    44  O   -0.385915
    45  C   -0.081145
    46  C    0.017140
    47  C   -0.135118
    48  C    0.150275
    49  C   -0.359278
    50  C   -0.256101
    51  C   -0.175089
    52  C   -0.170893
    53  C   -0.052799
    54  C   -0.335046
    55  C   -0.146278
    56  C   -0.188258
    57  C   -0.163230
    58  C   -0.038407
    59  C   -0.308698
    60  C   -0.167524
    61  C   -0.174321
    62  C   -0.183169
    63  C   -0.072015
    64  C   -0.313399
    65  C   -0.303103
    66  H    0.075925
    67  H    0.081197
    68  H    0.093386
    69  H    0.135218
    70  H    0.107138
    71  H    0.110197
    72  H    0.117718
    73  H    0.124467
    74  H    0.080516
    75  H    0.123628
    76  H    0.151123
    77  H    0.117863
    78  H    0.130678
    79  H    0.112504
    80  H    0.110500
    81  H    0.094864
    82  H    0.095795
    83  H    0.107611
    84  H    0.085598
    85  H    0.116754
    86  H    0.132317
    87  H    0.111114
    88  H    0.110579
    89  H    0.096839
    90  H    0.116939
    91  H    0.114786
    92  H    0.131895
    93  H    0.141736
    94  H    0.135427
    95  H    0.154378
    96  H    0.135001
    97  H    0.124220
    98  H    0.138143
    99  H    0.135348
   100  H    0.120632
   101  H    0.081924
   102  H    0.123459
   103  H    0.115906
   104  H    0.089733
   105  H    0.099325
   106  H    0.101796
   107  H    0.111689
   108  H    0.090127
   109  H    0.087621
   110  H    0.084256
   111  H    0.091302
   112  H    0.100644
   113  H    0.112983
   114  H    0.103256
   115  H    0.041227
   116  H    0.083196
   117  H    0.092281
   118  H    0.089734
   119  H    0.102312
   120  H    0.056873
   121  H    0.084479
   122  H    0.104387
   123  H    0.085914
   124  H    0.102566
   125  H    0.089475
   126  H    0.100843
   127  H    0.076897
   128  H    0.088820
   129  H    0.096545
   130  H    0.052291
   131  H    0.098965
   132  H    0.101927
   133  H    0.086254
   134  H    0.095844
   135  H    0.098338
   136  H    0.101936
   137  H    0.109439
 Sum of Mulliken charges =   0.00000

 Dipole moment (field-independent basis, Debye):
    X=              1.3616    Y=              2.9296    Z=              1.1937  Tot=              3.4441
 Quadrupole moment (field-independent basis, Debye-Ang):
   XX=           -337.9196   YY=           -390.2571   ZZ=           -397.5324
   XY=            -14.7305   XZ=              9.2048   YZ=             -3.6175

 Normal termination of Gaussian 09 at Thu Jul  4 18:57:00 2019.
