 Gaussian 16, Revision A.03,
 Gaussian 16:  ES64L-G16RevA.03 25-Dec-2016

 ----------------------------------------------------------------------
 # td=(NStates=1) iop(3/107=0140000000,3/108=0140000000) CAM-B3LYP/6-31
 G(d,p)
 ----------------------------------------------------------------------

 --
 TD
 --
 Symbolic Z-matrix:
 Charge =  0 Multiplicity = 1

                         Standard orientation:
 ---------------------------------------------------------------------
 Center     Atomic      Atomic             Coordinates (Angstroms)
 Number     Number       Type             X           Y           Z
 ---------------------------------------------------------------------
      1         12           0       -7.189448    0.665639    0.057668
      2          6           0       -4.815359   -2.031273    0.473510
      3          6           0       -4.761340    2.897685    0.985741
      4          6           0       -9.377832    3.130706   -0.487935
      5          6           0       -9.503190   -1.683191   -0.882734
      6          7           0       -5.184289    0.404353    0.660890
      7          6           0       -4.371246   -0.745486    0.846036
      8          6           0       -2.975658   -0.428001    1.278557
      9          6           0       -3.124217    0.994986    1.726522
     10          6           0       -4.378405    1.489057    1.110593
     11          6           0       -3.031815    1.231859    3.224804
     12          6           0       -1.901016   -0.599907    0.185580
     13          6           0       -0.436249   -0.309678    0.660562
     14          6           0        0.445345   -0.603644   -0.509715
     15          8           0        0.196148   -0.920285   -1.690557
     16          8           0        1.831253   -0.552405   -0.211426
     17          7           0       -7.082095    2.641059    0.311742
     18          6           0       -5.986186    3.431039    0.681400
     19          6           0       -6.311928    4.824260    0.702302
     20          6           0       -7.702374    4.886181    0.216444
     21          6           0       -8.030811    3.527419   -0.052477
     22          6           0       -5.470819    5.977422    1.100067
     23          6           0       -8.472300    6.094015    0.132030
     24          6           0       -8.258254    7.115574    0.855998
     25          7           0       -9.099143    0.764498   -0.612148
     26          6           0       -9.894333    1.868757   -0.799524
     27          6           0      -11.239211    1.493131   -0.970159
     28          6           0      -11.312128    0.144578   -1.192769
     29          6           0       -9.889171   -0.401299   -0.903651
     30          6           0      -12.296686    2.539360   -1.211310
     31          6           0      -12.460821   -0.833622   -1.516928
     32          6           0      -12.591364   -1.195903   -3.008366
     33          7           0       -7.209576   -1.337246   -0.243384
     34          6           0       -8.208691   -2.272180   -0.708430
     35          6           0       -7.820557   -3.608253   -0.674841
     36          6           0       -6.551027   -3.565969   -0.212375
     37          6           0       -6.169722   -2.191932    0.030253
     38          6           0       -8.577462   -4.767866   -0.980201
     39          6           0       -5.383534   -4.401672    0.108726
     40          8           0       -5.149012   -5.618050    0.017493
     41          6           0       -4.211228   -3.345688    0.621303
     42          6           0       -3.672060   -3.786894    1.877968
     43          8           0       -3.801677   -3.192254    2.945373
     44          8           0       -2.897764   -4.832977    1.707482
     45          6           0       -2.387922   -5.243846    3.019897
     46          6           0        2.827479   -0.782255   -1.159743
     47          6           0        4.100022   -0.538349   -0.555623
     48          6           0        5.071767    0.315793   -0.932154
     49          6           0        5.036914    1.325057   -2.013850
     50          6           0        6.414595    0.444042   -0.104300
     51          6           0        7.675735   -0.083213   -0.951047
     52          6           0        8.964070   -0.003952   -0.139909
     53          6           0       10.206502   -0.456413   -0.827333
     54          6           0       10.171242   -1.933321   -1.100558
     55          6           0       11.438499   -0.166361   -0.035048
     56          6           0       12.766853   -0.355900   -0.680894
     57          6           0       14.023577   -0.158052    0.166467
     58          6           0       15.369912   -0.345267   -0.496103
     59          6           0       15.682200   -1.806961   -0.876651
     60          6           0       16.484837    0.301576    0.403218
     61          6           0       17.858813    0.354848   -0.269947
     62          6           0       18.881016    1.158709    0.691336
     63          6           0       20.286815    1.410397    0.196525
     64          6           0       20.480715    2.221212   -1.111729
     65          6           0       21.184832    1.901529    1.314916
     66          1           0       -3.948080    3.417617    1.476390
     67          1           0      -10.014644    3.879747   -0.650681
     68          1           0      -10.299812   -2.458156   -1.169323
     69          1           0       -2.837925   -0.972453    2.175321
     70          1           0       -2.331572    1.693125    1.268435
     71          1           0       -2.180526    0.807748    3.761308
     72          1           0       -3.265821    2.163486    3.573153
     73          1           0       -3.724804    0.305021    3.503206
     74          1           0       -2.045080   -1.695786   -0.347495
     75          1           0       -2.055594    0.122746   -0.629006
     76          1           0       -0.217157    0.599456    0.968137
     77          1           0       -0.139886   -1.179154    1.352532
     78          1           0       -5.658249    6.933017    0.674573
     79          1           0       -5.367568    6.066787    2.147638
     80          1           0       -4.309912    5.850289    0.864438
     81          1           0       -9.456991    6.061131   -0.471801
     82          1           0       -8.719788    7.995759    0.767888
     83          1           0       -7.448504    7.147655    1.616898
     84          1           0      -11.840384    3.148454   -2.233890
     85          1           0      -13.195967    2.163476   -1.357708
     86          1           0      -12.708709    3.135254   -0.241296
     87          1           0      -12.431591   -1.858308   -0.891413
     88          1           0      -13.335818   -0.214053   -1.050523
     89          1           0      -13.254329   -1.993569   -3.178448
     90          1           0      -12.900504   -0.264745   -3.745154
     91          1           0      -11.564425   -1.615020   -3.293680
     92          1           0       -9.046089   -4.603059   -2.028066
     93          1           0       -8.032422   -5.849714   -1.162579
     94          1           0       -9.180503   -4.832966   -0.189987
     95          1           0       -3.462030   -3.463164   -0.253178
     96          1           0       -2.067437   -4.300110    3.649983
     97          1           0       -3.126029   -5.844959    3.646933
     98          1           0       -1.515912   -5.966788    2.566889
     99          1           0        2.645020   -1.997764   -1.562485
    100          1           0        2.697497   -0.179135   -2.127395
    101          1           0        4.418748   -1.206711    0.322104
    102          1           0        3.945177    1.296201   -2.401842
    103          1           0        5.256448    2.430166   -1.839895
    104          1           0        5.681020    1.073059   -2.959158
    105          1           0        6.667206    1.485783    0.045004
    106          1           0        6.408192   -0.171336    0.744841
    107          1           0        7.455829   -1.047693   -1.257244
    108          1           0        7.549507    0.686077   -1.791263
    109          1           0        9.078057    1.004732    0.259684
    110          1           0        9.008297   -0.710765    0.763969
    111          1           0       10.240453    0.025083   -1.788856
    112          1           0        9.465355   -2.182847   -1.625781
    113          1           0       11.063817   -2.326074   -1.669701
    114          1           0       10.125398   -2.598572   -0.206951
    115          1           0       11.515987    0.938631    0.125506
    116          1           0       11.408484   -0.519091    1.059032
    117          1           0       12.980097   -1.423477   -0.867847
    118          1           0       13.026304    0.195712   -1.730244
    119          1           0       13.966072    0.922567    0.442537
    120          1           0       14.057789   -0.639859    1.246961
    121          1           0       15.311055    0.133530   -1.363959
    122          1           0       15.605135   -2.484068   -0.208724
    123          1           0       15.022295   -2.296240   -1.601211
    124          1           0       16.781213   -1.869138   -1.154436
    125          1           0       16.365075    1.491023    0.485433
    126          1           0       16.363860   -0.065309    1.507274
    127          1           0       18.109182   -0.642265   -0.341640
    128          1           0       17.776783    0.931007   -1.220841
    129          1           0       18.466346    2.213743    0.944109
    130          1           0       18.691870    0.620624    1.557858
    131          1           0       20.581853    0.346398   -0.125213
    132          1           0       19.995953    3.155405   -1.039917
    133          1           0       21.691280    2.428627   -1.400109
    134          1           0       20.073661    1.546478   -2.076011
    135          1           0       21.151683    1.450736    2.175565
    136          1           0       22.280897    1.771109    0.861859
    137          1           0       20.841747    2.869293    1.574174
 ---------------------------------------------------------------------

 SCF Done:  E(RCAM-B3LYP) =  -2933.44366367     A.U. after   16 cycles

 Excitation energies and oscillator strengths:

 Excited State   1:      Singlet-A      1.9122 eV  648.37 nm  f=0.2538  <S**2>=0.000
     240 -> 243       -0.21230
     241 -> 242        0.67247
 This state for optimization and/or second-order correction.
 Total Energy, E(TD-HF/TD-DFT) =  -2933.37338986
 Copying the excited state density for this state as the 1-particle RhoCI density.

 The electronic state is 1-A.
 Alpha  occ. eigenvalues --  -46.79054 -19.22608 -19.20452 -19.16879 -19.16188
 Alpha  occ. eigenvalues --  -19.15831 -14.38327 -14.35361 -14.35195 -14.35059
 Alpha  occ. eigenvalues --  -10.35217 -10.33627 -10.30904 -10.28571 -10.28319
 Alpha  occ. eigenvalues --  -10.27273 -10.26313 -10.25668 -10.25496 -10.24850
 Alpha  occ. eigenvalues --  -10.24670 -10.24658 -10.24631 -10.24606 -10.24518
 Alpha  occ. eigenvalues --  -10.24305 -10.23741 -10.23621 -10.23477 -10.23477
 Alpha  occ. eigenvalues --  -10.23396 -10.23341 -10.23131 -10.22901 -10.22889
 Alpha  occ. eigenvalues --  -10.22826 -10.22736 -10.22711 -10.22631 -10.22624
 Alpha  occ. eigenvalues --  -10.22538 -10.22410 -10.22358 -10.22101 -10.21994
 Alpha  occ. eigenvalues --  -10.21961 -10.21954 -10.21872 -10.21865 -10.21711
 Alpha  occ. eigenvalues --  -10.21357 -10.21101 -10.21049 -10.20898 -10.20894
 Alpha  occ. eigenvalues --  -10.20796 -10.20734 -10.20644 -10.20532 -10.20531
 Alpha  occ. eigenvalues --  -10.20525 -10.20000 -10.19224 -10.18698 -10.17961
 Alpha  occ. eigenvalues --   -3.07804  -1.82729  -1.82262  -1.82245  -1.14216
 Alpha  occ. eigenvalues --   -1.11046  -1.04380  -1.03476  -1.02507  -0.98496
 Alpha  occ. eigenvalues --   -0.97711  -0.96909  -0.96059  -0.87151  -0.86468
 Alpha  occ. eigenvalues --   -0.85936  -0.85048  -0.84923  -0.84567  -0.84147
 Alpha  occ. eigenvalues --   -0.83368  -0.83236  -0.82761  -0.82711  -0.81985
 Alpha  occ. eigenvalues --   -0.80166  -0.79635  -0.78686  -0.78436  -0.78017
 Alpha  occ. eigenvalues --   -0.76857  -0.76395  -0.76058  -0.75327  -0.74295
 Alpha  occ. eigenvalues --   -0.73795  -0.71954  -0.71845  -0.71427  -0.71076
 Alpha  occ. eigenvalues --   -0.70767  -0.70435  -0.69651  -0.69123  -0.68521
 Alpha  occ. eigenvalues --   -0.67314  -0.66384  -0.65258  -0.64767  -0.63990
 Alpha  occ. eigenvalues --   -0.62883  -0.62142  -0.60996  -0.60453  -0.59611
 Alpha  occ. eigenvalues --   -0.59462  -0.59057  -0.58535  -0.58064  -0.57931
 Alpha  occ. eigenvalues --   -0.57471  -0.56885  -0.55965  -0.55584  -0.55096
 Alpha  occ. eigenvalues --   -0.54762  -0.54428  -0.53928  -0.53797  -0.52646
 Alpha  occ. eigenvalues --   -0.52273  -0.51841  -0.51494  -0.51248  -0.50842
 Alpha  occ. eigenvalues --   -0.50561  -0.50465  -0.50054  -0.49759  -0.49347
 Alpha  occ. eigenvalues --   -0.49136  -0.49014  -0.48959  -0.48694  -0.48592
 Alpha  occ. eigenvalues --   -0.48144  -0.47827  -0.47387  -0.46927  -0.46891
 Alpha  occ. eigenvalues --   -0.46782  -0.46369  -0.46282  -0.46147  -0.45862
 Alpha  occ. eigenvalues --   -0.45650  -0.45455  -0.45124  -0.44694  -0.44491
 Alpha  occ. eigenvalues --   -0.44386  -0.44203  -0.43665  -0.43540  -0.43385
 Alpha  occ. eigenvalues --   -0.43238  -0.42908  -0.42872  -0.42636  -0.42489
 Alpha  occ. eigenvalues --   -0.42072  -0.41880  -0.41643  -0.41454  -0.41218
 Alpha  occ. eigenvalues --   -0.40961  -0.40935  -0.40710  -0.40475  -0.40394
 Alpha  occ. eigenvalues --   -0.40217  -0.40123  -0.40063  -0.39929  -0.39664
 Alpha  occ. eigenvalues --   -0.39334  -0.39287  -0.38991  -0.38932  -0.38917
 Alpha  occ. eigenvalues --   -0.38776  -0.38453  -0.38371  -0.38010  -0.37865
 Alpha  occ. eigenvalues --   -0.37584  -0.37516  -0.37314  -0.37254  -0.37023
 Alpha  occ. eigenvalues --   -0.36827  -0.36562  -0.36452  -0.36283  -0.36134
 Alpha  occ. eigenvalues --   -0.35916  -0.35783  -0.35601  -0.34891  -0.34577
 Alpha  occ. eigenvalues --   -0.34554  -0.34249  -0.34134  -0.33931  -0.33821
 Alpha  occ. eigenvalues --   -0.33471  -0.33083  -0.32866  -0.32605  -0.32516
 Alpha  occ. eigenvalues --   -0.32034  -0.31188  -0.30934  -0.30695  -0.30069
 Alpha  occ. eigenvalues --   -0.30001  -0.29805  -0.29716  -0.28210  -0.27094
 Alpha  occ. eigenvalues --   -0.26714  -0.26423  -0.26005  -0.24673  -0.21417
 Alpha  occ. eigenvalues --   -0.20069
 Alpha virt. eigenvalues --   -0.07787  -0.03532  -0.00408   0.02083   0.02780
 Alpha virt. eigenvalues --    0.03358   0.03742   0.04631   0.04805   0.05379
 Alpha virt. eigenvalues --    0.06447   0.08191   0.08780   0.09652   0.09698

 Mulliken charges:
               1
     1  Mg   0.803759
     2  C    0.105572
     3  C   -0.200310
     4  C   -0.156700
     5  C   -0.200921
     6  N   -0.606275
     7  C    0.269422
     8  C   -0.136066
     9  C   -0.164911
    10  C    0.326310
    11  C   -0.307925
    12  C   -0.173142
    13  C   -0.237137
    14  C    0.583321
    15  O   -0.469906
    16  O   -0.483595
    17  N   -0.710389
    18  C    0.320318
    19  C    0.049501
    20  C    0.007162
    21  C    0.318218
    22  C   -0.407559
    23  C   -0.051607
    24  C   -0.241332
    25  N   -0.687716
    26  C    0.308594
    27  C    0.022566
    28  C    0.040462
    29  C    0.308860
    30  C   -0.350048
    31  C   -0.240249
    32  C   -0.294401
    33  N   -0.704922
    34  C    0.227000
    35  C    0.075002
    36  C    0.034400
    37  C    0.285546
    38  C   -0.382964
    39  C    0.331645
    40  O   -0.468787
    41  C   -0.361269
    42  C    0.650043
    43  O   -0.513655
    44  O   -0.416104
    45  C   -0.098887
    46  C    0.034791
    47  C   -0.107242
    48  C    0.144887
    49  C   -0.381691
    50  C   -0.233070
    51  C   -0.188037
    52  C   -0.152762
    53  C   -0.055135
    54  C   -0.296462
    55  C   -0.161397
    56  C   -0.172886
    57  C   -0.180889
    58  C   -0.029025
    59  C   -0.329443
    60  C   -0.182052
    61  C   -0.190031
    62  C   -0.171071
    63  C   -0.050539
    64  C   -0.288913
    65  C   -0.291299
    66  H    0.072488
    67  H    0.058567
    68  H    0.075695
    69  H    0.128389
    70  H    0.087746
    71  H    0.119475
    72  H    0.120407
    73  H    0.107494
    74  H    0.106620
    75  H    0.130637
    76  H    0.151479
    77  H    0.150600
    78  H    0.137492
    79  H    0.136552
    80  H    0.088773
    81  H    0.084783
    82  H    0.097607
    83  H    0.098947
    84  H    0.104231
    85  H    0.120522
    86  H    0.097640
    87  H    0.099692
    88  H    0.093459
    89  H    0.119858
    90  H    0.092963
    91  H    0.108409
    92  H    0.113578
    93  H    0.129589
    94  H    0.147124
    95  H    0.161055
    96  H    0.141857
    97  H    0.136856
    98  H    0.106613
    99  H    0.071679
   100  H    0.107520
   101  H    0.082675
   102  H    0.097353
   103  H    0.119989
   104  H    0.116837
   105  H    0.103694
   106  H    0.098188
   107  H    0.109608
   108  H    0.085996
   109  H    0.085861
   110  H    0.076062
   111  H    0.084783
   112  H    0.104745
   113  H    0.092531
   114  H    0.086699
   115  H    0.080383
   116  H    0.085872
   117  H    0.092063
   118  H    0.072011
   119  H    0.077275
   120  H    0.065113
   121  H    0.093095
   122  H    0.116133
   123  H    0.098724
   124  H    0.087425
   125  H    0.072143
   126  H    0.078650
   127  H    0.106457
   128  H    0.099256
   129  H    0.061178
   130  H    0.105176
   131  H    0.072960
   132  H    0.113222
   133  H    0.076145
   134  H    0.080185
   135  H    0.113125
   136  H    0.082756
   137  H    0.100578
 Sum of Mulliken charges =  -0.00000

 Dipole moment (field-independent basis, Debye):
    X=             -0.5844    Y=              4.5341    Z=              1.4553  Tot=              4.7976
 Quadrupole moment (field-independent basis, Debye-Ang):
   XX=           -344.7789   YY=           -390.2798   ZZ=           -396.9882
   XY=            -19.8731   XZ=             10.9126   YZ=             -0.5768

 Normal termination of Gaussian 16 at Wed Sep 11 23:18:13 2019.
