 Gaussian 09, Revision D.01,
 Gaussian 09:  ES64L-G09RevD.01 24-Apr-2013

 -------------------------------------
 # td=(NStates=1) CAM-B3LYP/6-31G(d,p)
 -------------------------------------

 --
 TD
 --
 Symbolic Z-matrix:
 Charge =  0 Multiplicity = 1

                         Standard orientation:
 ---------------------------------------------------------------------
 Center     Atomic      Atomic             Coordinates (Angstroms)
 Number     Number       Type             X           Y           Z
 ---------------------------------------------------------------------
      1         12           0       -7.144362    0.605464    0.023502
      2          6           0       -4.836090   -2.003077    0.437344
      3          6           0       -4.882151    2.743772    1.184635
      4          6           0       -9.464021    2.982932   -0.377085
      5          6           0       -9.656757   -1.796294   -0.807016
      6          7           0       -5.151964    0.425581    0.693558
      7          6           0       -4.412990   -0.731692    0.784319
      8          6           0       -2.894683   -0.316665    1.188503
      9          6           0       -3.015811    1.093925    1.608116
     10          6           0       -4.489707    1.496235    1.225809
     11          6           0       -2.727776    1.406032    3.175181
     12          6           0       -1.841503   -0.603603    0.238849
     13          6           0       -0.391179   -0.496428    0.666633
     14          6           0        0.669971   -0.679549   -0.479129
     15          8           0        0.328569   -0.953327   -1.632040
     16          8           0        1.822197   -0.498791   -0.080338
     17          7           0       -7.137004    2.580975    0.349115
     18          6           0       -6.053684    3.342340    0.727301
     19          6           0       -6.439136    4.698536    0.779840
     20          6           0       -7.771802    4.773139    0.305709
     21          6           0       -8.283032    3.497767    0.094910
     22          6           0       -5.530039    5.919508    1.017401
     23          6           0       -8.578430    5.989091    0.080179
     24          6           0       -8.466433    7.141293    0.733721
     25          7           0       -9.205061    0.577836   -0.455772
     26          6           0       -9.978452    1.654419   -0.610572
     27          6           0      -11.282938    1.364994   -1.100174
     28          6           0      -11.240298    0.008543   -1.159580
     29          6           0       -9.972689   -0.422933   -0.815336
     30          6           0      -12.338936    2.434784   -1.354691
     31          6           0      -12.547024   -0.711348   -1.606721
     32          6           0      -12.490822   -1.065469   -3.121541
     33          7           0       -7.202665   -1.405717   -0.160449
     34          6           0       -8.225715   -2.287709   -0.476366
     35          6           0       -7.884247   -3.665684   -0.497505
     36          6           0       -6.482171   -3.554095   -0.045466
     37          6           0       -6.105525   -2.232931   -0.002483
     38          6           0       -8.676322   -4.869429   -0.814635
     39          6           0       -5.361337   -4.389950    0.209413
     40          8           0       -5.159395   -5.603682    0.286930
     41          6           0       -4.219293   -3.373289    0.487070
     42          6           0       -3.429967   -3.634900    1.777686
     43          8           0       -3.567512   -3.005395    2.782978
     44          8           0       -2.720845   -4.669956    1.764658
     45          6           0       -2.169996   -5.225661    3.068136
     46          6           0        2.856810   -0.618626   -1.081033
     47          6           0        4.105660   -0.259361   -0.565907
     48          6           0        5.127000    0.443831   -1.080907
     49          6           0        4.995438    1.163502   -2.385777
     50          6           0        6.439429    0.658781   -0.335081
     51          6           0        7.562464    0.079225   -1.116127
     52          6           0        8.974988    0.150959   -0.314325
     53          6           0       10.238111   -0.461615   -1.086295
     54          6           0       10.094823   -1.920143   -1.433117
     55          6           0       11.495447   -0.150874   -0.219393
     56          6           0       12.813945   -0.348005   -0.872088
     57          6           0       14.057871    0.072719   -0.030497
     58          6           0       15.358485   -0.182163   -0.550477
     59          6           0       15.622785   -1.546706   -0.903903
     60          6           0       16.449035    0.381245    0.436566
     61          6           0       17.933461    0.436771    0.025071
     62          6           0       18.729332    1.303993    0.895590
     63          6           0       20.261723    1.031011    0.437770
     64          6           0       20.523453    1.719179   -0.943263
     65          6           0       21.113755    1.753636    1.423177
     66          1           0       -4.293466    3.440432    1.684627
     67          1           0      -10.207163    3.861083   -0.605277
     68          1           0      -10.250047   -2.634956   -0.953463
     69          1           0       -2.652454   -1.122620    2.078498
     70          1           0       -2.198065    1.817990    1.227439
     71          1           0       -1.705531    1.017795    3.644897
     72          1           0       -2.951207    2.444415    3.511128
     73          1           0       -3.467191    0.769150    3.826733
     74          1           0       -2.036056   -1.552944   -0.434579
     75          1           0       -1.795453    0.076410   -0.784887
     76          1           0       -0.215101    0.678634    1.081727
     77          1           0       -0.150968   -1.135408    1.491117
     78          1           0       -5.943341    6.621012    0.332182
     79          1           0       -5.580750    6.130113    2.157682
     80          1           0       -4.433815    5.775156    0.897707
     81          1           0       -9.508716    5.864537   -0.498044
     82          1           0       -9.146661    7.882795    0.635214
     83          1           0       -7.776105    7.246430    1.532214
     84          1           0      -11.873494    3.200237   -2.051063
     85          1           0      -13.264792    1.883676   -1.820294
     86          1           0      -12.623804    3.109148   -0.502477
     87          1           0      -12.630446   -1.779311   -1.069555
     88          1           0      -13.432076   -0.067723   -1.341373
     89          1           0      -13.271946   -1.551307   -3.674892
     90          1           0      -12.316952    0.000990   -3.521074
     91          1           0      -11.590335   -1.725791   -3.287503
     92          1           0       -9.198743   -4.836233   -1.858965
     93          1           0       -8.083476   -5.806112   -0.830777
     94          1           0       -9.648164   -5.038438   -0.170711
     95          1           0       -3.485873   -3.696725   -0.449050
     96          1           0       -1.441070   -4.547604    3.416086
     97          1           0       -2.980972   -5.311633    3.841660
     98          1           0       -1.575392   -6.200767    2.744001
     99          1           0        2.777390   -1.817768   -1.513060
    100          1           0        2.593509    0.175986   -1.872389
    101          1           0        4.536071   -0.704126    0.482572
    102          1           0        3.883777    1.426721   -2.653990
    103          1           0        5.713546    2.199901   -2.619128
    104          1           0        5.162218    0.378995   -3.349129
    105          1           0        6.529353    1.712299   -0.200411
    106          1           0        6.390043   -0.026159    0.554647
    107          1           0        7.561827   -1.001286   -1.349629
    108          1           0        7.748512    0.584234   -2.062397
    109          1           0        9.100035    1.227133   -0.199200
    110          1           0        8.859981   -0.229196    0.845995
    111          1           0       10.453062    0.077739   -1.941772
    112          1           0        9.146392   -2.329792   -1.876290
    113          1           0       11.058125   -2.230463   -2.130003
    114          1           0       10.004557   -2.694376   -0.610731
    115          1           0       11.528159    0.730726   -0.070329
    116          1           0       11.533514   -0.727864    0.741423
    117          1           0       12.724223   -1.475352   -1.016319
    118          1           0       12.773473    0.206173   -1.779080
    119          1           0       14.027588    1.074007    0.309590
    120          1           0       14.178883   -0.431642    1.030689
    121          1           0       15.491077    0.433641   -1.339117
    122          1           0       15.584488   -2.185996   -0.065558
    123          1           0       14.804644   -1.831824   -1.655506
    124          1           0       16.623532   -1.459361   -1.395716
    125          1           0       16.186606    1.494070    0.515018
    126          1           0       16.265621   -0.069342    1.600390
    127          1           0       18.228401   -0.648877   -0.014903
    128          1           0       18.024870    0.989328   -0.857882
    129          1           0       18.446212    2.244187    1.147021
    130          1           0       18.537418    0.742624    1.872702
    131          1           0       20.415620   -0.084959    0.308064
    132          1           0       20.263165    2.840018   -0.871149
    133          1           0       21.567716    1.604809   -1.122451
    134          1           0       19.896977    1.361688   -1.724556
    135          1           0       21.196298    1.244996    2.402678
    136          1           0       22.348519    1.734927    1.379400
    137          1           0       20.851147    2.820886    1.672228
 ---------------------------------------------------------------------

 SCF Done:  E(RCAM-B3LYP) =  -2932.60170222     A.U. after   18 cycles

 Excitation energies and oscillator strengths:

 Excited State   1:      Singlet-A      1.9994 eV  620.10 nm  f=0.3001  <S**2>=0.000
     240 -> 242       -0.17600
     240 -> 243        0.19829
     241 -> 242        0.64201
     241 -> 243        0.10930
 This state for optimization and/or second-order correction.
 Total Energy, E(TD-HF/TD-KS) =  -2932.52822481
 Copying the excited state density for this state as the 1-particle RhoCI density.

 The electronic state is 1-A.
 Alpha  occ. eigenvalues --  -46.83674 -19.27950 -19.25503 -19.18873 -19.18596
 Alpha  occ. eigenvalues --  -19.18136 -14.41089 -14.39533 -14.38889 -14.38711
 Alpha  occ. eigenvalues --  -10.38330 -10.37209 -10.34424 -10.33414 -10.32885
 Alpha  occ. eigenvalues --  -10.30909 -10.30083 -10.29967 -10.29607 -10.29571
 Alpha  occ. eigenvalues --  -10.29542 -10.29419 -10.29011 -10.28867 -10.28706
 Alpha  occ. eigenvalues --  -10.28477 -10.28424 -10.28300 -10.28230 -10.28161
 Alpha  occ. eigenvalues --  -10.28026 -10.27857 -10.27697 -10.27669 -10.27579
 Alpha  occ. eigenvalues --  -10.27548 -10.27451 -10.27175 -10.27055 -10.27031
 Alpha  occ. eigenvalues --  -10.26996 -10.26871 -10.26746 -10.26734 -10.26610
 Alpha  occ. eigenvalues --  -10.26581 -10.26396 -10.26356 -10.26251 -10.26021
 Alpha  occ. eigenvalues --  -10.25914 -10.25863 -10.25787 -10.25619 -10.25230
 Alpha  occ. eigenvalues --  -10.24969 -10.24572 -10.24468 -10.24467 -10.24457
 Alpha  occ. eigenvalues --  -10.24320 -10.24010 -10.23532 -10.23213 -10.22587
 Alpha  occ. eigenvalues --   -3.12741  -1.87444  -1.86995  -1.86910  -1.22778
 Alpha  occ. eigenvalues --   -1.19630  -1.08626  -1.07767  -1.07701  -1.06581
 Alpha  occ. eigenvalues --   -1.03241  -1.02208  -1.01116  -0.92577  -0.92494
 Alpha  occ. eigenvalues --   -0.92287  -0.90301  -0.89742  -0.89242  -0.88969
 Alpha  occ. eigenvalues --   -0.88932  -0.88298  -0.87283  -0.86984  -0.86399
 Alpha  occ. eigenvalues --   -0.84409  -0.84176  -0.83357  -0.82773  -0.82477
 Alpha  occ. eigenvalues --   -0.82011  -0.81406  -0.80723  -0.80298  -0.78407
 Alpha  occ. eigenvalues --   -0.77496  -0.76718  -0.76313  -0.76143  -0.75332
 Alpha  occ. eigenvalues --   -0.75285  -0.74914  -0.74081  -0.73257  -0.72576
 Alpha  occ. eigenvalues --   -0.71399  -0.70281  -0.69279  -0.68734  -0.67895
 Alpha  occ. eigenvalues --   -0.67040  -0.66427  -0.65271  -0.64386  -0.64199
 Alpha  occ. eigenvalues --   -0.63904  -0.63856  -0.63722  -0.62344  -0.62325
 Alpha  occ. eigenvalues --   -0.61930  -0.60656  -0.60076  -0.59673  -0.59146
 Alpha  occ. eigenvalues --   -0.58810  -0.58310  -0.57953  -0.57602  -0.56619
 Alpha  occ. eigenvalues --   -0.56268  -0.56026  -0.55730  -0.55552  -0.54698
 Alpha  occ. eigenvalues --   -0.54593  -0.53960  -0.53600  -0.52957  -0.52919
 Alpha  occ. eigenvalues --   -0.52348  -0.52333  -0.52062  -0.51893  -0.51836
 Alpha  occ. eigenvalues --   -0.51623  -0.51276  -0.50982  -0.50715  -0.50474
 Alpha  occ. eigenvalues --   -0.50333  -0.50132  -0.49746  -0.49562  -0.49295
 Alpha  occ. eigenvalues --   -0.49066  -0.49015  -0.48664  -0.48366  -0.47969
 Alpha  occ. eigenvalues --   -0.47706  -0.47563  -0.47468  -0.47076  -0.46957
 Alpha  occ. eigenvalues --   -0.46703  -0.46401  -0.46240  -0.46190  -0.46008
 Alpha  occ. eigenvalues --   -0.45779  -0.45467  -0.45232  -0.45098  -0.44881
 Alpha  occ. eigenvalues --   -0.44877  -0.44533  -0.44353  -0.44131  -0.43777
 Alpha  occ. eigenvalues --   -0.43578  -0.43446  -0.43257  -0.43152  -0.42947
 Alpha  occ. eigenvalues --   -0.42649  -0.42465  -0.42334  -0.42182  -0.42071
 Alpha  occ. eigenvalues --   -0.41698  -0.41674  -0.41435  -0.41238  -0.41209
 Alpha  occ. eigenvalues --   -0.40578  -0.40299  -0.40163  -0.40079  -0.40013
 Alpha  occ. eigenvalues --   -0.39849  -0.39751  -0.39547  -0.38998  -0.38886
 Alpha  occ. eigenvalues --   -0.38164  -0.38071  -0.38005  -0.37652  -0.37604
 Alpha  occ. eigenvalues --   -0.37537  -0.37032  -0.36939  -0.36545  -0.36349
 Alpha  occ. eigenvalues --   -0.35919  -0.35861  -0.35679  -0.35482  -0.35197
 Alpha  occ. eigenvalues --   -0.34897  -0.34645  -0.33714  -0.33137  -0.33114
 Alpha  occ. eigenvalues --   -0.32443  -0.32092  -0.31570  -0.30598  -0.29823
 Alpha  occ. eigenvalues --   -0.29506  -0.28796  -0.28032  -0.27038  -0.23438
 Alpha  occ. eigenvalues --   -0.21419
 Alpha virt. eigenvalues --   -0.07381  -0.03264   0.01819   0.04249   0.04409
 Alpha virt. eigenvalues --    0.05957   0.06510   0.07602   0.08054   0.08353
 Alpha virt. eigenvalues --    0.09542   0.10603   0.10790   0.11647   0.11759

 Mulliken charges:
               1
     1  Mg   0.814898
     2  C    0.114133
     3  C   -0.192570
     4  C   -0.198965
     5  C   -0.133642
     6  N   -0.666662
     7  C    0.292325
     8  C   -0.130443
     9  C   -0.135922
    10  C    0.388359
    11  C   -0.325449
    12  C   -0.168793
    13  C   -0.250106
    14  C    0.590447
    15  O   -0.511798
    16  O   -0.391628
    17  N   -0.732291
    18  C    0.339064
    19  C   -0.013555
    20  C    0.018879
    21  C    0.295905
    22  C   -0.365726
    23  C   -0.087001
    24  C   -0.234145
    25  N   -0.664358
    26  C    0.281678
    27  C    0.076194
    28  C   -0.014183
    29  C    0.329226
    30  C   -0.364080
    31  C   -0.237421
    32  C   -0.294966
    33  N   -0.709672
    34  C    0.220147
    35  C    0.093927
    36  C   -0.026981
    37  C    0.264467
    38  C   -0.403841
    39  C    0.349285
    40  O   -0.490392
    41  C   -0.339933
    42  C    0.611352
    43  O   -0.495495
    44  O   -0.422963
    45  C   -0.088678
    46  C    0.005437
    47  C   -0.117806
    48  C    0.150895
    49  C   -0.366315
    50  C   -0.212910
    51  C   -0.190532
    52  C   -0.185423
    53  C   -0.053388
    54  C   -0.314881
    55  C   -0.138623
    56  C   -0.204885
    57  C   -0.156272
    58  C   -0.046357
    59  C   -0.286646
    60  C   -0.190116
    61  C   -0.175227
    62  C   -0.171980
    63  C   -0.055390
    64  C   -0.305479
    65  C   -0.303709
    66  H    0.069730
    67  H    0.074619
    68  H    0.097772
    69  H    0.129948
    70  H    0.111572
    71  H    0.097579
    72  H    0.106071
    73  H    0.107066
    74  H    0.111324
    75  H    0.087234
    76  H    0.089822
    77  H    0.125375
    78  H    0.138554
    79  H    0.114543
    80  H    0.118543
    81  H    0.088311
    82  H    0.103904
    83  H    0.111483
    84  H    0.121677
    85  H    0.104402
    86  H    0.129699
    87  H    0.080125
    88  H    0.105331
    89  H    0.111956
    90  H    0.096009
    91  H    0.103408
    92  H    0.114425
    93  H    0.156474
    94  H    0.117792
    95  H    0.142127
    96  H    0.143413
    97  H    0.152987
    98  H    0.129065
    99  H    0.122692
   100  H    0.125527
   101  H    0.070631
   102  H    0.112792
   103  H    0.091818
   104  H    0.104950
   105  H    0.119021
   106  H    0.101757
   107  H    0.102895
   108  H    0.101037
   109  H    0.091165
   110  H    0.068179
   111  H    0.095703
   112  H    0.099931
   113  H    0.083742
   114  H    0.099037
   115  H    0.089009
   116  H    0.084890
   117  H    0.094773
   118  H    0.088468
   119  H    0.088405
   120  H    0.060143
   121  H    0.088422
   122  H    0.101701
   123  H    0.091459
   124  H    0.094503
   125  H    0.069805
   126  H    0.048592
   127  H    0.099683
   128  H    0.101783
   129  H    0.105104
   130  H    0.078615
   131  H    0.094146
   132  H    0.086776
   133  H    0.111983
   134  H    0.104372
   135  H    0.100215
   136  H    0.060121
   137  H    0.104800
 Sum of Mulliken charges =   0.00000

 Dipole moment (field-independent basis, Debye):
    X=              1.5936    Y=              5.1748    Z=             -0.0674  Tot=              5.4150
 Quadrupole moment (field-independent basis, Debye-Ang):
   XX=           -332.2655   YY=           -386.2817   ZZ=           -397.8798
   XY=            -21.2840   XZ=             10.7350   YZ=             -3.1660

 Normal termination of Gaussian 09 at Wed Jul  3 14:56:21 2019.
