 Gaussian 16, Revision A.03,
 Gaussian 16:  ES64L-G16RevA.03 25-Dec-2016

 ----------------------------------------------------------------------
 # td=(NStates=1) iop(3/107=0140000000,3/108=0140000000) CAM-B3LYP/6-31
 G(d,p)
 ----------------------------------------------------------------------

 --
 TD
 --
 Symbolic Z-matrix:
 Charge =  0 Multiplicity = 1

                         Standard orientation:
 ---------------------------------------------------------------------
 Center     Atomic      Atomic             Coordinates (Angstroms)
 Number     Number       Type             X           Y           Z
 ---------------------------------------------------------------------
      1         12           0       -7.157683    0.588478    0.140020
      2          6           0       -4.817478   -2.006245    0.495924
      3          6           0       -4.788028    2.814188    1.070416
      4          6           0       -9.418033    3.097239   -0.178182
      5          6           0       -9.616930   -1.826390   -0.936642
      6          7           0       -5.139991    0.418844    0.691742
      7          6           0       -4.370933   -0.730076    0.684768
      8          6           0       -2.931632   -0.425743    1.288411
      9          6           0       -2.964116    1.075819    1.766095
     10          6           0       -4.364696    1.417672    1.204384
     11          6           0       -2.949674    1.183595    3.281832
     12          6           0       -1.896054   -0.509460    0.113110
     13          6           0       -0.365850   -0.332200    0.530506
     14          6           0        0.538663   -0.508206   -0.614559
     15          8           0        0.314422   -0.845259   -1.727777
     16          8           0        1.766160   -0.281028   -0.227290
     17          7           0       -7.105726    2.558144    0.403840
     18          6           0       -6.003179    3.379644    0.769707
     19          6           0       -6.353579    4.815695    0.684094
     20          6           0       -7.752991    4.816654    0.405987
     21          6           0       -8.087108    3.419385    0.244712
     22          6           0       -5.399372    5.954157    1.099141
     23          6           0       -8.592446    5.986105    0.068913
     24          6           0       -8.603873    7.171736    0.689672
     25          7           0       -9.180925    0.702946   -0.402052
     26          6           0       -9.902352    1.849500   -0.633270
     27          6           0      -11.139030    1.536397   -1.047211
     28          6           0      -11.228187    0.151918   -1.180104
     29          6           0       -9.976387   -0.438162   -0.789184
     30          6           0      -12.167589    2.538798   -1.420580
     31          6           0      -12.383946   -0.725458   -1.613564
     32          6           0      -12.247017   -1.070765   -3.139922
     33          7           0       -7.209494   -1.376473   -0.278893
     34          6           0       -8.301707   -2.235502   -0.567414
     35          6           0       -7.844286   -3.697432   -0.582186
     36          6           0       -6.519167   -3.609750   -0.178037
     37          6           0       -6.129770   -2.242591   -0.021022
     38          6           0       -8.706577   -4.768261   -0.856273
     39          6           0       -5.316473   -4.469009    0.212369
     40          8           0       -5.119745   -5.537739    0.167598
     41          6           0       -4.152827   -3.351117    0.519232
     42          6           0       -3.397308   -3.769424    1.847551
     43          8           0       -3.735241   -3.346305    2.911975
     44          8           0       -2.615877   -4.763407    1.595740
     45          6           0       -2.084887   -5.356942    2.764098
     46          6           0        2.794232   -0.626982   -1.198568
     47          6           0        4.052500   -0.309942   -0.537912
     48          6           0        5.110199    0.411661   -0.982795
     49          6           0        5.139897    1.281998   -2.268224
     50          6           0        6.483937    0.464509   -0.228650
     51          6           0        7.574372   -0.090887   -0.996779
     52          6           0        8.937566   -0.045137   -0.161125
     53          6           0       10.203160   -0.537363   -0.884102
     54          6           0       10.091431   -1.911973   -1.287396
     55          6           0       11.395306   -0.477806   -0.013061
     56          6           0       12.764047   -0.625698   -0.711221
     57          6           0       13.927107   -0.249555    0.298885
     58          6           0       15.294270   -0.285596   -0.434445
     59          6           0       15.686617   -1.617725   -0.805709
     60          6           0       16.334680    0.382826    0.478859
     61          6           0       17.776576    0.493764   -0.163712
     62          6           0       18.700240    1.228817    0.742697
     63          6           0       20.153326    1.360583    0.230502
     64          6           0       20.128608    2.278574   -1.009212
     65          6           0       21.173461    2.046519    1.138560
     66          1           0       -4.044180    3.510694    1.486836
     67          1           0       -9.876878    4.141599   -0.343897
     68          1           0      -10.259946   -2.604768   -1.176132
     69          1           0       -2.844925   -1.384309    2.010676
     70          1           0       -2.044645    1.494983    1.321152
     71          1           0       -2.106863    0.791469    3.582460
     72          1           0       -3.035510    2.212242    3.649979
     73          1           0       -3.719526    0.524732    3.859680
     74          1           0       -2.006227   -1.304323   -0.498465
     75          1           0       -1.951082    0.416193   -0.818071
     76          1           0       -0.259286    0.714216    0.904376
     77          1           0       -0.072099   -0.905711    1.217070
     78          1           0       -5.619874    6.877928    0.538808
     79          1           0       -5.531657    6.040069    2.058668
     80          1           0       -4.305006    5.541941    0.881459
     81          1           0       -9.427893    5.758861   -0.821484
     82          1           0       -9.377293    7.916256    0.230594
     83          1           0       -8.065993    7.562652    1.655749
     84          1           0      -11.820801    3.190581   -2.219194
     85          1           0      -13.200351    2.359258   -1.628668
     86          1           0      -12.213766    3.256761   -0.486417
     87          1           0      -12.549812   -1.786063   -1.088551
     88          1           0      -13.318454   -0.315938   -1.488566
     89          1           0      -13.079208   -1.852562   -3.455887
     90          1           0      -12.133017   -0.015013   -3.588245
     91          1           0      -11.288302   -1.561448   -3.476031
     92          1           0       -9.042708   -4.739255   -1.883359
     93          1           0       -8.366546   -5.715100   -0.758946
     94          1           0       -9.773062   -4.879569   -0.090627
     95          1           0       -3.429338   -3.431841   -0.281283
     96          1           0       -1.581818   -4.651215    3.416112
     97          1           0       -3.017807   -5.718963    3.422880
     98          1           0       -1.686934   -6.305113    2.415687
     99          1           0        2.527363   -1.737261   -1.455106
    100          1           0        2.398425   -0.158626   -1.965666
    101          1           0        4.198824   -0.771256    0.331218
    102          1           0        4.280307    1.296737   -2.799706
    103          1           0        5.448639    2.324614   -1.960210
    104          1           0        5.574915    0.687710   -3.158763
    105          1           0        6.856512    1.509692    0.144339
    106          1           0        6.481294   -0.011089    0.751594
    107          1           0        7.150083   -1.257704   -1.103097
    108          1           0        7.762417    0.388029   -2.100791
    109          1           0        9.272318    0.879573    0.328680
    110          1           0        8.802657   -0.728930    0.674498
    111          1           0       10.438376    0.055091   -1.794007
    112          1           0        9.325395   -2.027549   -1.991984
    113          1           0       11.025675   -2.339392   -1.935482
    114          1           0       10.103296   -2.660563   -0.636154
    115          1           0       11.248335    0.437179    0.703238
    116          1           0       11.366107   -1.380924    0.807150
    117          1           0       13.065744   -1.607894   -1.033188
    118          1           0       12.859197    0.178159   -1.477776
    119          1           0       13.738911    0.832093    0.713203
    120          1           0       13.980986   -0.921275    1.071861
    121          1           0       15.205445    0.446088   -1.389496
    122          1           0       15.749609   -2.363683    0.009260
    123          1           0       14.978824   -2.405202   -1.305381
    124          1           0       16.610164   -1.749589   -1.413949
    125          1           0       16.124602    1.364144    0.749011
    126          1           0       16.361619   -0.322780    1.338293
    127          1           0       18.290451   -0.443659   -0.455781
    128          1           0       17.956112    1.123631   -1.091141
    129          1           0       18.300804    2.129337    1.181659
    130          1           0       18.736172    0.351653    1.703755
    131          1           0       20.598592    0.445150   -0.145256
    132          1           0       19.849872    3.253680   -0.541845
    133          1           0       21.060789    2.423043   -1.314847
    134          1           0       19.460793    2.035871   -1.897914
    135          1           0       21.201006    1.414862    2.002007
    136          1           0       22.204845    2.169885    0.868433
    137          1           0       21.002420    3.167706    1.560136
 ---------------------------------------------------------------------

 SCF Done:  E(RCAM-B3LYP) =  -2933.40847561     A.U. after   16 cycles

 Excitation energies and oscillator strengths:

 Excited State   1:      Singlet-A      1.9988 eV  620.28 nm  f=0.1710  <S**2>=0.000
     240 -> 243       -0.26926
     241 -> 242        0.64586
 This state for optimization and/or second-order correction.
 Total Energy, E(TD-HF/TD-DFT) =  -2933.33501978
 Copying the excited state density for this state as the 1-particle RhoCI density.

 The electronic state is 1-A.
 Alpha  occ. eigenvalues --  -46.78741 -19.23776 -19.20660 -19.18112 -19.16629
 Alpha  occ. eigenvalues --  -19.15887 -14.38041 -14.35462 -14.34626 -14.33608
 Alpha  occ. eigenvalues --  -10.34343 -10.33077 -10.30935 -10.28088 -10.27259
 Alpha  occ. eigenvalues --  -10.26513 -10.25782 -10.25121 -10.25107 -10.24667
 Alpha  occ. eigenvalues --  -10.24539 -10.24324 -10.24313 -10.24277 -10.24188
 Alpha  occ. eigenvalues --  -10.24118 -10.23870 -10.23656 -10.23497 -10.23421
 Alpha  occ. eigenvalues --  -10.23334 -10.23188 -10.23084 -10.22970 -10.22650
 Alpha  occ. eigenvalues --  -10.22450 -10.22291 -10.22219 -10.22149 -10.22109
 Alpha  occ. eigenvalues --  -10.21979 -10.21935 -10.21881 -10.21870 -10.21841
 Alpha  occ. eigenvalues --  -10.21781 -10.21751 -10.21673 -10.21598 -10.21405
 Alpha  occ. eigenvalues --  -10.21274 -10.21138 -10.20959 -10.20913 -10.20836
 Alpha  occ. eigenvalues --  -10.20835 -10.20820 -10.20736 -10.20720 -10.20623
 Alpha  occ. eigenvalues --  -10.20560 -10.20528 -10.20263 -10.18960 -10.18375
 Alpha  occ. eigenvalues --   -3.07443  -1.82376  -1.81907  -1.81868  -1.16678
 Alpha  occ. eigenvalues --   -1.15274  -1.14943  -1.06224  -1.04729  -0.98442
 Alpha  occ. eigenvalues --   -0.97649  -0.96062  -0.95296  -0.86616  -0.86253
 Alpha  occ. eigenvalues --   -0.85752  -0.85285  -0.84459  -0.83833  -0.83293
 Alpha  occ. eigenvalues --   -0.82942  -0.82395  -0.82295  -0.81355  -0.81288
 Alpha  occ. eigenvalues --   -0.80213  -0.79009  -0.78720  -0.78369  -0.77142
 Alpha  occ. eigenvalues --   -0.76820  -0.76288  -0.75849  -0.75366  -0.73901
 Alpha  occ. eigenvalues --   -0.73197  -0.71827  -0.71628  -0.71016  -0.71006
 Alpha  occ. eigenvalues --   -0.70529  -0.70305  -0.69718  -0.69093  -0.67282
 Alpha  occ. eigenvalues --   -0.67033  -0.65444  -0.64285  -0.63577  -0.62486
 Alpha  occ. eigenvalues --   -0.61897  -0.61479  -0.60639  -0.60543  -0.60161
 Alpha  occ. eigenvalues --   -0.59635  -0.59280  -0.59120  -0.58793  -0.58111
 Alpha  occ. eigenvalues --   -0.58098  -0.57275  -0.56354  -0.55570  -0.54829
 Alpha  occ. eigenvalues --   -0.54535  -0.54219  -0.53955  -0.53658  -0.52991
 Alpha  occ. eigenvalues --   -0.52377  -0.51956  -0.51591  -0.51244  -0.51120
 Alpha  occ. eigenvalues --   -0.50527  -0.50433  -0.50288  -0.50073  -0.49800
 Alpha  occ. eigenvalues --   -0.48992  -0.48871  -0.48709  -0.48388  -0.48011
 Alpha  occ. eigenvalues --   -0.47939  -0.47649  -0.47439  -0.47331  -0.47202
 Alpha  occ. eigenvalues --   -0.46976  -0.46673  -0.46315  -0.46208  -0.46027
 Alpha  occ. eigenvalues --   -0.45923  -0.45708  -0.45585  -0.45353  -0.45186
 Alpha  occ. eigenvalues --   -0.44800  -0.44760  -0.44602  -0.44301  -0.44062
 Alpha  occ. eigenvalues --   -0.44026  -0.43823  -0.43499  -0.42674  -0.42544
 Alpha  occ. eigenvalues --   -0.42407  -0.42077  -0.41792  -0.41519  -0.41289
 Alpha  occ. eigenvalues --   -0.41050  -0.40982  -0.40912  -0.40322  -0.40052
 Alpha  occ. eigenvalues --   -0.39854  -0.39704  -0.39605  -0.39499  -0.39425
 Alpha  occ. eigenvalues --   -0.39332  -0.39003  -0.38936  -0.38832  -0.38569
 Alpha  occ. eigenvalues --   -0.38487  -0.38300  -0.38165  -0.37960  -0.37808
 Alpha  occ. eigenvalues --   -0.37670  -0.37472  -0.37227  -0.37044  -0.36763
 Alpha  occ. eigenvalues --   -0.36693  -0.36301  -0.36267  -0.35999  -0.35822
 Alpha  occ. eigenvalues --   -0.35510  -0.35505  -0.35380  -0.34690  -0.34552
 Alpha  occ. eigenvalues --   -0.34329  -0.34010  -0.33942  -0.33573  -0.33549
 Alpha  occ. eigenvalues --   -0.33190  -0.33065  -0.32916  -0.32515  -0.32297
 Alpha  occ. eigenvalues --   -0.31999  -0.31843  -0.30537  -0.30490  -0.30411
 Alpha  occ. eigenvalues --   -0.29955  -0.29552  -0.29348  -0.27823  -0.27589
 Alpha  occ. eigenvalues --   -0.27042  -0.26569  -0.25202  -0.23819  -0.21205
 Alpha  occ. eigenvalues --   -0.19253
 Alpha virt. eigenvalues --   -0.06300  -0.04362   0.00735   0.02690   0.03210
 Alpha virt. eigenvalues --    0.04448   0.05085   0.05350   0.05905   0.06319
 Alpha virt. eigenvalues --    0.06572   0.08568   0.09444   0.09703   0.10123

 Mulliken charges:
               1
     1  Mg   0.809816
     2  C    0.132335
     3  C   -0.218444
     4  C   -0.151127
     5  C   -0.126193
     6  N   -0.594927
     7  C    0.266425
     8  C   -0.173458
     9  C   -0.120729
    10  C    0.302775
    11  C   -0.302998
    12  C   -0.176204
    13  C   -0.251202
    14  C    0.592638
    15  O   -0.481237
    16  O   -0.468943
    17  N   -0.697041
    18  C    0.295969
    19  C    0.009191
    20  C    0.007813
    21  C    0.329803
    22  C   -0.360988
    23  C   -0.088810
    24  C   -0.242581
    25  N   -0.701158
    26  C    0.320314
    27  C    0.047389
    28  C    0.000810
    29  C    0.275179
    30  C   -0.388687
    31  C   -0.235352
    32  C   -0.305101
    33  N   -0.703438
    34  C    0.248703
    35  C    0.052327
    36  C   -0.025601
    37  C    0.237856
    38  C   -0.396857
    39  C    0.376643
    40  O   -0.328617
    41  C   -0.360282
    42  C    0.588644
    43  O   -0.469412
    44  O   -0.393945
    45  C   -0.105452
    46  C    0.020323
    47  C   -0.102594
    48  C    0.102177
    49  C   -0.360374
    50  C   -0.219710
    51  C   -0.147596
    52  C   -0.179221
    53  C   -0.041280
    54  C   -0.294925
    55  C   -0.158935
    56  C   -0.168850
    57  C   -0.179388
    58  C   -0.041837
    59  C   -0.319024
    60  C   -0.150726
    61  C   -0.182440
    62  C   -0.135037
    63  C   -0.065120
    64  C   -0.303939
    65  C   -0.320982
    66  H    0.063322
    67  H    0.056654
    68  H    0.094968
    69  H    0.116131
    70  H    0.113803
    71  H    0.121157
    72  H    0.105980
    73  H    0.115293
    74  H    0.126951
    75  H    0.067022
    76  H    0.127780
    77  H    0.137019
    78  H    0.126175
    79  H    0.149788
    80  H    0.100295
    81  H    0.098526
    82  H    0.093831
    83  H    0.110223
    84  H    0.122415
    85  H    0.119105
    86  H    0.099628
    87  H    0.079063
    88  H    0.111178
    89  H    0.085721
    90  H    0.103360
    91  H    0.106627
    92  H    0.134021
    93  H    0.142589
    94  H    0.082627
    95  H    0.146731
    96  H    0.142912
    97  H    0.114627
    98  H    0.135023
    99  H    0.112521
   100  H    0.130220
   101  H    0.084660
   102  H    0.119339
   103  H    0.124615
   104  H    0.112479
   105  H    0.082017
   106  H    0.102513
   107  H    0.073251
   108  H    0.085320
   109  H    0.089901
   110  H    0.096122
   111  H    0.082108
   112  H    0.100847
   113  H    0.060884
   114  H    0.111363
   115  H    0.062011
   116  H    0.054965
   117  H    0.108243
   118  H    0.093097
   119  H    0.073353
   120  H    0.096694
   121  H    0.060904
   122  H    0.097643
   123  H    0.083834
   124  H    0.110578
   125  H    0.098633
   126  H    0.090336
   127  H    0.094865
   128  H    0.080813
   129  H    0.095464
   130  H    0.024446
   131  H    0.095378
   132  H    0.091546
   133  H    0.106750
   134  H    0.090090
   135  H    0.105754
   136  H    0.111970
   137  H    0.077559
 Sum of Mulliken charges =  -0.00000

 Dipole moment (field-independent basis, Debye):
    X=              3.6087    Y=              1.4562    Z=              1.2108  Tot=              4.0755
 Quadrupole moment (field-independent basis, Debye-Ang):
   XX=           -371.9518   YY=           -374.0974   ZZ=           -399.4423
   XY=            -11.7131   XZ=              5.1955   YZ=             -0.0809

 Normal termination of Gaussian 16 at Thu Sep  5 05:46:28 2019.
