 Gaussian 16, Revision A.03,
 Gaussian 16:  ES64L-G16RevA.03 25-Dec-2016

 -------------------------------------
 # td=(NStates=1) CAM-B3LYP/6-31G(d,p)
 -------------------------------------

 --
 TD
 --
 Symbolic Z-matrix:
 Charge =  0 Multiplicity = 1

                         Standard orientation:
 ---------------------------------------------------------------------
 Center     Atomic      Atomic             Coordinates (Angstroms)
 Number     Number       Type             X           Y           Z
 ---------------------------------------------------------------------
      1         12           0       -7.169180    0.547580    0.119936
      2          6           0       -4.825475   -1.998010    0.469842
      3          6           0       -4.737693    2.831023    1.130910
      4          6           0       -9.462518    3.120242   -0.371187
      5          6           0       -9.526358   -1.629706   -0.781653
      6          7           0       -5.106890    0.384495    0.646031
      7          6           0       -4.340754   -0.683205    0.709933
      8          6           0       -2.913776   -0.435812    1.237486
      9          6           0       -3.033453    1.015610    1.654363
     10          6           0       -4.380777    1.468002    1.244513
     11          6           0       -2.948679    1.211643    3.142298
     12          6           0       -1.894167   -0.548069    0.087241
     13          6           0       -0.332243   -0.311115    0.485702
     14          6           0        0.529184   -0.631258   -0.673421
     15          8           0        0.108838   -1.007888   -1.773262
     16          8           0        1.767201   -0.340603   -0.341302
     17          7           0       -7.198599    2.619582    0.386031
     18          6           0       -6.042355    3.309118    0.771333
     19          6           0       -6.404510    4.761893    0.830411
     20          6           0       -7.716549    4.867091    0.328784
     21          6           0       -8.149074    3.556652    0.100455
     22          6           0       -5.436971    5.956342    0.985166
     23          6           0       -8.452205    6.115402   -0.046433
     24          6           0       -8.491658    7.122624    0.872830
     25          7           0       -9.062282    0.666377   -0.519132
     26          6           0       -9.840256    1.791308   -0.580431
     27          6           0      -11.276596    1.450938   -0.959777
     28          6           0      -11.289222    0.083245   -1.149122
     29          6           0       -9.926862   -0.356112   -0.802944
     30          6           0      -12.268005    2.576820   -1.269672
     31          6           0      -12.483812   -0.760634   -1.621642
     32          6           0      -12.268443   -1.124375   -3.237861
     33          7           0       -7.165650   -1.371447   -0.192094
     34          6           0       -8.284786   -2.245287   -0.495772
     35          6           0       -7.841239   -3.564179   -0.567712
     36          6           0       -6.515479   -3.576441   -0.127914
     37          6           0       -6.185594   -2.174002    0.142100
     38          6           0       -8.798092   -4.713438   -0.891628
     39          6           0       -5.363515   -4.418589    0.236020
     40          8           0       -5.246901   -5.536718    0.191825
     41          6           0       -4.150962   -3.366599    0.516267
     42          6           0       -3.474656   -3.685990    1.848345
     43          8           0       -3.793225   -3.182158    2.962361
     44          8           0       -2.738783   -4.753094    1.677293
     45          6           0       -2.118168   -5.388118    2.881013
     46          6           0        2.753659   -0.644409   -1.272644
     47          6           0        4.092491   -0.477826   -0.732949
     48          6           0        5.132268    0.389207   -1.020805
     49          6           0        5.049897    1.289657   -2.243113
     50          6           0        6.382857    0.416560   -0.303665
     51          6           0        7.625437   -0.241043   -1.023991
     52          6           0        8.891620   -0.141030   -0.149271
     53          6           0       10.249062   -0.590222   -0.805351
     54          6           0       10.193364   -2.190193   -1.143577
     55          6           0       11.448590   -0.295971    0.060999
     56          6           0       12.804185   -0.633243   -0.613439
     57          6           0       14.057093   -0.147845    0.249241
     58          6           0       15.382661   -0.242065   -0.391348
     59          6           0       15.768304   -1.692273   -0.892294
     60          6           0       16.438369    0.334775    0.423938
     61          6           0       17.881182    0.307835   -0.080144
     62          6           0       18.773314    1.313769    0.771043
     63          6           0       20.240299    1.482154    0.287200
     64          6           0       20.260276    2.066425   -1.156799
     65          6           0       21.125142    2.262991    1.330257
     66          1           0       -3.955741    3.666142    1.580477
     67          1           0      -10.176626    3.790141   -0.742635
     68          1           0      -10.054637   -2.546233   -1.116046
     69          1           0       -2.628327   -1.203137    1.961561
     70          1           0       -2.176111    1.536921    1.172992
     71          1           0       -2.008065    0.742278    3.680955
     72          1           0       -3.160983    2.100617    3.632038
     73          1           0       -3.791747    0.500841    3.530952
     74          1           0       -1.967826   -1.467962   -0.517952
     75          1           0       -2.173668    0.135342   -0.512483
     76          1           0       -0.071343    0.629043    0.887121
     77          1           0       -0.057694   -0.976835    1.347373
     78          1           0       -5.963192    6.889237    0.457863
     79          1           0       -5.444019    6.482904    2.070976
     80          1           0       -4.451182    5.652782    0.684028
     81          1           0       -9.179924    5.952007   -0.786512
     82          1           0       -9.031616    7.958248    0.573310
     83          1           0       -7.915087    7.115927    1.843528
     84          1           0      -11.958850    3.364586   -2.236042
     85          1           0      -13.242376    1.986546   -1.439824
     86          1           0      -12.323971    3.167034   -0.494356
     87          1           0      -12.560294   -1.659169   -0.835758
     88          1           0      -13.420102   -0.327651   -1.328299
     89          1           0      -13.143218   -1.799599   -3.701074
     90          1           0      -12.370639   -0.169486   -3.513272
     91          1           0      -11.140234   -1.340900   -3.422787
     92          1           0       -8.938981   -4.617835   -1.934378
     93          1           0       -8.355260   -5.799643   -0.619437
     94          1           0       -9.862792   -4.675239   -0.321685
     95          1           0       -3.427802   -3.601748   -0.401695
     96          1           0       -1.452158   -4.690109    3.398619
     97          1           0       -3.038332   -5.726016    3.559746
     98          1           0       -1.427678   -6.248683    2.547718
     99          1           0        2.833390   -1.665444   -1.648775
    100          1           0        2.635626    0.137612   -2.247848
    101          1           0        4.323050   -1.172376    0.079860
    102          1           0        4.063227    1.237625   -2.534974
    103          1           0        5.443875    2.285117   -1.982330
    104          1           0        5.755580    0.858088   -2.957662
    105          1           0        6.698560    1.487441    0.046189
    106          1           0        6.394183   -0.045339    0.627223
    107          1           0        7.405041   -1.245388   -1.299462
    108          1           0        8.013256    0.442226   -1.868780
    109          1           0        9.232792    0.834039    0.114295
    110          1           0        8.576445   -0.695089    0.867496
    111          1           0       10.414017   -0.041913   -1.693763
    112          1           0        9.183711   -2.300645   -1.839574
    113          1           0       11.017461   -2.221780   -1.878004
    114          1           0       10.092253   -2.886445   -0.375247
    115          1           0       11.290913    0.871067    0.153430
    116          1           0       11.455981   -0.655896    1.089192
    117          1           0       12.955390   -1.598282   -0.834079
    118          1           0       12.909376   -0.093178   -1.657468
    119          1           0       14.015531    0.916524    0.460641
    120          1           0       13.766425   -0.760090    1.129928
    121          1           0       15.278852    0.284839   -1.284497
    122          1           0       15.738157   -2.437849    0.000536
    123          1           0       14.909849   -2.066800   -1.489744
    124          1           0       16.767838   -1.608256   -1.447469
    125          1           0       16.186526    1.535725    0.807306
    126          1           0       16.545324   -0.152787    1.453584
    127          1           0       18.272245   -0.602970   -0.142744
    128          1           0       17.846116    0.763872   -1.064320
    129          1           0       18.219983    2.567204    0.601211
    130          1           0       18.776340    0.965567    1.910093
    131          1           0       20.642229    0.378708    0.190996
    132          1           0       19.777591    3.277060   -1.335269
    133          1           0       21.268146    2.267841   -1.459535
    134          1           0       19.764267    1.532200   -1.935394
    135          1           0       20.981697    1.934511    2.434410
    136          1           0       22.239683    2.289131    1.044155
    137          1           0       20.740492    3.297870    1.194183
 ---------------------------------------------------------------------

 SCF Done:  E(RCAM-B3LYP) =  -2932.63496178     A.U. after   16 cycles

 Excitation energies and oscillator strengths:

 Excited State   1:      Singlet-A      1.8993 eV  652.78 nm  f=0.2804  <S**2>=0.000
     240 -> 243        0.22740
     241 -> 242        0.66420
 This state for optimization and/or second-order correction.
 Total Energy, E(TD-HF/TD-DFT) =  -2932.56516317
 Copying the excited state density for this state as the 1-particle RhoCI density.

 The electronic state is 1-A.
 Alpha  occ. eigenvalues --  -46.83376 -19.27871 -19.27098 -19.20967 -19.20749
 Alpha  occ. eigenvalues --  -19.19638 -14.42022 -14.39611 -14.39395 -14.38208
 Alpha  occ. eigenvalues --  -10.39287 -10.38932 -10.34790 -10.33641 -10.33102
 Alpha  occ. eigenvalues --  -10.30995 -10.30258 -10.30216 -10.29036 -10.28998
 Alpha  occ. eigenvalues --  -10.28875 -10.28679 -10.28653 -10.28392 -10.28217
 Alpha  occ. eigenvalues --  -10.28188 -10.27978 -10.27955 -10.27910 -10.27669
 Alpha  occ. eigenvalues --  -10.27598 -10.27544 -10.27359 -10.27353 -10.27292
 Alpha  occ. eigenvalues --  -10.27102 -10.27057 -10.27032 -10.26952 -10.26914
 Alpha  occ. eigenvalues --  -10.26729 -10.26587 -10.26585 -10.26559 -10.26367
 Alpha  occ. eigenvalues --  -10.26335 -10.26311 -10.26247 -10.26241 -10.26201
 Alpha  occ. eigenvalues --  -10.26177 -10.26117 -10.26054 -10.26053 -10.25866
 Alpha  occ. eigenvalues --  -10.25750 -10.25658 -10.25551 -10.25548 -10.24993
 Alpha  occ. eigenvalues --  -10.24933 -10.24896 -10.24841 -10.24794 -10.24526
 Alpha  occ. eigenvalues --   -3.12620  -1.87307  -1.86880  -1.86801  -1.20687
 Alpha  occ. eigenvalues --   -1.17911  -1.16640  -1.09121  -1.06248  -1.04190
 Alpha  occ. eigenvalues --   -1.03192  -1.02443  -1.01677  -0.91616  -0.91234
 Alpha  occ. eigenvalues --   -0.90894  -0.90083  -0.89392  -0.88256  -0.87968
 Alpha  occ. eigenvalues --   -0.87689  -0.87652  -0.87372  -0.86804  -0.86412
 Alpha  occ. eigenvalues --   -0.84695  -0.83717  -0.82848  -0.82558  -0.81794
 Alpha  occ. eigenvalues --   -0.81435  -0.80862  -0.79876  -0.79415  -0.78145
 Alpha  occ. eigenvalues --   -0.77264  -0.76579  -0.76234  -0.75365  -0.75087
 Alpha  occ. eigenvalues --   -0.74877  -0.74536  -0.73936  -0.73124  -0.71905
 Alpha  occ. eigenvalues --   -0.71165  -0.70792  -0.70058  -0.69601  -0.67670
 Alpha  occ. eigenvalues --   -0.67207  -0.66592  -0.65250  -0.64805  -0.64404
 Alpha  occ. eigenvalues --   -0.63958  -0.63628  -0.63472  -0.62413  -0.61555
 Alpha  occ. eigenvalues --   -0.60758  -0.60365  -0.59717  -0.59448  -0.58952
 Alpha  occ. eigenvalues --   -0.58118  -0.58087  -0.57637  -0.57324  -0.56465
 Alpha  occ. eigenvalues --   -0.56041  -0.55595  -0.55389  -0.54902  -0.54296
 Alpha  occ. eigenvalues --   -0.54139  -0.53641  -0.53609  -0.53354  -0.53118
 Alpha  occ. eigenvalues --   -0.53007  -0.52912  -0.52060  -0.51210  -0.51104
 Alpha  occ. eigenvalues --   -0.50910  -0.50777  -0.50758  -0.50400  -0.50101
 Alpha  occ. eigenvalues --   -0.50015  -0.49660  -0.49615  -0.49422  -0.49250
 Alpha  occ. eigenvalues --   -0.49112  -0.48808  -0.48599  -0.48450  -0.48151
 Alpha  occ. eigenvalues --   -0.47817  -0.47748  -0.47497  -0.47259  -0.47240
 Alpha  occ. eigenvalues --   -0.47068  -0.46721  -0.46509  -0.46445  -0.46190
 Alpha  occ. eigenvalues --   -0.45931  -0.45562  -0.45317  -0.45147  -0.44958
 Alpha  occ. eigenvalues --   -0.44634  -0.44487  -0.44275  -0.44085  -0.43952
 Alpha  occ. eigenvalues --   -0.43743  -0.43654  -0.43041  -0.42945  -0.42651
 Alpha  occ. eigenvalues --   -0.42583  -0.42507  -0.42258  -0.42072  -0.42006
 Alpha  occ. eigenvalues --   -0.41889  -0.41711  -0.41454  -0.41293  -0.41058
 Alpha  occ. eigenvalues --   -0.40978  -0.40625  -0.40564  -0.40223  -0.40108
 Alpha  occ. eigenvalues --   -0.39986  -0.39762  -0.39521  -0.39503  -0.39123
 Alpha  occ. eigenvalues --   -0.39066  -0.38795  -0.38651  -0.38089  -0.37903
 Alpha  occ. eigenvalues --   -0.37569  -0.37267  -0.36690  -0.36535  -0.36418
 Alpha  occ. eigenvalues --   -0.36343  -0.35916  -0.35741  -0.35633  -0.35321
 Alpha  occ. eigenvalues --   -0.34732  -0.34610  -0.34594  -0.34098  -0.33811
 Alpha  occ. eigenvalues --   -0.33425  -0.32598  -0.31602  -0.30625  -0.29587
 Alpha  occ. eigenvalues --   -0.29448  -0.29032  -0.28524  -0.26952  -0.22522
 Alpha  occ. eigenvalues --   -0.20592
 Alpha virt. eigenvalues --   -0.06799  -0.02169   0.02325   0.04234   0.05296
 Alpha virt. eigenvalues --    0.05463   0.05988   0.06499   0.06809   0.07290
 Alpha virt. eigenvalues --    0.08334   0.10816   0.10930   0.11291   0.11673

 Mulliken charges:
               1
     1  Mg   0.819426
     2  C    0.067806
     3  C   -0.188806
     4  C   -0.180179
     5  C   -0.198458
     6  N   -0.621479
     7  C    0.312236
     8  C   -0.147834
     9  C   -0.146802
    10  C    0.295808
    11  C   -0.310108
    12  C   -0.175327
    13  C   -0.295490
    14  C    0.631392
    15  O   -0.491068
    16  O   -0.428230
    17  N   -0.691752
    18  C    0.299316
    19  C   -0.010896
    20  C    0.008346
    21  C    0.295165
    22  C   -0.368695
    23  C   -0.077327
    24  C   -0.229198
    25  N   -0.683401
    26  C    0.307952
    27  C   -0.012031
    28  C    0.038676
    29  C    0.315030
    30  C   -0.342326
    31  C   -0.245595
    32  C   -0.313633
    33  N   -0.734157
    34  C    0.222397
    35  C    0.025995
    36  C   -0.055686
    37  C    0.333043
    38  C   -0.369084
    39  C    0.375545
    40  O   -0.372217
    41  C   -0.332404
    42  C    0.617005
    43  O   -0.517928
    44  O   -0.434285
    45  C   -0.087512
    46  C    0.022459
    47  C   -0.158362
    48  C    0.123228
    49  C   -0.341906
    50  C   -0.236506
    51  C   -0.170628
    52  C   -0.166772
    53  C   -0.074144
    54  C   -0.312059
    55  C   -0.159962
    56  C   -0.202666
    57  C   -0.164971
    58  C   -0.050611
    59  C   -0.320221
    60  C   -0.149897
    61  C   -0.183055
    62  C   -0.134342
    63  C   -0.047532
    64  C   -0.297839
    65  C   -0.306898
    66  H    0.096639
    67  H    0.080000
    68  H    0.084379
    69  H    0.125303
    70  H    0.108068
    71  H    0.086832
    72  H    0.120580
    73  H    0.112213
    74  H    0.123101
    75  H    0.124164
    76  H    0.142508
    77  H    0.129554
    78  H    0.114566
    79  H    0.093136
    80  H    0.121328
    81  H    0.100977
    82  H    0.103901
    83  H    0.118579
    84  H    0.091450
    85  H    0.104740
    86  H    0.143998
    87  H    0.086370
    88  H    0.112713
    89  H    0.102847
    90  H    0.140828
    91  H    0.119529
    92  H    0.140681
    93  H    0.126322
    94  H    0.113484
    95  H    0.146166
    96  H    0.138904
    97  H    0.141687
    98  H    0.129992
    99  H    0.135776
   100  H    0.085756
   101  H    0.079423
   102  H    0.107321
   103  H    0.109340
   104  H    0.126983
   105  H    0.090904
   106  H    0.106745
   107  H    0.113469
   108  H    0.084732
   109  H    0.090288
   110  H    0.062875
   111  H    0.098117
   112  H    0.063387
   113  H    0.107633
   114  H    0.118458
   115  H    0.070090
   116  H    0.097596
   117  H    0.116589
   118  H    0.062506
   119  H    0.093810
   120  H    0.085714
   121  H    0.097658
   122  H    0.090910
   123  H    0.100450
   124  H    0.102101
   125  H    0.050487
   126  H    0.080532
   127  H    0.112260
   128  H    0.097583
   129  H    0.031812
   130  H    0.074188
   131  H    0.074686
   132  H    0.046131
   133  H    0.109635
   134  H    0.119600
   135  H    0.100336
   136  H    0.097816
   137  H    0.110218
 Sum of Mulliken charges =  -0.00000

 Dipole moment (field-independent basis, Debye):
    X=              2.7400    Y=              2.4687    Z=              0.2382  Tot=              3.6958
 Quadrupole moment (field-independent basis, Debye-Ang):
   XX=           -326.2483   YY=           -388.1282   ZZ=           -400.6119
   XY=            -27.6345   XZ=              9.0806   YZ=             -5.0386

 Normal termination of Gaussian 16 at Sat Jun 29 20:34:13 2019.
