 Gaussian 16, Revision A.03,
 Gaussian 16:  ES64L-G16RevA.03 25-Dec-2016

 ----------------------------------------------------------------------
 # td=(NStates=1) iop(3/107=0140000000,3/108=0140000000) CAM-B3LYP/6-31
 G(d,p)
 ----------------------------------------------------------------------

 --
 TD
 --
 Symbolic Z-matrix:
 Charge =  0 Multiplicity = 1

                         Standard orientation:
 ---------------------------------------------------------------------
 Center     Atomic      Atomic             Coordinates (Angstroms)
 Number     Number       Type             X           Y           Z
 ---------------------------------------------------------------------
      1         12           0       -7.078519    0.597802    0.048135
      2          6           0       -4.886022   -1.984317    0.438122
      3          6           0       -4.736363    2.757158    1.196403
      4          6           0       -9.448919    3.071146   -0.273520
      5          6           0       -9.457738   -1.808170   -0.954683
      6          7           0       -5.067027    0.529061    0.768876
      7          6           0       -4.350352   -0.685673    0.751377
      8          6           0       -2.964979   -0.460034    1.194891
      9          6           0       -2.983897    0.993096    1.722976
     10          6           0       -4.312743    1.493807    1.171675
     11          6           0       -2.796571    0.975475    3.154263
     12          6           0       -1.942772   -0.599657    0.038212
     13          6           0       -0.398669   -0.428432    0.479139
     14          6           0        0.501754   -0.447635   -0.764864
     15          8           0        0.203793   -0.948177   -1.868513
     16          8           0        1.770002   -0.198664   -0.376070
     17          7           0       -7.051373    2.601568    0.346023
     18          6           0       -6.002180    3.344961    0.824116
     19          6           0       -6.350879    4.724506    0.829979
     20          6           0       -7.642715    4.859791    0.421320
     21          6           0       -8.114242    3.473122    0.203502
     22          6           0       -5.475789    5.764012    1.180906
     23          6           0       -8.599800    5.968269    0.319007
     24          6           0       -8.384153    7.271847    0.860269
     25          7           0       -9.125243    0.667816   -0.513255
     26          6           0       -9.879254    1.785721   -0.629442
     27          6           0      -11.175643    1.484862   -1.140072
     28          6           0      -11.253668    0.100639   -1.259924
     29          6           0       -9.942920   -0.437161   -0.873206
     30          6           0      -12.327741    2.463681   -1.324436
     31          6           0      -12.425432   -0.778854   -1.790507
     32          6           0      -12.292171   -1.160586   -3.210451
     33          7           0       -7.231629   -1.432490   -0.171230
     34          6           0       -8.243736   -2.282174   -0.622690
     35          6           0       -7.792456   -3.613092   -0.482008
     36          6           0       -6.475611   -3.624979   -0.032936
     37          6           0       -6.207475   -2.234118    0.099938
     38          6           0       -8.560342   -4.846932   -0.817575
     39          6           0       -5.259098   -4.372465    0.180005
     40          8           0       -5.114597   -5.585225    0.244828
     41          6           0       -4.165915   -3.301037    0.605882
     42          6           0       -3.542355   -3.684635    1.905421
     43          8           0       -3.867553   -3.190225    2.990815
     44          8           0       -2.700969   -4.743572    1.806445
     45          6           0       -2.252266   -5.260209    3.012190
     46          6           0        2.790070   -0.422945   -1.343732
     47          6           0        4.138934   -0.240079   -0.684721
     48          6           0        5.049465    0.621486   -1.113571
     49          6           0        5.089267    1.348258   -2.404977
     50          6           0        6.350323    0.598244   -0.302125
     51          6           0        7.610327   -0.042594   -1.010105
     52          6           0        8.867303    0.096137   -0.110294
     53          6           0       10.180841   -0.420828   -0.983766
     54          6           0       10.007044   -2.029882   -1.218355
     55          6           0       11.443040   -0.145237    0.019684
     56          6           0       12.810175   -0.522788   -0.609517
     57          6           0       14.008787   -0.061227    0.166391
     58          6           0       15.240498   -0.279342   -0.500079
     59          6           0       15.459036   -1.737527   -0.896909
     60          6           0       16.398520    0.348226    0.348970
     61          6           0       17.831196    0.393766   -0.154299
     62          6           0       18.832376    1.056491    0.769398
     63          6           0       20.309966    1.254802    0.275195
     64          6           0       20.337033    2.168369   -0.942280
     65          6           0       21.174705    1.628471    1.446186
     66          1           0       -3.934876    3.346831    1.679205
     67          1           0      -10.255721    4.049669   -0.565624
     68          1           0      -10.342149   -2.595781   -1.146225
     69          1           0       -2.388546   -1.015696    2.029971
     70          1           0       -2.289552    1.532512    1.088812
     71          1           0       -1.957604    0.743122    3.558116
     72          1           0       -2.948595    1.865784    3.553554
     73          1           0       -3.496977    0.160222    3.640816
     74          1           0       -1.906929   -1.519318   -0.282230
     75          1           0       -2.382214    0.035334   -0.734178
     76          1           0       -0.411044    0.755838    0.884647
     77          1           0        0.049631   -1.175805    1.245514
     78          1           0       -5.619909    6.734211    0.633561
     79          1           0       -5.657630    6.205508    2.165263
     80          1           0       -4.534078    5.565943    1.137975
     81          1           0       -9.527236    5.934483   -0.221024
     82          1           0       -9.183589    8.111679    0.712627
     83          1           0       -7.472896    7.534302    1.567788
     84          1           0      -11.920984    3.225676   -2.070138
     85          1           0      -13.296368    2.127359   -1.801912
     86          1           0      -12.732034    2.910501   -0.440123
     87          1           0      -12.807946   -1.729434   -1.152564
     88          1           0      -13.345359   -0.098845   -1.676313
     89          1           0      -13.087107   -2.006188   -3.475313
     90          1           0      -12.406640   -0.313432   -3.964783
     91          1           0      -11.340650   -1.776362   -3.237480
     92          1           0       -9.011299   -5.075961   -1.767342
     93          1           0       -8.042151   -5.702394   -0.442892
     94          1           0       -9.527121   -4.964772   -0.259749
     95          1           0       -3.191101   -3.372463   -0.166340
     96          1           0       -1.476182   -4.588851    3.560962
     97          1           0       -3.086929   -5.330089    3.546214
     98          1           0       -1.738469   -6.022713    2.761709
     99          1           0        2.629787   -1.437068   -1.685394
    100          1           0        2.320533    0.083297   -2.183565
    101          1           0        3.993616   -0.580819    0.319145
    102          1           0        4.204863    1.276861   -3.331792
    103          1           0        5.249451    2.365800   -2.336435
    104          1           0        5.741930    1.090378   -3.061659
    105          1           0        6.641355    1.612295    0.079010
    106          1           0        6.302632    0.181440    0.400118
    107          1           0        7.451277   -1.178572   -1.129645
    108          1           0        7.646856    0.342289   -2.145126
    109          1           0        9.132164    1.002690    0.134479
    110          1           0        8.767224   -0.433889    0.822189
    111          1           0       10.452790    0.157901   -1.851216
    112          1           0        9.324936   -2.163705   -1.920928
    113          1           0       10.866736   -2.351413   -1.818143
    114          1           0        9.639268   -2.594025   -0.275573
    115          1           0       11.420970    0.932772    0.063868
    116          1           0       11.209451   -0.537315    1.015238
    117          1           0       12.933247   -1.647483   -0.942148
    118          1           0       12.739004   -0.047496   -1.608209
    119          1           0       13.958458    1.015387    0.405908
    120          1           0       14.221380   -0.740520    1.121730
    121          1           0       15.313320    0.212785   -1.370875
    122          1           0       15.199559   -2.409176   -0.028080
    123          1           0       14.773697   -1.909103   -1.691442
    124          1           0       16.540948   -1.964767   -1.127246
    125          1           0       16.018970    1.477772    0.707548
    126          1           0       16.321243   -0.541329    1.140157
    127          1           0       18.367723   -0.533711   -0.277806
    128          1           0       17.710718    0.945049   -1.083546
    129          1           0       18.526969    2.159303    1.178483
    130          1           0       18.937066    0.519769    1.745690
    131          1           0       20.654173    0.250828   -0.031360
    132          1           0       19.779887    3.109552   -0.645327
    133          1           0       21.298061    2.225441   -1.365202
    134          1           0       19.672332    1.747897   -1.875169
    135          1           0       21.367817    0.974169    2.247658
    136          1           0       22.254606    2.043076    1.155988
    137          1           0       20.914187    2.581946    1.929396
 ---------------------------------------------------------------------

 SCF Done:  E(RCAM-B3LYP) =  -2933.37072024     A.U. after   16 cycles

 Excitation energies and oscillator strengths:

 Excited State   1:      Singlet-A      2.0505 eV  604.64 nm  f=0.2281  <S**2>=0.000
     240 -> 243       -0.26482
     241 -> 242        0.64528
 This state for optimization and/or second-order correction.
 Total Energy, E(TD-HF/TD-DFT) =  -2933.29536463
 Copying the excited state density for this state as the 1-particle RhoCI density.

 The electronic state is 1-A.
 Alpha  occ. eigenvalues --  -46.80620 -19.21870 -19.21759 -19.16823 -19.16342
 Alpha  occ. eigenvalues --  -19.16206 -14.37559 -14.35629 -14.35326 -14.35168
 Alpha  occ. eigenvalues --  -10.34839 -10.34431 -10.30994 -10.27020 -10.26044
 Alpha  occ. eigenvalues --  -10.26029 -10.25734 -10.25715 -10.25449 -10.25416
 Alpha  occ. eigenvalues --  -10.25289 -10.24826 -10.24599 -10.24480 -10.24395
 Alpha  occ. eigenvalues --  -10.24386 -10.24325 -10.24301 -10.24111 -10.23902
 Alpha  occ. eigenvalues --  -10.23742 -10.23355 -10.23058 -10.23035 -10.22965
 Alpha  occ. eigenvalues --  -10.22676 -10.22668 -10.22543 -10.22423 -10.22274
 Alpha  occ. eigenvalues --  -10.22239 -10.22228 -10.21999 -10.21947 -10.21765
 Alpha  occ. eigenvalues --  -10.21697 -10.21563 -10.21534 -10.21420 -10.21385
 Alpha  occ. eigenvalues --  -10.21307 -10.21253 -10.21184 -10.20980 -10.20750
 Alpha  occ. eigenvalues --  -10.20693 -10.20637 -10.20604 -10.20481 -10.20218
 Alpha  occ. eigenvalues --  -10.20164 -10.19647 -10.19514 -10.19344 -10.19203
 Alpha  occ. eigenvalues --   -3.09057  -1.84013  -1.83538  -1.83441  -1.13418
 Alpha  occ. eigenvalues --   -1.12889  -1.05899  -1.03492  -1.03163  -1.00486
 Alpha  occ. eigenvalues --   -0.99583  -0.98165  -0.96778  -0.87997  -0.86724
 Alpha  occ. eigenvalues --   -0.86471  -0.85697  -0.84368  -0.83926  -0.83620
 Alpha  occ. eigenvalues --   -0.82673  -0.82570  -0.82521  -0.82136  -0.81124
 Alpha  occ. eigenvalues --   -0.80122  -0.79506  -0.79121  -0.78374  -0.77747
 Alpha  occ. eigenvalues --   -0.77385  -0.76778  -0.75628  -0.75518  -0.74230
 Alpha  occ. eigenvalues --   -0.73368  -0.72679  -0.72330  -0.72008  -0.71190
 Alpha  occ. eigenvalues --   -0.71088  -0.70981  -0.70331  -0.69320  -0.68554
 Alpha  occ. eigenvalues --   -0.67702  -0.66367  -0.65240  -0.64486  -0.63604
 Alpha  occ. eigenvalues --   -0.62479  -0.62318  -0.61066  -0.60970  -0.60318
 Alpha  occ. eigenvalues --   -0.59908  -0.59797  -0.59144  -0.58290  -0.58017
 Alpha  occ. eigenvalues --   -0.57757  -0.57694  -0.56648  -0.56449  -0.55731
 Alpha  occ. eigenvalues --   -0.55111  -0.54666  -0.53932  -0.53393  -0.52881
 Alpha  occ. eigenvalues --   -0.52210  -0.52155  -0.51812  -0.51632  -0.51333
 Alpha  occ. eigenvalues --   -0.51206  -0.50388  -0.50183  -0.49976  -0.49615
 Alpha  occ. eigenvalues --   -0.49496  -0.48951  -0.48294  -0.48016  -0.47822
 Alpha  occ. eigenvalues --   -0.47729  -0.47171  -0.47104  -0.47049  -0.46729
 Alpha  occ. eigenvalues --   -0.46659  -0.46476  -0.46403  -0.46242  -0.46140
 Alpha  occ. eigenvalues --   -0.45892  -0.45497  -0.45373  -0.45058  -0.44945
 Alpha  occ. eigenvalues --   -0.44675  -0.44445  -0.44165  -0.44023  -0.43877
 Alpha  occ. eigenvalues --   -0.43653  -0.43291  -0.43114  -0.42713  -0.42642
 Alpha  occ. eigenvalues --   -0.42435  -0.42359  -0.41751  -0.41547  -0.41459
 Alpha  occ. eigenvalues --   -0.41261  -0.40961  -0.40944  -0.40542  -0.40491
 Alpha  occ. eigenvalues --   -0.40362  -0.40181  -0.39882  -0.39829  -0.39628
 Alpha  occ. eigenvalues --   -0.39574  -0.39391  -0.39119  -0.38900  -0.38741
 Alpha  occ. eigenvalues --   -0.38615  -0.38551  -0.38135  -0.38080  -0.38014
 Alpha  occ. eigenvalues --   -0.37966  -0.37866  -0.37554  -0.37150  -0.37107
 Alpha  occ. eigenvalues --   -0.37006  -0.36908  -0.36632  -0.36237  -0.36172
 Alpha  occ. eigenvalues --   -0.35601  -0.35509  -0.35365  -0.34897  -0.34800
 Alpha  occ. eigenvalues --   -0.34351  -0.34317  -0.33930  -0.33751  -0.33390
 Alpha  occ. eigenvalues --   -0.33170  -0.32869  -0.32591  -0.32328  -0.32308
 Alpha  occ. eigenvalues --   -0.32260  -0.32161  -0.31118  -0.30710  -0.30156
 Alpha  occ. eigenvalues --   -0.29962  -0.29866  -0.29327  -0.28564  -0.27614
 Alpha  occ. eigenvalues --   -0.27379  -0.27241  -0.25708  -0.24657  -0.21598
 Alpha  occ. eigenvalues --   -0.20376
 Alpha virt. eigenvalues --   -0.07304  -0.04490  -0.00901   0.01656   0.02533
 Alpha virt. eigenvalues --    0.03254   0.03877   0.04160   0.04867   0.05589
 Alpha virt. eigenvalues --    0.06484   0.08490   0.08712   0.09349   0.09792

 Mulliken charges:
               1
     1  Mg   0.816320
     2  C    0.087617
     3  C   -0.207059
     4  C   -0.171175
     5  C   -0.204917
     6  N   -0.636232
     7  C    0.307761
     8  C   -0.188781
     9  C   -0.124565
    10  C    0.351434
    11  C   -0.302036
    12  C   -0.161638
    13  C   -0.274631
    14  C    0.602500
    15  O   -0.482722
    16  O   -0.465276
    17  N   -0.703216
    18  C    0.328971
    19  C    0.047959
    20  C    0.048051
    21  C    0.256254
    22  C   -0.401577
    23  C   -0.081571
    24  C   -0.252005
    25  N   -0.693881
    26  C    0.340977
    27  C    0.032275
    28  C    0.020049
    29  C    0.265697
    30  C   -0.382392
    31  C   -0.240361
    32  C   -0.283477
    33  N   -0.747578
    34  C    0.342572
    35  C   -0.007115
    36  C    0.083537
    37  C    0.301608
    38  C   -0.407440
    39  C    0.355710
    40  O   -0.457252
    41  C   -0.326282
    42  C    0.623745
    43  O   -0.490966
    44  O   -0.435232
    45  C   -0.047979
    46  C    0.014490
    47  C   -0.151416
    48  C    0.132630
    49  C   -0.363944
    50  C   -0.145427
    51  C   -0.188848
    52  C   -0.174533
    53  C   -0.082393
    54  C   -0.312751
    55  C   -0.181718
    56  C   -0.184692
    57  C   -0.119704
    58  C   -0.064114
    59  C   -0.319747
    60  C   -0.153839
    61  C   -0.162803
    62  C   -0.165487
    63  C   -0.043622
    64  C   -0.294922
    65  C   -0.320904
    66  H    0.066822
    67  H    0.077259
    68  H    0.091444
    69  H    0.106329
    70  H    0.101098
    71  H    0.123688
    72  H    0.107051
    73  H    0.118636
    74  H    0.126204
    75  H    0.112451
    76  H    0.104018
    77  H    0.141842
    78  H    0.118275
    79  H    0.121123
    80  H    0.115789
    81  H    0.097578
    82  H    0.098306
    83  H    0.094183
    84  H    0.111735
    85  H    0.110522
    86  H    0.133875
    87  H    0.092817
    88  H    0.090201
    89  H    0.081936
    90  H    0.111942
    91  H    0.106055
    92  H    0.134170
    93  H    0.146056
    94  H    0.112615
    95  H    0.134307
    96  H    0.087762
    97  H    0.136791
    98  H    0.123392
    99  H    0.118129
   100  H    0.122322
   101  H    0.106071
   102  H    0.071624
   103  H    0.129602
   104  H    0.141413
   105  H    0.077281
   106  H    0.070454
   107  H    0.092688
   108  H    0.075165
   109  H    0.102222
   110  H    0.098646
   111  H    0.088761
   112  H    0.117939
   113  H    0.096361
   114  H    0.097940
   115  H    0.089899
   116  H    0.089041
   117  H    0.085582
   118  H    0.081881
   119  H    0.082284
   120  H    0.067917
   121  H    0.084642
   122  H    0.089738
   123  H    0.114819
   124  H    0.097628
   125  H    0.063345
   126  H    0.061580
   127  H    0.099976
   128  H    0.094712
   129  H    0.052160
   130  H    0.086820
   131  H    0.082133
   132  H    0.100041
   133  H    0.111456
   134  H    0.077647
   135  H    0.118270
   136  H    0.073179
   137  H    0.100426
 Sum of Mulliken charges =  -0.00000

 Dipole moment (field-independent basis, Debye):
    X=              2.5150    Y=              4.0076    Z=             -0.0036  Tot=              4.7314
 Quadrupole moment (field-independent basis, Debye-Ang):
   XX=           -345.2493   YY=           -394.9343   ZZ=           -398.0433
   XY=            -18.0856   XZ=              6.7310   YZ=             -1.9937

 Normal termination of Gaussian 16 at Sat Sep 14 21:06:09 2019.
