 Gaussian 09, Revision D.01,
 Gaussian 09:  ES64L-G09RevD.01 24-Apr-2013

 -------------------------------------
 # td=(NStates=1) CAM-B3LYP/6-31G(d,p)
 -------------------------------------

 --
 TD
 --
 Symbolic Z-matrix:
 Charge =  0 Multiplicity = 1

                         Standard orientation:
 ---------------------------------------------------------------------
 Center     Atomic      Atomic             Coordinates (Angstroms)
 Number     Number       Type             X           Y           Z
 ---------------------------------------------------------------------
      1         12           0       -7.151212    0.595128   -0.061371
      2          6           0       -4.809578   -1.897632    0.543124
      3          6           0       -4.856755    2.821509    1.114871
      4          6           0       -9.391883    3.124569   -0.436305
      5          6           0       -9.565612   -1.766505   -0.868709
      6          7           0       -5.069804    0.407657    0.731032
      7          6           0       -4.306106   -0.603309    0.884191
      8          6           0       -2.945894   -0.238546    1.209820
      9          6           0       -3.045057    1.167089    1.663218
     10          6           0       -4.404597    1.514254    1.161793
     11          6           0       -2.996594    1.271325    3.268127
     12          6           0       -1.970527   -0.548113    0.160767
     13          6           0       -0.441614   -0.391626    0.670952
     14          6           0        0.467744   -0.711204   -0.454210
     15          8           0        0.160807   -1.018210   -1.612444
     16          8           0        1.746127   -0.392345   -0.144389
     17          7           0       -7.054801    2.549675    0.162745
     18          6           0       -6.100592    3.418614    0.753915
     19          6           0       -6.451167    4.810506    0.901470
     20          6           0       -7.711762    4.868771    0.351353
     21          6           0       -8.125812    3.442569   -0.025541
     22          6           0       -5.532603    5.848602    1.225610
     23          6           0       -8.664264    6.030458    0.126340
     24          6           0       -8.526350    7.153694    0.750775
     25          7           0       -9.090218    0.595694   -0.659049
     26          6           0       -9.832119    1.760998   -0.703974
     27          6           0      -11.144687    1.456309   -1.137306
     28          6           0      -11.157641    0.055095   -1.290649
     29          6           0       -9.870764   -0.410222   -0.953303
     30          6           0      -12.245770    2.318850   -1.440370
     31          6           0      -12.329473   -0.761952   -1.775158
     32          6           0      -12.364372   -1.279080   -3.204652
     33          7           0       -7.172205   -1.424389   -0.203750
     34          6           0       -8.262669   -2.185106   -0.615229
     35          6           0       -7.785179   -3.583427   -0.437510
     36          6           0       -6.421674   -3.553868   -0.061091
     37          6           0       -6.120519   -2.197558    0.036829
     38          6           0       -8.564280   -4.828252   -0.617548
     39          6           0       -5.251444   -4.305553    0.231824
     40          8           0       -5.110590   -5.533454    0.220036
     41          6           0       -4.006717   -3.200133    0.537604
     42          6           0       -3.398398   -3.590332    1.861350
     43          8           0       -3.486383   -3.015517    2.955471
     44          8           0       -2.692301   -4.800743    1.773157
     45          6           0       -1.919760   -5.176682    2.965431
     46          6           0        2.777242   -0.760820   -1.084307
     47          6           0        4.128712   -0.363383   -0.396123
     48          6           0        5.081100    0.385341   -0.922488
     49          6           0        4.886346    1.147923   -2.238762
     50          6           0        6.394699    0.412678   -0.262254
     51          6           0        7.590353   -0.138900   -1.017507
     52          6           0        8.931825   -0.057667   -0.276722
     53          6           0       10.232246   -0.632216   -0.984815
     54          6           0       10.079206   -2.146383   -1.302666
     55          6           0       11.474164   -0.381420   -0.033665
     56          6           0       12.816705   -0.585587   -0.754968
     57          6           0       13.941850   -0.319284    0.231611
     58          6           0       15.301956   -0.335006   -0.480901
     59          6           0       15.745111   -1.741175   -0.789206
     60          6           0       16.320279    0.451795    0.487587
     61          6           0       17.817934    0.485198   -0.160278
     62          6           0       18.655255    1.434233    0.710663
     63          6           0       20.048548    1.500588    0.132108
     64          6           0       20.313370    2.347552   -1.143784
     65          6           0       20.908609    2.131497    1.214720
     66          1           0       -4.177947    3.509279    1.579158
     67          1           0      -10.154496    3.830583   -0.310826
     68          1           0      -10.400394   -2.459212   -1.187196
     69          1           0       -2.800544   -0.891542    1.981300
     70          1           0       -2.361667    2.063785    1.086959
     71          1           0       -2.122365    0.744415    3.627662
     72          1           0       -3.204664    2.340163    3.437118
     73          1           0       -3.865389    0.650432    3.702834
     74          1           0       -2.051776   -1.526358   -0.094648
     75          1           0       -1.896674    0.291756   -0.594617
     76          1           0       -0.256633    0.487140    1.102942
     77          1           0       -0.220251   -1.018131    1.466756
     78          1           0       -5.710466    6.790506    0.734055
     79          1           0       -5.708124    6.093656    2.324702
     80          1           0       -4.609391    5.571395    0.837218
     81          1           0       -9.401044    5.755434   -0.443377
     82          1           0       -9.214147    7.850527    0.420453
     83          1           0       -7.675202    7.305799    1.438716
     84          1           0      -12.053293    3.042389   -2.327695
     85          1           0      -13.155112    1.773156   -1.722072
     86          1           0      -12.539730    3.187693   -0.653991
     87          1           0      -12.124964   -1.702649   -1.291088
     88          1           0      -13.358194   -0.468116   -1.571933
     89          1           0      -13.428015   -1.510052   -3.329820
     90          1           0      -12.116028   -0.512461   -3.712158
     91          1           0      -11.494627   -1.989565   -3.423337
     92          1           0       -8.967919   -4.916589   -1.630328
     93          1           0       -8.030414   -5.675986   -0.509773
     94          1           0       -9.248492   -4.928629    0.131562
     95          1           0       -3.239750   -3.296716   -0.366248
     96          1           0       -1.467111   -4.266775    3.275807
     97          1           0       -2.669430   -5.547923    3.664212
     98          1           0       -1.278498   -5.970064    2.526975
     99          1           0        2.673118   -1.962827   -1.266176
    100          1           0        2.475729   -0.248285   -1.984429
    101          1           0        4.365642   -1.121930    0.539514
    102          1           0        3.873396    0.905290   -2.734814
    103          1           0        5.025992    2.220342   -1.986307
    104          1           0        5.638609    1.091639   -3.076806
    105          1           0        6.760713    1.439277   -0.094081
    106          1           0        6.379245   -0.109219    0.795392
    107          1           0        7.605764   -1.303526   -1.161516
    108          1           0        7.631124    0.222643   -2.049114
    109          1           0        9.080740    0.939053   -0.103669
    110          1           0        8.869996   -0.864462    0.558603
    111          1           0       10.549298   -0.034478   -1.844709
    112          1           0        9.141205   -2.375759   -1.947145
    113          1           0       10.819431   -2.499044   -1.727978
    114          1           0        9.865072   -2.661565   -0.243663
    115          1           0       11.358275    0.707367    0.330128
    116          1           0       11.280918   -1.001092    0.733788
    117          1           0       12.856876   -1.607177   -0.846037
    118          1           0       12.901051    0.116041   -1.731415
    119          1           0       13.869115    0.544656    0.633607
    120          1           0       14.070839   -1.118080    1.042362
    121          1           0       15.257686    0.163714   -1.350058
    122          1           0       15.852434   -2.467706    0.127557
    123          1           0       14.923434   -2.290433   -1.403647
    124          1           0       16.593715   -1.680461   -1.407629
    125          1           0       15.995135    1.582700    0.257287
    126          1           0       16.469600   -0.098329    1.341496
    127          1           0       18.285076   -0.609436   -0.117081
    128          1           0       17.818920    0.663735   -1.299247
    129          1           0       18.257053    2.294941    0.659866
    130          1           0       18.784130    1.193528    1.701675
    131          1           0       20.472675    0.662119    0.122014
    132          1           0       19.642204    3.367300   -1.011990
    133          1           0       21.354103    2.565229   -1.184754
    134          1           0       19.884454    1.734686   -2.124483
    135          1           0       20.836215    1.642783    2.265110
    136          1           0       22.016480    2.256419    1.064567
    137          1           0       20.703624    3.158697    1.383074
 ---------------------------------------------------------------------

 SCF Done:  E(RCAM-B3LYP) =  -2932.61953653     A.U. after   16 cycles

 Excitation energies and oscillator strengths:

 Excited State   1:      Singlet-A      2.0860 eV  594.36 nm  f=0.1637  <S**2>=0.000
     240 -> 242       -0.11700
     240 -> 243       -0.30079
     241 -> 242        0.61605
 This state for optimization and/or second-order correction.
 Total Energy, E(TD-HF/TD-KS) =  -2932.54287652
 Copying the excited state density for this state as the 1-particle RhoCI density.

 The electronic state is 1-A.
 Alpha  occ. eigenvalues --  -46.83947 -19.25228 -19.24220 -19.20861 -19.20421
 Alpha  occ. eigenvalues --  -19.20159 -14.40880 -14.40195 -14.38841 -14.38529
 Alpha  occ. eigenvalues --  -10.39244 -10.38850 -10.35342 -10.32805 -10.31004
 Alpha  occ. eigenvalues --  -10.30361 -10.30335 -10.29840 -10.29782 -10.29676
 Alpha  occ. eigenvalues --  -10.29446 -10.28835 -10.28830 -10.28688 -10.28493
 Alpha  occ. eigenvalues --  -10.28095 -10.28058 -10.27786 -10.27349 -10.27331
 Alpha  occ. eigenvalues --  -10.27224 -10.27221 -10.27011 -10.26880 -10.26782
 Alpha  occ. eigenvalues --  -10.26693 -10.26682 -10.26475 -10.26308 -10.26293
 Alpha  occ. eigenvalues --  -10.26290 -10.26285 -10.25993 -10.25972 -10.25911
 Alpha  occ. eigenvalues --  -10.25889 -10.25645 -10.25368 -10.25301 -10.25286
 Alpha  occ. eigenvalues --  -10.25113 -10.25047 -10.24925 -10.24819 -10.24816
 Alpha  occ. eigenvalues --  -10.24725 -10.24715 -10.24372 -10.24176 -10.24024
 Alpha  occ. eigenvalues --  -10.23680 -10.23589 -10.23581 -10.23143 -10.22513
 Alpha  occ. eigenvalues --   -3.13082  -1.87780  -1.87321  -1.87270  -1.17230
 Alpha  occ. eigenvalues --   -1.15030  -1.09465  -1.07596  -1.07145  -1.06708
 Alpha  occ. eigenvalues --   -1.04313  -1.03252  -1.01848  -0.91747  -0.91386
 Alpha  occ. eigenvalues --   -0.91202  -0.90774  -0.90526  -0.90078  -0.89052
 Alpha  occ. eigenvalues --   -0.88454  -0.88357  -0.87916  -0.87296  -0.86506
 Alpha  occ. eigenvalues --   -0.85969  -0.84706  -0.83820  -0.83645  -0.82621
 Alpha  occ. eigenvalues --   -0.81575  -0.80864  -0.80361  -0.79687  -0.78900
 Alpha  occ. eigenvalues --   -0.78410  -0.77325  -0.76457  -0.75852  -0.75425
 Alpha  occ. eigenvalues --   -0.75077  -0.74896  -0.74158  -0.73670  -0.72343
 Alpha  occ. eigenvalues --   -0.71916  -0.71098  -0.69468  -0.69171  -0.68686
 Alpha  occ. eigenvalues --   -0.67365  -0.66248  -0.65928  -0.65449  -0.65026
 Alpha  occ. eigenvalues --   -0.64440  -0.63517  -0.63354  -0.62451  -0.62252
 Alpha  occ. eigenvalues --   -0.61476  -0.60954  -0.60132  -0.59936  -0.58921
 Alpha  occ. eigenvalues --   -0.58830  -0.58084  -0.57783  -0.56866  -0.56809
 Alpha  occ. eigenvalues --   -0.56594  -0.56552  -0.55658  -0.55370  -0.55207
 Alpha  occ. eigenvalues --   -0.54821  -0.54023  -0.53977  -0.53527  -0.53171
 Alpha  occ. eigenvalues --   -0.53077  -0.52621  -0.52341  -0.52107  -0.51954
 Alpha  occ. eigenvalues --   -0.51862  -0.51359  -0.51165  -0.51006  -0.50730
 Alpha  occ. eigenvalues --   -0.50646  -0.50443  -0.50221  -0.49915  -0.49605
 Alpha  occ. eigenvalues --   -0.49389  -0.49295  -0.49139  -0.48845  -0.48793
 Alpha  occ. eigenvalues --   -0.48656  -0.48149  -0.47818  -0.47699  -0.47605
 Alpha  occ. eigenvalues --   -0.47544  -0.47061  -0.46864  -0.46372  -0.46090
 Alpha  occ. eigenvalues --   -0.45889  -0.45739  -0.45294  -0.45001  -0.44703
 Alpha  occ. eigenvalues --   -0.44588  -0.44455  -0.44072  -0.43987  -0.43810
 Alpha  occ. eigenvalues --   -0.43669  -0.43527  -0.43369  -0.43237  -0.43095
 Alpha  occ. eigenvalues --   -0.42956  -0.42519  -0.42397  -0.42263  -0.42124
 Alpha  occ. eigenvalues --   -0.42038  -0.41889  -0.41753  -0.41560  -0.41492
 Alpha  occ. eigenvalues --   -0.41233  -0.41038  -0.40840  -0.40719  -0.40645
 Alpha  occ. eigenvalues --   -0.40518  -0.40125  -0.39873  -0.39714  -0.39162
 Alpha  occ. eigenvalues --   -0.38870  -0.38713  -0.38557  -0.38120  -0.38053
 Alpha  occ. eigenvalues --   -0.37729  -0.37583  -0.37329  -0.36997  -0.36840
 Alpha  occ. eigenvalues --   -0.36829  -0.36458  -0.35961  -0.35732  -0.35240
 Alpha  occ. eigenvalues --   -0.35025  -0.34712  -0.34555  -0.33540  -0.33394
 Alpha  occ. eigenvalues --   -0.32923  -0.32548  -0.31822  -0.30285  -0.30242
 Alpha  occ. eigenvalues --   -0.29464  -0.29094  -0.28693  -0.26940  -0.22769
 Alpha  occ. eigenvalues --   -0.20981
 Alpha virt. eigenvalues --   -0.05868  -0.03807   0.01783   0.04066   0.05532
 Alpha virt. eigenvalues --    0.05812   0.05969   0.06389   0.06927   0.07451
 Alpha virt. eigenvalues --    0.08922   0.10553   0.11378   0.11550   0.11663

 Mulliken charges:
               1
     1  Mg   0.828858
     2  C    0.018713
     3  C   -0.236202
     4  C   -0.172523
     5  C   -0.150373
     6  N   -0.599807
     7  C    0.329820
     8  C   -0.135366
     9  C   -0.176750
    10  C    0.351779
    11  C   -0.305840
    12  C   -0.142270
    13  C   -0.290640
    14  C    0.605882
    15  O   -0.491348
    16  O   -0.477177
    17  N   -0.706625
    18  C    0.285891
    19  C    0.055329
    20  C   -0.035012
    21  C    0.315763
    22  C   -0.384442
    23  C    0.000388
    24  C   -0.236508
    25  N   -0.726320
    26  C    0.252005
    27  C    0.074928
    28  C   -0.004311
    29  C    0.330565
    30  C   -0.399967
    31  C   -0.275062
    32  C   -0.292751
    33  N   -0.746110
    34  C    0.292557
    35  C   -0.052100
    36  C    0.093614
    37  C    0.306956
    38  C   -0.376505
    39  C    0.326917
    40  O   -0.461891
    41  C   -0.344589
    42  C    0.628387
    43  O   -0.489459
    44  O   -0.486838
    45  C   -0.071973
    46  C    0.012358
    47  C   -0.144895
    48  C    0.175074
    49  C   -0.370618
    50  C   -0.226665
    51  C   -0.179384
    52  C   -0.155756
    53  C   -0.090326
    54  C   -0.288216
    55  C   -0.170019
    56  C   -0.173440
    57  C   -0.150342
    58  C   -0.069384
    59  C   -0.306129
    60  C   -0.172052
    61  C   -0.214392
    62  C   -0.133469
    63  C   -0.037958
    64  C   -0.289051
    65  C   -0.345982
    66  H    0.062947
    67  H    0.097257
    68  H    0.109971
    69  H    0.131753
    70  H    0.088448
    71  H    0.122781
    72  H    0.114540
    73  H    0.123169
    74  H    0.118478
    75  H    0.118516
    76  H    0.147308
    77  H    0.136051
    78  H    0.130242
    79  H    0.124437
    80  H    0.132756
    81  H    0.078173
    82  H    0.102975
    83  H    0.102979
    84  H    0.108402
    85  H    0.114212
    86  H    0.092069
    87  H    0.103765
    88  H    0.107226
    89  H    0.104447
    90  H    0.124915
    91  H    0.092883
    92  H    0.119891
    93  H    0.148929
    94  H    0.134458
    95  H    0.163367
    96  H    0.130394
    97  H    0.138499
    98  H    0.129962
    99  H    0.106049
   100  H    0.132334
   101  H    0.084231
   102  H    0.110238
   103  H    0.119038
   104  H    0.120815
   105  H    0.095111
   106  H    0.092829
   107  H    0.075002
   108  H    0.091671
   109  H    0.092117
   110  H    0.080756
   111  H    0.076945
   112  H    0.095616
   113  H    0.112527
   114  H    0.074313
   115  H    0.072984
   116  H    0.097230
   117  H    0.112754
   118  H    0.079133
   119  H    0.092890
   120  H    0.076714
   121  H    0.085761
   122  H    0.083156
   123  H    0.082798
   124  H    0.109731
   125  H    0.088256
   126  H    0.109921
   127  H    0.070601
   128  H    0.085168
   129  H    0.098108
   130  H    0.098709
   131  H    0.103369
   132  H    0.077919
   133  H    0.117950
   134  H    0.075780
   135  H    0.080115
   136  H    0.084264
   137  H    0.101952
 Sum of Mulliken charges =   0.00000

 Dipole moment (field-independent basis, Debye):
    X=              2.2286    Y=              5.7596    Z=              0.5021  Tot=              6.1961
 Quadrupole moment (field-independent basis, Debye-Ang):
   XX=           -340.8028   YY=           -386.8188   ZZ=           -398.2854
   XY=            -29.1227   XZ=              7.1795   YZ=             -1.5978

 Normal termination of Gaussian 09 at Sun Jul  7 04:50:10 2019.
