 Gaussian 16, Revision A.03,
 Gaussian 16:  ES64L-G16RevA.03 25-Dec-2016

 ----------------------------------------------------------------------
 # td=(NStates=1) iop(3/107=0140000000,3/108=0140000000) CAM-B3LYP/6-31
 G(d,p)
 ----------------------------------------------------------------------

 --
 TD
 --
 Symbolic Z-matrix:
 Charge =  0 Multiplicity = 1

                         Standard orientation:
 ---------------------------------------------------------------------
 Center     Atomic      Atomic             Coordinates (Angstroms)
 Number     Number       Type             X           Y           Z
 ---------------------------------------------------------------------
      1         12           0       -7.191365    0.640893    0.109954
      2          6           0       -4.854587   -2.046312    0.479238
      3          6           0       -4.840022    2.727723    1.202643
      4          6           0       -9.279452    3.171028   -0.405252
      5          6           0       -9.618435   -1.747480   -0.872724
      6          7           0       -5.118504    0.341512    0.639521
      7          6           0       -4.357321   -0.846052    0.920414
      8          6           0       -2.850661   -0.441558    1.197121
      9          6           0       -3.022678    1.039065    1.683613
     10          6           0       -4.437873    1.354953    1.086941
     11          6           0       -2.879043    1.155190    3.158240
     12          6           0       -1.990886   -0.659037    0.013999
     13          6           0       -0.490132   -0.503380    0.558295
     14          6           0        0.576071   -0.671372   -0.516327
     15          8           0        0.247042   -0.931941   -1.775574
     16          8           0        1.805980   -0.461522   -0.158234
     17          7           0       -7.096976    2.606702    0.475567
     18          6           0       -6.051957    3.343959    0.946512
     19          6           0       -6.397527    4.806925    0.970536
     20          6           0       -7.611300    4.894238    0.284448
     21          6           0       -7.998934    3.523658    0.092192
     22          6           0       -5.405724    5.850488    1.378954
     23          6           0       -8.444041    6.072541    0.123209
     24          6           0       -8.288035    7.280879    0.736033
     25          7           0       -9.068692    0.721658   -0.527685
     26          6           0       -9.778296    1.860723   -0.672779
     27          6           0      -11.133275    1.649088   -1.123510
     28          6           0      -11.141119    0.181200   -1.336535
     29          6           0       -9.905146   -0.308847   -0.833306
     30          6           0      -12.212796    2.693581   -1.527386
     31          6           0      -12.255784   -0.627078   -1.822193
     32          6           0      -12.151259   -0.971985   -3.348208
     33          7           0       -7.264451   -1.348365   -0.064527
     34          6           0       -8.344129   -2.241374   -0.468159
     35          6           0       -7.936769   -3.621890   -0.441753
     36          6           0       -6.544513   -3.571480   -0.035636
     37          6           0       -6.236357   -2.284602    0.211715
     38          6           0       -8.761594   -4.810206   -0.772068
     39          6           0       -5.401340   -4.373947    0.204765
     40          8           0       -5.341795   -5.606328    0.228718
     41          6           0       -4.256157   -3.352426    0.572504
     42          6           0       -3.605341   -3.856457    1.869345
     43          8           0       -3.834926   -3.317737    2.964235
     44          8           0       -2.768316   -4.730220    1.668876
     45          6           0       -2.076444   -5.245014    2.901471
     46          6           0        2.794914   -0.739337   -1.161941
     47          6           0        4.082108   -0.486674   -0.598026
     48          6           0        5.099560    0.296058   -1.012274
     49          6           0        4.942751    1.135604   -2.232557
     50          6           0        6.388289    0.400413   -0.325888
     51          6           0        7.634404   -0.045333   -1.131317
     52          6           0        8.857377   -0.051565   -0.274814
     53          6           0       10.272679   -0.628990   -1.042827
     54          6           0       10.070696   -2.037128   -1.336537
     55          6           0       11.420767   -0.264049   -0.099207
     56          6           0       12.809305   -0.385634   -0.797230
     57          6           0       13.967317   -0.125495    0.134804
     58          6           0       15.370996   -0.124380   -0.547890
     59          6           0       15.728009   -1.543263   -1.029410
     60          6           0       16.470334    0.388888    0.425628
     61          6           0       17.820905    0.457741   -0.072714
     62          6           0       18.784942    1.263180    0.848730
     63          6           0       20.208770    1.318835    0.331908
     64          6           0       20.279160    2.133368   -0.951591
     65          6           0       21.067378    1.940327    1.430206
     66          1           0       -4.148610    3.278588    1.573192
     67          1           0      -10.096533    3.840631   -0.521261
     68          1           0      -10.459051   -2.534489   -0.813067
     69          1           0       -2.652695   -1.057303    2.139831
     70          1           0       -2.140445    1.669909    1.303847
     71          1           0       -1.975547    0.743132    3.332364
     72          1           0       -3.187775    2.227687    3.349517
     73          1           0       -3.523676    0.568462    3.738125
     74          1           0       -2.026969   -1.628232   -0.453526
     75          1           0       -2.054286    0.112984   -0.810424
     76          1           0       -0.558793    0.581532    0.953802
     77          1           0       -0.480918   -1.280523    1.492511
     78          1           0       -5.810860    6.834311    0.768543
     79          1           0       -5.698574    6.180644    2.403310
     80          1           0       -4.493326    5.605372    1.286528
     81          1           0       -9.166875    6.117594   -0.762811
     82          1           0       -8.898054    8.253392    0.355153
     83          1           0       -7.511669    7.619685    1.483574
     84          1           0      -11.790943    3.399211   -2.185461
     85          1           0      -13.018770    2.128834   -2.144665
     86          1           0      -12.603214    3.129043   -0.509502
     87          1           0      -12.428090   -1.531096   -1.256209
     88          1           0      -13.298832   -0.282935   -1.893018
     89          1           0      -12.971241   -1.670790   -3.719677
     90          1           0      -11.955186   -0.099361   -3.931508
     91          1           0      -11.295674   -1.666226   -3.370129
     92          1           0       -8.952889   -4.901151   -1.849407
     93          1           0       -8.191435   -5.736209   -0.599191
     94          1           0       -9.657202   -4.729514   -0.150728
     95          1           0       -3.603570   -3.664023   -0.194787
     96          1           0       -1.678300   -4.473715    3.546972
     97          1           0       -2.917594   -5.707079    3.417193
     98          1           0       -1.353133   -6.017586    2.543089
     99          1           0        2.464909   -1.916713   -1.526599
    100          1           0        2.698439   -0.128932   -2.015089
    101          1           0        4.129950   -0.649032    0.406113
    102          1           0        3.939034    1.188450   -2.573980
    103          1           0        5.564614    2.159085   -2.184030
    104          1           0        5.240879    0.799888   -3.157679
    105          1           0        6.448598    1.603040   -0.018825
    106          1           0        6.527738   -0.189200    0.672632
    107          1           0        7.279403   -1.220529   -1.553518
    108          1           0        7.661922    0.464269   -1.997743
    109          1           0        9.033087    0.975246    0.127052
    110          1           0        8.563187   -0.679846    0.631732
    111          1           0       10.342615   -0.037199   -2.005518
    112          1           0        9.418851   -2.201939   -2.080846
    113          1           0       11.309490   -2.596619   -1.446287
    114          1           0        9.766081   -2.583186   -0.422202
    115          1           0       11.522786    0.770629    0.436489
    116          1           0       11.645806   -1.005090    0.777123
    117          1           0       13.126664   -1.495734   -1.135993
    118          1           0       12.875593    0.420202   -1.537435
    119          1           0       13.887855    0.855948    0.685803
    120          1           0       13.939000   -0.608077    0.998095
    121          1           0       15.384237    0.533536   -1.402681
    122          1           0       15.770385   -2.350447   -0.324361
    123          1           0       15.025962   -1.957910   -1.896481
    124          1           0       16.623335   -1.566761   -1.685730
    125          1           0       16.198788    1.403552    0.847359
    126          1           0       16.433306   -0.124894    1.259656
    127          1           0       18.129781   -0.638992   -0.015332
    128          1           0       17.668779    0.915687   -0.942157
    129          1           0       18.506341    2.435595    1.045178
    130          1           0       18.655946    1.020640    1.905190
    131          1           0       20.543241    0.249495    0.100014
    132          1           0       19.822137    3.129891   -0.825690
    133          1           0       21.395609    2.171303   -1.343631
    134          1           0       19.864452    1.645080   -1.753669
    135          1           0       20.755045    1.570763    2.320546
    136          1           0       22.298643    1.846373    1.293239
    137          1           0       20.884274    2.958507    1.572896
 ---------------------------------------------------------------------

 SCF Done:  E(RCAM-B3LYP) =  -2933.45445972     A.U. after   16 cycles

 Excitation energies and oscillator strengths:

 Excited State   1:      Singlet-A      2.0175 eV  614.53 nm  f=0.2112  <S**2>=0.000
     240 -> 243       -0.23055
     241 -> 242        0.65906
 This state for optimization and/or second-order correction.
 Total Energy, E(TD-HF/TD-DFT) =  -2933.38031652
 Copying the excited state density for this state as the 1-particle RhoCI density.

 The electronic state is 1-A.
 Alpha  occ. eigenvalues --  -46.78888 -19.24068 -19.23558 -19.15655 -19.14966
 Alpha  occ. eigenvalues --  -19.14103 -14.37573 -14.35194 -14.34665 -14.34359
 Alpha  occ. eigenvalues --  -10.35371 -10.33350 -10.29113 -10.28403 -10.28297
 Alpha  occ. eigenvalues --  -10.26632 -10.25900 -10.25499 -10.25254 -10.25202
 Alpha  occ. eigenvalues --  -10.24595 -10.24528 -10.24428 -10.24222 -10.24193
 Alpha  occ. eigenvalues --  -10.23956 -10.23897 -10.23757 -10.23724 -10.23666
 Alpha  occ. eigenvalues --  -10.23588 -10.23577 -10.23507 -10.23468 -10.23108
 Alpha  occ. eigenvalues --  -10.23013 -10.22681 -10.22607 -10.22476 -10.22322
 Alpha  occ. eigenvalues --  -10.22243 -10.22231 -10.22226 -10.21967 -10.21918
 Alpha  occ. eigenvalues --  -10.21873 -10.21737 -10.21674 -10.21653 -10.21635
 Alpha  occ. eigenvalues --  -10.21604 -10.21371 -10.21236 -10.21170 -10.20868
 Alpha  occ. eigenvalues --  -10.20439 -10.20379 -10.20232 -10.20028 -10.19928
 Alpha  occ. eigenvalues --  -10.19740 -10.19692 -10.19639 -10.19493 -10.18677
 Alpha  occ. eigenvalues --   -3.07709  -1.82625  -1.82184  -1.82138  -1.16783
 Alpha  occ. eigenvalues --   -1.14989  -1.04220  -1.01857  -0.99600  -0.99278
 Alpha  occ. eigenvalues --   -0.98355  -0.97750  -0.95485  -0.87850  -0.87317
 Alpha  occ. eigenvalues --   -0.86125  -0.85363  -0.84658  -0.84544  -0.83469
 Alpha  occ. eigenvalues --   -0.83422  -0.82601  -0.82001  -0.81609  -0.81040
 Alpha  occ. eigenvalues --   -0.80483  -0.79876  -0.79176  -0.78732  -0.77862
 Alpha  occ. eigenvalues --   -0.77250  -0.76559  -0.76073  -0.75769  -0.73949
 Alpha  occ. eigenvalues --   -0.73685  -0.72591  -0.72202  -0.71601  -0.71529
 Alpha  occ. eigenvalues --   -0.70705  -0.70157  -0.69828  -0.68924  -0.67536
 Alpha  occ. eigenvalues --   -0.66702  -0.65601  -0.64703  -0.64509  -0.63285
 Alpha  occ. eigenvalues --   -0.62448  -0.62316  -0.60931  -0.60683  -0.60530
 Alpha  occ. eigenvalues --   -0.60453  -0.59947  -0.59656  -0.58812  -0.58381
 Alpha  occ. eigenvalues --   -0.58181  -0.57102  -0.56715  -0.56029  -0.55336
 Alpha  occ. eigenvalues --   -0.55031  -0.54245  -0.53650  -0.53205  -0.52809
 Alpha  occ. eigenvalues --   -0.52665  -0.51872  -0.51588  -0.51391  -0.51226
 Alpha  occ. eigenvalues --   -0.50719  -0.50438  -0.50311  -0.49883  -0.49126
 Alpha  occ. eigenvalues --   -0.48881  -0.48406  -0.48235  -0.47948  -0.47691
 Alpha  occ. eigenvalues --   -0.47585  -0.47534  -0.47157  -0.47110  -0.47069
 Alpha  occ. eigenvalues --   -0.46880  -0.46804  -0.46530  -0.46154  -0.46061
 Alpha  occ. eigenvalues --   -0.45772  -0.45603  -0.45433  -0.45022  -0.44890
 Alpha  occ. eigenvalues --   -0.44835  -0.44590  -0.44465  -0.44176  -0.43811
 Alpha  occ. eigenvalues --   -0.43517  -0.43161  -0.42781  -0.42601  -0.42345
 Alpha  occ. eigenvalues --   -0.41901  -0.41723  -0.41559  -0.41390  -0.41232
 Alpha  occ. eigenvalues --   -0.41162  -0.40990  -0.40937  -0.40742  -0.40621
 Alpha  occ. eigenvalues --   -0.40466  -0.39956  -0.39873  -0.39735  -0.39597
 Alpha  occ. eigenvalues --   -0.39465  -0.39300  -0.39168  -0.38993  -0.38804
 Alpha  occ. eigenvalues --   -0.38768  -0.38427  -0.38153  -0.37870  -0.37743
 Alpha  occ. eigenvalues --   -0.37717  -0.37431  -0.37288  -0.37219  -0.37093
 Alpha  occ. eigenvalues --   -0.36851  -0.36692  -0.36610  -0.36570  -0.36336
 Alpha  occ. eigenvalues --   -0.35816  -0.35308  -0.34939  -0.34934  -0.34587
 Alpha  occ. eigenvalues --   -0.34511  -0.34077  -0.33921  -0.33781  -0.33776
 Alpha  occ. eigenvalues --   -0.33490  -0.33202  -0.33066  -0.32672  -0.32407
 Alpha  occ. eigenvalues --   -0.32070  -0.32056  -0.31446  -0.30543  -0.30073
 Alpha  occ. eigenvalues --   -0.29477  -0.28924  -0.28482  -0.27932  -0.26551
 Alpha  occ. eigenvalues --   -0.26012  -0.25795  -0.25509  -0.24420  -0.21646
 Alpha  occ. eigenvalues --   -0.19706
 Alpha virt. eigenvalues --   -0.06982  -0.04247  -0.00182   0.01550   0.02114
 Alpha virt. eigenvalues --    0.02296   0.04785   0.05071   0.06041   0.06148
 Alpha virt. eigenvalues --    0.06736   0.08043   0.08615   0.09111   0.10294

 Mulliken charges:
               1
     1  Mg   0.816990
     2  C    0.075856
     3  C   -0.190664
     4  C   -0.182180
     5  C   -0.165220
     6  N   -0.599035
     7  C    0.215394
     8  C   -0.157210
     9  C   -0.156246
    10  C    0.393841
    11  C   -0.293856
    12  C   -0.154628
    13  C   -0.272528
    14  C    0.597556
    15  O   -0.524946
    16  O   -0.417125
    17  N   -0.699805
    18  C    0.323800
    19  C    0.008404
    20  C    0.043905
    21  C    0.327914
    22  C   -0.361431
    23  C   -0.073011
    24  C   -0.252570
    25  N   -0.714245
    26  C    0.315510
    27  C   -0.010472
    28  C    0.037329
    29  C    0.293966
    30  C   -0.365929
    31  C   -0.276729
    32  C   -0.319467
    33  N   -0.691568
    34  C    0.250898
    35  C    0.020491
    36  C    0.067503
    37  C    0.259936
    38  C   -0.389697
    39  C    0.305867
    40  O   -0.488404
    41  C   -0.317172
    42  C    0.612137
    43  O   -0.535885
    44  O   -0.382480
    45  C   -0.108535
    46  C    0.026325
    47  C   -0.132692
    48  C    0.159153
    49  C   -0.384605
    50  C   -0.224647
    51  C   -0.151207
    52  C   -0.181762
    53  C   -0.039421
    54  C   -0.271785
    55  C   -0.173794
    56  C   -0.167015
    57  C   -0.183114
    58  C   -0.045853
    59  C   -0.328050
    60  C   -0.186858
    61  C   -0.148844
    62  C   -0.178898
    63  C   -0.041722
    64  C   -0.296872
    65  C   -0.299185
    66  H    0.034094
    67  H    0.074567
    68  H    0.106038
    69  H    0.116270
    70  H    0.092919
    71  H    0.117202
    72  H    0.100046
    73  H    0.131773
    74  H    0.131816
    75  H    0.124406
    76  H    0.122830
    77  H    0.113563
    78  H    0.104917
    79  H    0.129514
    80  H    0.124217
    81  H    0.098510
    82  H    0.090215
    83  H    0.103370
    84  H    0.134884
    85  H    0.112193
    86  H    0.119756
    87  H    0.102305
    88  H    0.107232
    89  H    0.092454
    90  H    0.118264
    91  H    0.107152
    92  H    0.131376
    93  H    0.148518
    94  H    0.124444
    95  H    0.155908
    96  H    0.153214
    97  H    0.156153
    98  H    0.134130
    99  H    0.107501
   100  H    0.124023
   101  H    0.088586
   102  H    0.115067
   103  H    0.100992
   104  H    0.134749
   105  H    0.069611
   106  H    0.088321
   107  H    0.050327
   108  H    0.111250
   109  H    0.094051
   110  H    0.088786
   111  H    0.086230
   112  H    0.120539
   113  H    0.043573
   114  H    0.108721
   115  H    0.088228
   116  H    0.080715
   117  H    0.085713
   118  H    0.093022
   119  H    0.062467
   120  H    0.095608
   121  H    0.084613
   122  H    0.111030
   123  H    0.080836
   124  H    0.102431
   125  H    0.070044
   126  H    0.095686
   127  H    0.094039
   128  H    0.102767
   129  H    0.051955
   130  H    0.089509
   131  H    0.077476
   132  H    0.099487
   133  H    0.078180
   134  H    0.113130
   135  H    0.105606
   136  H    0.069059
   137  H    0.106415
 Sum of Mulliken charges =  -0.00000

 Dipole moment (field-independent basis, Debye):
    X=              3.1722    Y=              4.2208    Z=              0.8924  Tot=              5.3549
 Quadrupole moment (field-independent basis, Debye-Ang):
   XX=           -369.7325   YY=           -387.2198   ZZ=           -396.3627
   XY=            -25.2577   XZ=             12.7533   YZ=             -4.1751

 Normal termination of Gaussian 16 at Wed Sep 18 09:10:58 2019.
