 Gaussian 09, Revision D.01,
 Gaussian 09:  ES64L-G09RevD.01 24-Apr-2013

 -------------------------------------
 # td=(NStates=1) CAM-B3LYP/6-31G(d,p)
 -------------------------------------

 --
 TD
 --
 Symbolic Z-matrix:
 Charge =  0 Multiplicity = 1

                         Standard orientation:
 ---------------------------------------------------------------------
 Center     Atomic      Atomic             Coordinates (Angstroms)
 Number     Number       Type             X           Y           Z
 ---------------------------------------------------------------------
      1         12           0       -7.184424    0.569707    0.154169
      2          6           0       -4.839214   -1.964311    0.506996
      3          6           0       -4.708187    2.761499    1.000046
      4          6           0       -9.336574    3.144044   -0.301500
      5          6           0       -9.544974   -1.677612   -0.803906
      6          7           0       -5.089966    0.367138    0.611370
      7          6           0       -4.264228   -0.746137    0.805108
      8          6           0       -2.899278   -0.500615    1.243771
      9          6           0       -2.984755    1.033524    1.633883
     10          6           0       -4.380538    1.412725    1.135096
     11          6           0       -2.964483    1.208387    3.154343
     12          6           0       -1.932441   -0.714928    0.076496
     13          6           0       -0.538629   -0.562773    0.472268
     14          6           0        0.512701   -0.589371   -0.592286
     15          8           0        0.247313   -0.839560   -1.816416
     16          8           0        1.820179   -0.397951   -0.270267
     17          7           0       -6.964100    2.582518    0.153659
     18          6           0       -5.892254    3.348026    0.739441
     19          6           0       -6.262971    4.730438    0.752351
     20          6           0       -7.588148    4.780129    0.317819
     21          6           0       -8.099473    3.421278    0.159450
     22          6           0       -5.353121    5.858497    1.246546
     23          6           0       -8.408312    6.051863    0.166054
     24          6           0       -8.248292    7.190291    0.940850
     25          7           0       -9.096724    0.659819   -0.486279
     26          6           0       -9.848820    1.754402   -0.524651
     27          6           0      -11.172438    1.413594   -1.095798
     28          6           0      -11.172863    0.089531   -1.224881
     29          6           0       -9.994821   -0.384577   -0.797215
     30          6           0      -12.200096    2.516144   -1.355532
     31          6           0      -12.323261   -0.724461   -1.782976
     32          6           0      -12.217079   -0.939693   -3.189004
     33          7           0       -7.158836   -1.442283   -0.300511
     34          6           0       -8.196825   -2.230709   -0.544253
     35          6           0       -7.779715   -3.559172   -0.515133
     36          6           0       -6.488234   -3.561395   -0.067970
     37          6           0       -6.159094   -2.236866    0.090953
     38          6           0       -8.509571   -4.761000   -0.923068
     39          6           0       -5.417441   -4.407016    0.194399
     40          8           0       -5.260094   -5.658266    0.215661
     41          6           0       -4.212054   -3.350415    0.561554
     42          6           0       -3.554555   -3.754031    1.872362
     43          8           0       -3.743656   -3.227680    2.966532
     44          8           0       -2.665562   -4.752486    1.680290
     45          6           0       -1.964593   -5.126022    2.873270
     46          6           0        2.816859   -0.571230   -1.260421
     47          6           0        4.118879   -0.301259   -0.613783
     48          6           0        5.069122    0.443945   -1.013617
     49          6           0        5.098898    1.291801   -2.184697
     50          6           0        6.461222    0.584445   -0.129961
     51          6           0        7.533817   -0.086399   -0.913285
     52          6           0        8.847464    0.082013   -0.177948
     53          6           0       10.052930   -0.334557   -0.907281
     54          6           0        9.928944   -1.879285   -1.317978
     55          6           0       11.302710   -0.266067   -0.065843
     56          6           0       12.608213   -0.609076   -0.717674
     57          6           0       13.832862   -0.165863    0.232030
     58          6           0       15.146465   -0.233213   -0.490880
     59          6           0       15.494335   -1.667004   -0.952380
     60          6           0       16.260038    0.338910    0.427038
     61          6           0       17.728077    0.437009   -0.201298
     62          6           0       18.702352    1.173272    0.815841
     63          6           0       20.110308    1.272963    0.236670
     64          6           0       20.252208    2.063853   -0.930292
     65          6           0       21.056797    1.784780    1.335514
     66          1           0       -4.057671    3.314697    1.662921
     67          1           0      -10.192822    3.942774   -0.244173
     68          1           0      -10.327502   -2.479631   -1.189231
     69          1           0       -2.456021   -1.077625    2.190379
     70          1           0       -2.138227    1.552064    1.269770
     71          1           0       -1.875205    0.703853    3.342390
     72          1           0       -3.093427    2.203474    3.585658
     73          1           0       -3.530520    0.574300    3.782584
     74          1           0       -2.112599   -1.735143   -0.615324
     75          1           0       -2.092604    0.003537   -0.784473
     76          1           0       -0.398257    0.227983    1.353911
     77          1           0       -0.157537   -1.398709    0.988728
     78          1           0       -5.723506    6.568964    0.547177
     79          1           0       -5.661675    6.004113    2.354034
     80          1           0       -4.361575    5.542981    1.003967
     81          1           0       -9.197712    6.087456   -0.555855
     82          1           0       -8.811354    8.016191    0.624074
     83          1           0       -7.337853    7.490342    1.550910
     84          1           0      -11.758359    3.159547   -2.241320
     85          1           0      -13.202261    2.213582   -1.489751
     86          1           0      -12.404204    3.220434   -0.629128
     87          1           0      -12.258943   -1.656024   -1.181077
     88          1           0      -13.226908   -0.000224   -1.312108
     89          1           0      -13.070248   -1.718560   -3.551512
     90          1           0      -12.364420    0.076273   -3.731744
     91          1           0      -11.242312   -1.258026   -3.275316
     92          1           0       -8.835616   -4.544941   -1.822421
     93          1           0       -7.849797   -5.637441   -0.717561
     94          1           0       -9.282378   -5.013470   -0.106123
     95          1           0       -3.458338   -3.584165   -0.116185
     96          1           0       -1.193436   -4.348102    3.266869
     97          1           0       -2.573398   -5.300271    3.813672
     98          1           0       -1.673974   -6.144065    2.480471
     99          1           0        2.815725   -1.586725   -1.788708
    100          1           0        2.670788    0.180862   -2.253039
    101          1           0        4.086923   -0.870126    0.417352
    102          1           0        4.111092    1.556591   -2.513296
    103          1           0        5.656331    2.368338   -1.798541
    104          1           0        5.444971    1.046870   -3.312794
    105          1           0        6.711418    1.590105    0.387686
    106          1           0        6.395688    0.012225    0.831826
    107          1           0        7.326398   -1.254563   -1.017549
    108          1           0        7.527592    0.260612   -1.897555
    109          1           0        8.780015    1.098136    0.451666
    110          1           0        8.734614   -0.478870    0.797856
    111          1           0       10.340710    0.305453   -1.724597
    112          1           0        9.136304   -1.877496   -1.987805
    113          1           0       10.752667   -2.143803   -1.775337
    114          1           0        9.820838   -2.561316   -0.390034
    115          1           0       11.203976    0.848913    0.028941
    116          1           0       11.277434   -0.588565    0.859349
    117          1           0       12.570542   -1.606159   -1.068727
    118          1           0       12.518938   -0.048700   -1.580648
    119          1           0       13.704726    0.863596    0.481339
    120          1           0       13.766044   -0.978330    1.080783
    121          1           0       14.910548    0.485517   -1.446825
    122          1           0       15.718205   -2.183154   -0.051298
    123          1           0       14.753371   -2.032191   -1.536717
    124          1           0       16.560335   -1.596724   -1.466536
    125          1           0       16.069868    1.350989    0.648350
    126          1           0       16.151797   -0.081522    1.323223
    127          1           0       18.116661   -0.520048   -0.507905
    128          1           0       17.613259    1.015220   -0.995754
    129          1           0       18.426074    2.202660    1.276065
    130          1           0       18.879664    0.429815    1.617432
    131          1           0       20.462798    0.256876    0.042418
    132          1           0       19.718550    3.040032   -0.833080
    133          1           0       21.473230    2.241836   -1.188218
    134          1           0       20.008826    1.553181   -1.916953
    135          1           0       21.042156    1.290965    2.131306
    136          1           0       22.056653    1.829473    0.763762
    137          1           0       20.932739    2.880759    1.386410
 ---------------------------------------------------------------------

 SCF Done:  E(RCAM-B3LYP) =  -2932.59620896     A.U. after   17 cycles

 Excitation energies and oscillator strengths:

 Excited State   1:      Singlet-A      2.2659 eV  547.18 nm  f=0.1884  <S**2>=0.000
     240 -> 242       -0.30031
     240 -> 243        0.18950
     241 -> 242        0.56097
     241 -> 243        0.22172
 This state for optimization and/or second-order correction.
 Total Energy, E(TD-HF/TD-KS) =  -2932.51293989
 Copying the excited state density for this state as the 1-particle RhoCI density.

 The electronic state is 1-A.
 Alpha  occ. eigenvalues --  -46.84445 -19.27260 -19.26220 -19.20245 -19.19973
 Alpha  occ. eigenvalues --  -19.19355 -14.42387 -14.40068 -14.39213 -14.38685
 Alpha  occ. eigenvalues --  -10.40337 -10.38360 -10.34364 -10.33335 -10.31862
 Alpha  occ. eigenvalues --  -10.31828 -10.30603 -10.30601 -10.30241 -10.30126
 Alpha  occ. eigenvalues --  -10.29741 -10.29146 -10.29054 -10.28910 -10.28525
 Alpha  occ. eigenvalues --  -10.28401 -10.28366 -10.28312 -10.28165 -10.28105
 Alpha  occ. eigenvalues --  -10.27955 -10.27706 -10.27497 -10.27471 -10.27406
 Alpha  occ. eigenvalues --  -10.27256 -10.27180 -10.27163 -10.26996 -10.26662
 Alpha  occ. eigenvalues --  -10.26659 -10.26598 -10.26553 -10.26241 -10.26089
 Alpha  occ. eigenvalues --  -10.25927 -10.25867 -10.25593 -10.25585 -10.25567
 Alpha  occ. eigenvalues --  -10.25539 -10.25533 -10.25399 -10.25305 -10.25051
 Alpha  occ. eigenvalues --  -10.24439 -10.24312 -10.24239 -10.23844 -10.23595
 Alpha  occ. eigenvalues --  -10.23301 -10.23133 -10.23076 -10.22925 -10.22354
 Alpha  occ. eigenvalues --   -3.13502  -1.88194  -1.87766  -1.87660  -1.18024
 Alpha  occ. eigenvalues --   -1.17596  -1.07828  -1.07632  -1.06389  -1.05757
 Alpha  occ. eigenvalues --   -1.04750  -1.04000  -1.01685  -0.92525  -0.91843
 Alpha  occ. eigenvalues --   -0.91591  -0.91025  -0.90734  -0.90390  -0.89369
 Alpha  occ. eigenvalues --   -0.88900  -0.88668  -0.87959  -0.87453  -0.86985
 Alpha  occ. eigenvalues --   -0.85950  -0.84949  -0.84204  -0.83117  -0.82970
 Alpha  occ. eigenvalues --   -0.82341  -0.81449  -0.80908  -0.80048  -0.79214
 Alpha  occ. eigenvalues --   -0.78842  -0.77934  -0.75942  -0.75829  -0.75819
 Alpha  occ. eigenvalues --   -0.75586  -0.75502  -0.74694  -0.73861  -0.72653
 Alpha  occ. eigenvalues --   -0.71728  -0.70886  -0.69730  -0.69346  -0.69100
 Alpha  occ. eigenvalues --   -0.67517  -0.67354  -0.66230  -0.65498  -0.65337
 Alpha  occ. eigenvalues --   -0.64155  -0.63602  -0.63226  -0.62001  -0.61887
 Alpha  occ. eigenvalues --   -0.61780  -0.61358  -0.60886  -0.60126  -0.59502
 Alpha  occ. eigenvalues --   -0.58933  -0.58289  -0.57822  -0.56707  -0.56475
 Alpha  occ. eigenvalues --   -0.56044  -0.55567  -0.55237  -0.54913  -0.54732
 Alpha  occ. eigenvalues --   -0.54572  -0.54256  -0.53864  -0.53741  -0.53267
 Alpha  occ. eigenvalues --   -0.53021  -0.52976  -0.52512  -0.52298  -0.52057
 Alpha  occ. eigenvalues --   -0.51988  -0.51950  -0.51710  -0.51126  -0.50840
 Alpha  occ. eigenvalues --   -0.50586  -0.50337  -0.49876  -0.49815  -0.49466
 Alpha  occ. eigenvalues --   -0.49350  -0.49202  -0.49065  -0.48593  -0.48440
 Alpha  occ. eigenvalues --   -0.48341  -0.48174  -0.48088  -0.47752  -0.47658
 Alpha  occ. eigenvalues --   -0.47267  -0.46865  -0.46527  -0.46325  -0.46044
 Alpha  occ. eigenvalues --   -0.45830  -0.45705  -0.45396  -0.45120  -0.45027
 Alpha  occ. eigenvalues --   -0.44737  -0.44711  -0.44541  -0.44310  -0.44275
 Alpha  occ. eigenvalues --   -0.43987  -0.43809  -0.43678  -0.43472  -0.43317
 Alpha  occ. eigenvalues --   -0.42938  -0.42785  -0.42669  -0.42546  -0.42423
 Alpha  occ. eigenvalues --   -0.42173  -0.41816  -0.41787  -0.41522  -0.41490
 Alpha  occ. eigenvalues --   -0.41095  -0.40852  -0.40694  -0.40523  -0.40371
 Alpha  occ. eigenvalues --   -0.40130  -0.39892  -0.39786  -0.39429  -0.39060
 Alpha  occ. eigenvalues --   -0.38770  -0.38244  -0.38135  -0.37792  -0.37705
 Alpha  occ. eigenvalues --   -0.37375  -0.37234  -0.36701  -0.36633  -0.36598
 Alpha  occ. eigenvalues --   -0.36437  -0.35844  -0.35765  -0.35420  -0.35277
 Alpha  occ. eigenvalues --   -0.35113  -0.34832  -0.34010  -0.33757  -0.33169
 Alpha  occ. eigenvalues --   -0.32974  -0.32465  -0.32331  -0.31618  -0.30696
 Alpha  occ. eigenvalues --   -0.29654  -0.29178  -0.28833  -0.28109  -0.23810
 Alpha  occ. eigenvalues --   -0.21893
 Alpha virt. eigenvalues --   -0.06511  -0.03634   0.01076   0.03161   0.04478
 Alpha virt. eigenvalues --    0.04761   0.05971   0.06679   0.06910   0.07528
 Alpha virt. eigenvalues --    0.08421   0.10064   0.10528   0.11009   0.11263

 Mulliken charges:
               1
     1  Mg   0.825826
     2  C    0.083538
     3  C   -0.206860
     4  C   -0.196096
     5  C   -0.202134
     6  N   -0.604814
     7  C    0.296724
     8  C   -0.149142
     9  C   -0.152392
    10  C    0.325810
    11  C   -0.314692
    12  C   -0.175414
    13  C   -0.253352
    14  C    0.596982
    15  O   -0.501414
    16  O   -0.468334
    17  N   -0.697590
    18  C    0.315476
    19  C   -0.007046
    20  C    0.001072
    21  C    0.327661
    22  C   -0.347910
    23  C   -0.101438
    24  C   -0.238224
    25  N   -0.677215
    26  C    0.276623
    27  C    0.002233
    28  C    0.037899
    29  C    0.297760
    30  C   -0.377154
    31  C   -0.197894
    32  C   -0.276040
    33  N   -0.707790
    34  C    0.260713
    35  C   -0.005957
    36  C    0.101713
    37  C    0.239192
    38  C   -0.369381
    39  C    0.321930
    40  O   -0.500418
    41  C   -0.343606
    42  C    0.623248
    43  O   -0.497078
    44  O   -0.442190
    45  C   -0.089792
    46  C    0.026119
    47  C   -0.124036
    48  C    0.133596
    49  C   -0.363196
    50  C   -0.238629
    51  C   -0.158171
    52  C   -0.162176
    53  C   -0.078535
    54  C   -0.308755
    55  C   -0.172890
    56  C   -0.197386
    57  C   -0.160797
    58  C   -0.062881
    59  C   -0.296972
    60  C   -0.182452
    61  C   -0.187400
    62  C   -0.173840
    63  C   -0.054646
    64  C   -0.291020
    65  C   -0.285609
    66  H    0.071059
    67  H    0.096251
    68  H    0.093773
    69  H    0.127021
    70  H    0.125946
    71  H    0.072935
    72  H    0.116587
    73  H    0.144928
    74  H    0.115511
    75  H    0.131379
    76  H    0.123393
    77  H    0.154591
    78  H    0.139597
    79  H    0.131403
    80  H    0.126481
    81  H    0.106187
    82  H    0.106758
    83  H    0.108756
    84  H    0.113181
    85  H    0.115545
    86  H    0.130528
    87  H    0.103864
    88  H    0.073714
    89  H    0.092006
    90  H    0.105584
    91  H    0.123600
    92  H    0.128030
    93  H    0.149008
    94  H    0.111761
    95  H    0.156961
    96  H    0.111324
    97  H    0.134165
    98  H    0.129161
    99  H    0.129754
   100  H    0.089404
   101  H    0.092442
   102  H    0.120351
   103  H    0.088425
   104  H    0.111308
   105  H    0.095582
   106  H    0.093080
   107  H    0.094311
   108  H    0.108855
   109  H    0.065591
   110  H    0.088529
   111  H    0.087807
   112  H    0.105960
   113  H    0.106615
   114  H    0.091822
   115  H    0.070446
   116  H    0.088590
   117  H    0.099381
   118  H    0.090889
   119  H    0.102782
   120  H    0.075915
   121  H    0.049528
   122  H    0.105041
   123  H    0.112816
   124  H    0.081671
   125  H    0.091050
   126  H    0.096456
   127  H    0.095147
   128  H    0.114315
   129  H    0.080931
   130  H    0.090764
   131  H    0.085241
   132  H    0.098944
   133  H    0.058455
   134  H    0.099849
   135  H    0.101291
   136  H    0.081938
   137  H    0.094377
 Sum of Mulliken charges =   0.00000

 Dipole moment (field-independent basis, Debye):
    X=             -0.4251    Y=              6.5008    Z=              1.7992  Tot=              6.7585
 Quadrupole moment (field-independent basis, Debye-Ang):
   XX=           -343.5440   YY=           -399.3617   ZZ=           -396.6277
   XY=            -42.6573   XZ=              6.0004   YZ=              1.6980

 Normal termination of Gaussian 09 at Fri Jul  5 22:08:41 2019.
