 Gaussian 16, Revision A.03,
 Gaussian 16:  ES64L-G16RevA.03 25-Dec-2016

 ----------------------------------------------------------------------
 # td=(NStates=1) iop(3/107=0140000000,3/108=0140000000) CAM-B3LYP/6-31
 G(d,p)
 ----------------------------------------------------------------------

 --
 TD
 --
 Symbolic Z-matrix:
 Charge =  0 Multiplicity = 1

                         Standard orientation:
 ---------------------------------------------------------------------
 Center     Atomic      Atomic             Coordinates (Angstroms)
 Number     Number       Type             X           Y           Z
 ---------------------------------------------------------------------
      1         12           0       -7.173447    0.586497   -0.000754
      2          6           0       -4.898641   -2.018990    0.315581
      3          6           0       -4.809617    2.840292    1.121770
      4          6           0       -9.459485    3.130578   -0.365904
      5          6           0       -9.589010   -1.787836   -0.889798
      6          7           0       -5.091375    0.384740    0.824846
      7          6           0       -4.306930   -0.727868    0.753933
      8          6           0       -2.939718   -0.387462    1.243228
      9          6           0       -3.015888    1.111921    1.681661
     10          6           0       -4.378960    1.479775    1.234053
     11          6           0       -3.002994    1.224281    3.281591
     12          6           0       -1.955886   -0.652425    0.052611
     13          6           0       -0.455759   -0.543863    0.583040
     14          6           0        0.587568   -0.739117   -0.570675
     15          8           0        0.361102   -1.234030   -1.625446
     16          8           0        1.780841   -0.203131   -0.199160
     17          7           0       -7.092888    2.654165    0.321716
     18          6           0       -6.007635    3.481588    0.734845
     19          6           0       -6.327664    4.815348    0.660674
     20          6           0       -7.719283    4.883086    0.349828
     21          6           0       -8.153047    3.514739    0.112335
     22          6           0       -5.399254    5.939134    1.090772
     23          6           0       -8.598047    6.001766    0.303243
     24          6           0       -8.361104    7.254933    0.680490
     25          7           0       -9.172961    0.665397   -0.540240
     26          6           0       -9.861162    1.847729   -0.621314
     27          6           0      -11.236728    1.518930   -1.036372
     28          6           0      -11.294387    0.120756   -1.264972
     29          6           0       -9.935506   -0.369547   -0.864311
     30          6           0      -12.327456    2.503113   -1.290312
     31          6           0      -12.442638   -0.744051   -1.678340
     32          6           0      -12.405772   -1.062940   -3.315864
     33          7           0       -7.262158   -1.337149   -0.143259
     34          6           0       -8.356842   -2.292273   -0.553790
     35          6           0       -7.863646   -3.664653   -0.464229
     36          6           0       -6.496628   -3.533385   -0.108191
     37          6           0       -6.225015   -2.137380   -0.054748
     38          6           0       -8.673136   -4.793207   -0.818441
     39          6           0       -5.392312   -4.361730    0.105756
     40          8           0       -5.343149   -5.585981    0.191198
     41          6           0       -4.199046   -3.422969    0.492210
     42          6           0       -3.674230   -3.779416    1.793487
     43          8           0       -3.874627   -3.190689    2.865422
     44          8           0       -2.814634   -4.872030    1.754519
     45          6           0       -2.371747   -5.330470    2.973979
     46          6           0        2.891890   -0.487538   -1.182618
     47          6           0        4.236437   -0.267198   -0.619132
     48          6           0        5.159879    0.519148   -0.943001
     49          6           0        5.098418    1.336462   -2.171722
     50          6           0        6.422014    0.622209   -0.232266
     51          6           0        7.679772   -0.246650   -0.869062
     52          6           0        8.932154   -0.108481   -0.085393
     53          6           0       10.260076   -0.549342   -0.835105
     54          6           0       10.140375   -2.015140   -1.242473
     55          6           0       11.444934   -0.244671   -0.104879
     56          6           0       12.842124   -0.460128   -0.808848
     57          6           0       14.040161   -0.074547    0.067126
     58          6           0       15.406099   -0.273923   -0.561470
     59          6           0       15.782483   -1.755056   -0.853928
     60          6           0       16.481194    0.361832    0.352291
     61          6           0       17.960724    0.398557   -0.114571
     62          6           0       18.933678    1.154691    0.827786
     63          6           0       20.384475    1.315487    0.192619
     64          6           0       20.255827    2.171135   -1.058795
     65          6           0       21.255229    1.917078    1.305335
     66          1           0       -4.018745    3.446854    1.470360
     67          1           0      -10.178164    3.895256   -0.398958
     68          1           0      -10.359198   -2.578287   -1.092851
     69          1           0       -2.527877   -1.135722    2.047543
     70          1           0       -2.172051    1.860624    1.413047
     71          1           0       -2.002097    0.930846    3.697115
     72          1           0       -3.205292    2.284876    3.559633
     73          1           0       -3.748836    0.687071    3.904735
     74          1           0       -2.203382   -1.660179   -0.544144
     75          1           0       -1.959942    0.107395   -0.741678
     76          1           0       -0.419083    0.510913    0.980294
     77          1           0       -0.428147   -1.267008    1.497757
     78          1           0       -5.629188    6.889164    0.585972
     79          1           0       -5.441395    6.031339    2.130418
     80          1           0       -4.361024    5.594983    1.019107
     81          1           0       -9.622690    5.914226   -0.245899
     82          1           0       -9.208526    7.960180    0.685287
     83          1           0       -7.376895    7.383302    1.425769
     84          1           0      -11.924194    2.931459   -2.355747
     85          1           0      -13.088546    1.902558   -1.476608
     86          1           0      -12.709994    3.335082   -0.671254
     87          1           0      -12.399639   -1.504042   -1.152720
     88          1           0      -13.235825   -0.064746   -1.497099
     89          1           0      -13.304702   -1.630526   -3.694566
     90          1           0      -12.362275   -0.108321   -3.863909
     91          1           0      -11.481727   -1.685682   -3.548715
     92          1           0       -9.088620   -4.681471   -1.754860
     93          1           0       -8.017496   -5.759723   -0.717923
     94          1           0       -9.525036   -5.202106   -0.205830
     95          1           0       -3.498231   -3.434128   -0.520566
     96          1           0       -1.830145   -4.621319    3.563456
     97          1           0       -3.197639   -5.890124    3.568487
     98          1           0       -1.956509   -6.202537    2.873290
     99          1           0        2.744031   -1.544651   -1.496196
    100          1           0        2.677068    0.111986   -2.055707
    101          1           0        4.325689   -0.757794    0.328698
    102          1           0        4.172660    1.647527   -2.616731
    103          1           0        5.551888    2.189465   -1.812990
    104          1           0        5.907780    1.024990   -2.832559
    105          1           0        6.527849    1.626463    0.061310
    106          1           0        6.193348   -0.052876    0.676667
    107          1           0        7.422736   -1.353751   -0.683644
    108          1           0        7.812880    0.226218   -1.742217
    109          1           0        9.024503    1.063842    0.174800
    110          1           0        8.874479   -0.725628    0.889014
    111          1           0       10.254560    0.081317   -1.741748
    112          1           0        9.183608   -2.087829   -1.811788
    113          1           0       10.863404   -2.525702   -1.616213
    114          1           0       10.090730   -2.668455   -0.268289
    115          1           0       11.279466    0.740858    0.115902
    116          1           0       11.735703   -0.768868    0.876263
    117          1           0       13.070408   -1.451352   -1.143624
    118          1           0       12.909739    0.019444   -1.836619
    119          1           0       13.800311    1.009918    0.379094
    120          1           0       13.781070   -0.802458    0.849725
    121          1           0       15.392984    0.187771   -1.548746
    122          1           0       16.137828   -2.336630    0.235812
    123          1           0       15.120479   -2.234866   -1.409601
    124          1           0       16.835052   -1.857812   -1.276524
    125          1           0       16.100677    1.422101    0.617762
    126          1           0       16.446471   -0.387936    1.202173
    127          1           0       18.234025   -0.464509   -0.423317
    128          1           0       17.831850    0.914202   -1.103218
    129          1           0       18.345709    2.148875    1.084866
    130          1           0       19.074213    0.735221    1.815910
    131          1           0       20.770943    0.210921    0.086944
    132          1           0       20.074635    3.122075   -0.797450
    133          1           0       21.306922    2.291746   -1.315823
    134          1           0       19.663186    1.637930   -1.899211
    135          1           0       21.142428    1.568333    2.309029
    136          1           0       22.218285    2.083556    0.997434
    137          1           0       20.762256    3.001134    1.288894
 ---------------------------------------------------------------------

 SCF Done:  E(RCAM-B3LYP) =  -2933.49158113     A.U. after   16 cycles

 Excitation energies and oscillator strengths:

 Excited State   1:      Singlet-A      1.9279 eV  643.09 nm  f=0.2359  <S**2>=0.000
     240 -> 243       -0.24026
     241 -> 242        0.66085
 This state for optimization and/or second-order correction.
 Total Energy, E(TD-HF/TD-DFT) =  -2933.42073055
 Copying the excited state density for this state as the 1-particle RhoCI density.

 The electronic state is 1-A.
 Alpha  occ. eigenvalues --  -46.80177 -19.21520 -19.21435 -19.16948 -19.16807
 Alpha  occ. eigenvalues --  -19.16131 -14.37696 -14.35585 -14.35217 -14.34799
 Alpha  occ. eigenvalues --  -10.35004 -10.34499 -10.30195 -10.27326 -10.27015
 Alpha  occ. eigenvalues --  -10.26233 -10.25832 -10.25670 -10.25631 -10.25055
 Alpha  occ. eigenvalues --  -10.24900 -10.24749 -10.24706 -10.24666 -10.24469
 Alpha  occ. eigenvalues --  -10.24407 -10.24250 -10.24238 -10.23700 -10.23681
 Alpha  occ. eigenvalues --  -10.23336 -10.22655 -10.22617 -10.22595 -10.22550
 Alpha  occ. eigenvalues --  -10.22424 -10.22388 -10.22278 -10.22144 -10.22059
 Alpha  occ. eigenvalues --  -10.22021 -10.22008 -10.21991 -10.21933 -10.21894
 Alpha  occ. eigenvalues --  -10.21893 -10.21836 -10.21803 -10.21791 -10.21609
 Alpha  occ. eigenvalues --  -10.21535 -10.21414 -10.21229 -10.21116 -10.21106
 Alpha  occ. eigenvalues --  -10.21009 -10.21009 -10.20626 -10.20269 -10.20186
 Alpha  occ. eigenvalues --  -10.20054 -10.19943 -10.19739 -10.19596 -10.19358
 Alpha  occ. eigenvalues --   -3.08715  -1.83651  -1.83192  -1.83118  -1.12426
 Alpha  occ. eigenvalues --   -1.12349  -1.05677  -1.04371  -1.03461  -0.99099
 Alpha  occ. eigenvalues --   -0.98363  -0.97623  -0.96237  -0.88059  -0.87452
 Alpha  occ. eigenvalues --   -0.86210  -0.84634  -0.84290  -0.83637  -0.83414
 Alpha  occ. eigenvalues --   -0.83328  -0.83265  -0.83207  -0.82104  -0.80795
 Alpha  occ. eigenvalues --   -0.80271  -0.79262  -0.78976  -0.78025  -0.77522
 Alpha  occ. eigenvalues --   -0.77196  -0.76777  -0.75512  -0.75416  -0.73784
 Alpha  occ. eigenvalues --   -0.72908  -0.72606  -0.72270  -0.71841  -0.71684
 Alpha  occ. eigenvalues --   -0.71507  -0.70889  -0.69729  -0.68767  -0.68282
 Alpha  occ. eigenvalues --   -0.67790  -0.66662  -0.66135  -0.65054  -0.64237
 Alpha  occ. eigenvalues --   -0.62806  -0.61864  -0.61000  -0.60325  -0.60196
 Alpha  occ. eigenvalues --   -0.60114  -0.59186  -0.58409  -0.58118  -0.57912
 Alpha  occ. eigenvalues --   -0.57640  -0.56411  -0.56159  -0.55650  -0.55441
 Alpha  occ. eigenvalues --   -0.54958  -0.54212  -0.53903  -0.53402  -0.52652
 Alpha  occ. eigenvalues --   -0.52350  -0.51817  -0.51675  -0.51224  -0.50985
 Alpha  occ. eigenvalues --   -0.50733  -0.50463  -0.50112  -0.49624  -0.49398
 Alpha  occ. eigenvalues --   -0.49200  -0.49105  -0.48538  -0.48402  -0.48394
 Alpha  occ. eigenvalues --   -0.48064  -0.47654  -0.47424  -0.47185  -0.47101
 Alpha  occ. eigenvalues --   -0.46957  -0.46829  -0.46545  -0.46420  -0.46197
 Alpha  occ. eigenvalues --   -0.45856  -0.45806  -0.45577  -0.45392  -0.45242
 Alpha  occ. eigenvalues --   -0.44868  -0.44550  -0.44404  -0.44306  -0.43655
 Alpha  occ. eigenvalues --   -0.43441  -0.43139  -0.42725  -0.42587  -0.42417
 Alpha  occ. eigenvalues --   -0.42253  -0.42191  -0.42101  -0.41695  -0.41604
 Alpha  occ. eigenvalues --   -0.41511  -0.41234  -0.41019  -0.40898  -0.40481
 Alpha  occ. eigenvalues --   -0.40380  -0.40376  -0.40253  -0.40066  -0.39759
 Alpha  occ. eigenvalues --   -0.39655  -0.39278  -0.39219  -0.39043  -0.38865
 Alpha  occ. eigenvalues --   -0.38682  -0.38555  -0.38465  -0.38131  -0.38051
 Alpha  occ. eigenvalues --   -0.37695  -0.37476  -0.37141  -0.36906  -0.36695
 Alpha  occ. eigenvalues --   -0.36411  -0.36330  -0.36282  -0.36168  -0.36037
 Alpha  occ. eigenvalues --   -0.36006  -0.35454  -0.35284  -0.35115  -0.35091
 Alpha  occ. eigenvalues --   -0.34630  -0.34094  -0.33978  -0.33741  -0.33497
 Alpha  occ. eigenvalues --   -0.33254  -0.33209  -0.32959  -0.32936  -0.32572
 Alpha  occ. eigenvalues --   -0.32440  -0.31946  -0.31756  -0.31034  -0.30692
 Alpha  occ. eigenvalues --   -0.30291  -0.30231  -0.29875  -0.28008  -0.27786
 Alpha  occ. eigenvalues --   -0.27319  -0.27051  -0.25060  -0.24050  -0.21474
 Alpha  occ. eigenvalues --   -0.19730
 Alpha virt. eigenvalues --   -0.07429  -0.04322  -0.01037   0.01803   0.02859
 Alpha virt. eigenvalues --    0.04003   0.04275   0.04993   0.05295   0.05959
 Alpha virt. eigenvalues --    0.06549   0.08612   0.09362   0.09751   0.09961

 Mulliken charges:
               1
     1  Mg   0.822043
     2  C   -0.018468
     3  C   -0.188042
     4  C   -0.140191
     5  C   -0.208064
     6  N   -0.617457
     7  C    0.329708
     8  C   -0.160379
     9  C   -0.152102
    10  C    0.334814
    11  C   -0.321535
    12  C   -0.178538
    13  C   -0.269863
    14  C    0.606901
    15  O   -0.446879
    16  O   -0.481928
    17  N   -0.711084
    18  C    0.310354
    19  C    0.035299
    20  C    0.013664
    21  C    0.305402
    22  C   -0.387072
    23  C   -0.072542
    24  C   -0.261973
    25  N   -0.716979
    26  C    0.334182
    27  C   -0.011182
    28  C   -0.008919
    29  C    0.318326
    30  C   -0.363373
    31  C   -0.208848
    32  C   -0.325182
    33  N   -0.762572
    34  C    0.245863
    35  C    0.093813
    36  C    0.038271
    37  C    0.416266
    38  C   -0.424527
    39  C    0.320128
    40  O   -0.467237
    41  C   -0.306340
    42  C    0.650391
    43  O   -0.479741
    44  O   -0.442295
    45  C   -0.059685
    46  C    0.000381
    47  C   -0.129199
    48  C    0.164585
    49  C   -0.367305
    50  C   -0.267474
    51  C   -0.160081
    52  C   -0.173315
    53  C   -0.056725
    54  C   -0.301353
    55  C   -0.136545
    56  C   -0.214176
    57  C   -0.153094
    58  C   -0.057135
    59  C   -0.305078
    60  C   -0.166843
    61  C   -0.172100
    62  C   -0.154624
    63  C   -0.062192
    64  C   -0.295818
    65  C   -0.308766
    66  H    0.056870
    67  H    0.084953
    68  H    0.092414
    69  H    0.123221
    70  H    0.110486
    71  H    0.102509
    72  H    0.102550
    73  H    0.132602
    74  H    0.102807
    75  H    0.113738
    76  H    0.124455
    77  H    0.121456
    78  H    0.129598
    79  H    0.138451
    80  H    0.108707
    81  H    0.079224
    82  H    0.100243
    83  H    0.078868
    84  H    0.107136
    85  H    0.118004
    86  H    0.124605
    87  H    0.108784
    88  H    0.106251
    89  H    0.102080
    90  H    0.115231
    91  H    0.106440
    92  H    0.140249
    93  H    0.140800
    94  H    0.131151
    95  H    0.159955
    96  H    0.121374
    97  H    0.090077
    98  H    0.120112
    99  H    0.129949
   100  H    0.114989
   101  H    0.072069
   102  H    0.118227
   103  H    0.112115
   104  H    0.119948
   105  H    0.110147
   106  H    0.088380
   107  H    0.114340
   108  H    0.107154
   109  H    0.063857
   110  H    0.085746
   111  H    0.084266
   112  H    0.097930
   113  H    0.114098
   114  H    0.071282
   115  H    0.093801
   116  H    0.074858
   117  H    0.093405
   118  H    0.066693
   119  H    0.082982
   120  H    0.093634
   121  H    0.084744
   122  H    0.057930
   123  H    0.114358
   124  H    0.101762
   125  H    0.074166
   126  H    0.081407
   127  H    0.096088
   128  H    0.079497
   129  H    0.067136
   130  H    0.086782
   131  H    0.072178
   132  H    0.116687
   133  H    0.093692
   134  H    0.108987
   135  H    0.113517
   136  H    0.107656
   137  H    0.072566
 Sum of Mulliken charges =  -0.00000

 Dipole moment (field-independent basis, Debye):
    X=              2.0019    Y=              3.1201    Z=             -0.8337  Tot=              3.7997
 Quadrupole moment (field-independent basis, Debye-Ang):
   XX=           -321.9824   YY=           -399.2102   ZZ=           -398.5785
   XY=             -9.2077   XZ=              8.1044   YZ=              0.0783

 Normal termination of Gaussian 16 at Sat Sep  7 16:08:26 2019.
