 Gaussian 16, Revision A.03,
 Gaussian 16:  ES64L-G16RevA.03 25-Dec-2016

 ----------------------------------------------------------------------
 # td=(NStates=1) iop(3/107=0140000000,3/108=0140000000) CAM-B3LYP/6-31
 G(d,p)
 ----------------------------------------------------------------------

 --
 TD
 --
 Symbolic Z-matrix:
 Charge =  0 Multiplicity = 1

                         Standard orientation:
 ---------------------------------------------------------------------
 Center     Atomic      Atomic             Coordinates (Angstroms)
 Number     Number       Type             X           Y           Z
 ---------------------------------------------------------------------
      1         12           0       -7.056857    0.620105    0.084933
      2          6           0       -4.872325   -1.924042    0.477600
      3          6           0       -4.750258    2.780533    1.195675
      4          6           0       -9.284455    3.199149   -0.521839
      5          6           0       -9.565897   -1.696151   -0.811152
      6          7           0       -5.129382    0.404137    0.685159
      7          6           0       -4.287517   -0.644487    0.771913
      8          6           0       -2.985219   -0.411277    1.192020
      9          6           0       -3.013167    1.071911    1.685626
     10          6           0       -4.477883    1.503829    1.210457
     11          6           0       -3.121655    1.070778    3.300414
     12          6           0       -1.946298   -0.511215    0.113013
     13          6           0       -0.422847   -0.460932    0.588402
     14          6           0        0.555003   -0.728246   -0.508707
     15          8           0        0.194033   -1.293801   -1.574414
     16          8           0        1.754401   -0.395316   -0.161231
     17          7           0       -6.909163    2.639386    0.348919
     18          6           0       -5.958935    3.425636    0.696858
     19          6           0       -6.327971    4.794347    0.766966
     20          6           0       -7.675896    4.845774    0.280897
     21          6           0       -8.031700    3.503021   -0.013973
     22          6           0       -5.448158    5.964315    1.117504
     23          6           0       -8.497720    5.998829    0.158449
     24          6           0       -8.387284    7.216988    0.738342
     25          7           0       -9.115329    0.675004   -0.519533
     26          6           0       -9.784010    1.877447   -0.769073
     27          6           0      -11.181093    1.533938   -1.226004
     28          6           0      -11.121816    0.065604   -1.229700
     29          6           0       -9.863156   -0.398551   -0.872397
     30          6           0      -12.271625    2.448153   -1.405069
     31          6           0      -12.304990   -0.783283   -1.661591
     32          6           0      -12.373593   -1.141456   -3.111804
     33          7           0       -7.197778   -1.392353   -0.223576
     34          6           0       -8.276381   -2.229326   -0.630007
     35          6           0       -7.780131   -3.571684   -0.585237
     36          6           0       -6.508092   -3.577708   -0.133841
     37          6           0       -6.164076   -2.171593    0.020235
     38          6           0       -8.541489   -4.920844   -0.745716
     39          6           0       -5.298538   -4.330455    0.185818
     40          8           0       -5.015948   -5.544219    0.231026
     41          6           0       -4.221301   -3.343955    0.594387
     42          6           0       -3.569378   -3.569811    1.922247
     43          8           0       -3.819000   -2.962585    2.949821
     44          8           0       -2.719470   -4.657153    1.810369
     45          6           0       -2.128215   -5.159074    3.028869
     46          6           0        2.819011   -0.823677   -1.013452
     47          6           0        4.084309   -0.481264   -0.445573
     48          6           0        5.023701    0.208880   -0.964100
     49          6           0        5.099876    1.112927   -2.247473
     50          6           0        6.370433    0.352369   -0.238467
     51          6           0        7.627216   -0.003868   -1.105526
     52          6           0        8.879612    0.028989   -0.192378
     53          6           0       10.082770   -0.575442   -1.006051
     54          6           0       10.089704   -1.989363   -1.442739
     55          6           0       11.376656   -0.345356   -0.194180
     56          6           0       12.741914   -0.546343   -0.910130
     57          6           0       13.976404   -0.127065    0.047473
     58          6           0       15.396254   -0.229876   -0.472233
     59          6           0       15.619609   -1.735052   -0.845034
     60          6           0       16.349898    0.396704    0.394914
     61          6           0       17.709773    0.597895   -0.100229
     62          6           0       18.657837    1.180759    0.816740
     63          6           0       20.158609    1.415109    0.248031
     64          6           0       20.147103    2.265247   -0.936147
     65          6           0       21.014913    1.973982    1.435563
     66          1           0       -3.979586    3.501683    1.702358
     67          1           0       -9.993783    4.043613   -0.288233
     68          1           0      -10.200927   -2.521826   -1.351232
     69          1           0       -2.626478   -1.040874    1.959310
     70          1           0       -2.226293    1.970033    1.380009
     71          1           0       -2.261793    0.660690    3.628732
     72          1           0       -3.180215    2.092102    3.587830
     73          1           0       -3.852030    0.488273    3.667523
     74          1           0       -1.889842   -1.479861   -0.350282
     75          1           0       -2.250920    0.188441   -0.649908
     76          1           0       -0.118395    0.587780    0.866756
     77          1           0       -0.252425   -1.141826    1.300667
     78          1           0       -5.523856    6.738069    0.359731
     79          1           0       -5.638684    6.311047    2.173600
     80          1           0       -4.476411    5.690386    0.829144
     81          1           0       -9.377342    5.800875   -0.494551
     82          1           0       -9.017466    7.748802    0.345135
     83          1           0       -7.592199    7.392569    1.412466
     84          1           0      -11.864049    3.363029   -2.116968
     85          1           0      -13.030546    1.922236   -1.757459
     86          1           0      -12.425675    3.085622   -0.507048
     87          1           0      -12.484411   -1.578136   -1.157297
     88          1           0      -13.332493   -0.518193   -1.462560
     89          1           0      -13.170783   -1.632049   -3.310217
     90          1           0      -12.463643   -0.322125   -3.665593
     91          1           0      -11.589432   -1.837870   -3.503212
     92          1           0       -8.854979   -5.115052   -1.813701
     93          1           0       -7.958917   -5.768916   -0.462168
     94          1           0       -9.461355   -4.839578   -0.037112
     95          1           0       -3.437450   -3.357701   -0.384743
     96          1           0       -1.860997   -4.495394    3.593323
     97          1           0       -3.011454   -5.564915    3.666978
     98          1           0       -1.474237   -5.929624    2.681500
     99          1           0        2.865102   -2.055626   -1.124584
    100          1           0        2.654343   -0.455792   -2.073700
    101          1           0        4.362696   -1.068936    0.386611
    102          1           0        4.091730    1.346148   -2.602264
    103          1           0        5.682394    2.034229   -1.999973
    104          1           0        5.694509    0.703052   -2.948534
    105          1           0        6.350932    1.294774    0.335340
    106          1           0        6.144142   -0.250980    0.589561
    107          1           0        7.362602   -1.082773   -1.464664
    108          1           0        7.702804    0.559922   -1.955292
    109          1           0        9.106197    1.130453    0.172043
    110          1           0        8.567860   -0.433866    0.854033
    111          1           0       10.260315    0.071491   -1.861251
    112          1           0        9.049273   -2.529630   -1.717182
    113          1           0       10.985680   -1.949486   -2.354327
    114          1           0       10.499838   -2.676317   -0.447389
    115          1           0       11.410160    0.677555    0.105344
    116          1           0       11.342443   -0.795142    0.664917
    117          1           0       13.054466   -1.500416   -1.199733
    118          1           0       12.748393   -0.001207   -1.873265
    119          1           0       13.705266    0.863448    0.558995
    120          1           0       13.872011   -0.701896    1.001048
    121          1           0       15.380076    0.335392   -1.503015
    122          1           0       15.672627   -2.517115   -0.089888
    123          1           0       14.813064   -1.994785   -1.706019
    124          1           0       16.467461   -1.704236   -1.337773
    125          1           0       15.994369    1.254448    0.862623
    126          1           0       16.573603   -0.207308    1.249956
    127          1           0       18.146709   -0.387448   -0.527086
    128          1           0       17.800508    1.312192   -0.961576
    129          1           0       18.504621    2.295214    1.091404
    130          1           0       18.714527    0.615320    1.801469
    131          1           0       20.617692    0.236756   -0.032808
    132          1           0       19.969073    3.327722   -0.658612
    133          1           0       21.232255    2.517277   -1.531186
    134          1           0       19.735602    1.932988   -2.024226
    135          1           0       21.011263    1.167721    2.180991
    136          1           0       22.016468    1.963434    1.286023
    137          1           0       20.682498    2.921941    2.019126
 ---------------------------------------------------------------------

 SCF Done:  E(RCAM-B3LYP) =  -2933.37191819     A.U. after   16 cycles

 Excitation energies and oscillator strengths:

 Excited State   1:      Singlet-A      2.0092 eV  617.09 nm  f=0.2764  <S**2>=0.000
     240 -> 243        0.22815
     241 -> 242        0.66500
 This state for optimization and/or second-order correction.
 Total Energy, E(TD-HF/TD-DFT) =  -2933.29808256
 Copying the excited state density for this state as the 1-particle RhoCI density.

 The electronic state is 1-A.
 Alpha  occ. eigenvalues --  -46.79554 -19.23862 -19.21381 -19.17429 -19.15569
 Alpha  occ. eigenvalues --  -19.15337 -14.37223 -14.35190 -14.34550 -14.34505
 Alpha  occ. eigenvalues --  -10.34863 -10.34203 -10.30277 -10.28970 -10.26202
 Alpha  occ. eigenvalues --  -10.25216 -10.24941 -10.24894 -10.24817 -10.24696
 Alpha  occ. eigenvalues --  -10.24686 -10.24653 -10.24498 -10.24471 -10.24467
 Alpha  occ. eigenvalues --  -10.23822 -10.23781 -10.23644 -10.23415 -10.23305
 Alpha  occ. eigenvalues --  -10.23063 -10.22785 -10.22736 -10.22540 -10.22330
 Alpha  occ. eigenvalues --  -10.22261 -10.22189 -10.22094 -10.22022 -10.22019
 Alpha  occ. eigenvalues --  -10.22004 -10.21983 -10.21895 -10.21819 -10.21641
 Alpha  occ. eigenvalues --  -10.21540 -10.21506 -10.21498 -10.21294 -10.21288
 Alpha  occ. eigenvalues --  -10.21235 -10.21079 -10.21004 -10.20836 -10.20656
 Alpha  occ. eigenvalues --  -10.20439 -10.20358 -10.20299 -10.20067 -10.19644
 Alpha  occ. eigenvalues --  -10.19392 -10.19112 -10.18966 -10.18896 -10.17475
 Alpha  occ. eigenvalues --   -3.08137  -1.83087  -1.82612  -1.82539  -1.15461
 Alpha  occ. eigenvalues --   -1.11601  -1.04235  -1.03923  -1.02437  -0.99758
 Alpha  occ. eigenvalues --   -0.98672  -0.98201  -0.96443  -0.87172  -0.86784
 Alpha  occ. eigenvalues --   -0.86721  -0.85464  -0.85094  -0.84945  -0.83607
 Alpha  occ. eigenvalues --   -0.83303  -0.82862  -0.82527  -0.81926  -0.81757
 Alpha  occ. eigenvalues --   -0.80169  -0.79836  -0.79401  -0.79033  -0.78777
 Alpha  occ. eigenvalues --   -0.77421  -0.76960  -0.75801  -0.75014  -0.74297
 Alpha  occ. eigenvalues --   -0.73342  -0.72900  -0.72529  -0.71815  -0.71320
 Alpha  occ. eigenvalues --   -0.71202  -0.70382  -0.69631  -0.69426  -0.68034
 Alpha  occ. eigenvalues --   -0.66858  -0.66587  -0.66448  -0.65318  -0.64910
 Alpha  occ. eigenvalues --   -0.63521  -0.62986  -0.61349  -0.61242  -0.60878
 Alpha  occ. eigenvalues --   -0.59890  -0.59781  -0.59196  -0.58450  -0.57607
 Alpha  occ. eigenvalues --   -0.57136  -0.56836  -0.56817  -0.56090  -0.55576
 Alpha  occ. eigenvalues --   -0.54834  -0.54215  -0.53640  -0.53449  -0.53037
 Alpha  occ. eigenvalues --   -0.52000  -0.51216  -0.51132  -0.50979  -0.50892
 Alpha  occ. eigenvalues --   -0.50487  -0.50130  -0.49998  -0.49521  -0.49287
 Alpha  occ. eigenvalues --   -0.48951  -0.48771  -0.48749  -0.48628  -0.48348
 Alpha  occ. eigenvalues --   -0.48235  -0.47674  -0.47605  -0.47358  -0.47222
 Alpha  occ. eigenvalues --   -0.47081  -0.46860  -0.46663  -0.46041  -0.45901
 Alpha  occ. eigenvalues --   -0.45648  -0.45491  -0.45440  -0.45001  -0.44802
 Alpha  occ. eigenvalues --   -0.44662  -0.44545  -0.44322  -0.43993  -0.43819
 Alpha  occ. eigenvalues --   -0.43705  -0.43322  -0.43180  -0.42783  -0.42724
 Alpha  occ. eigenvalues --   -0.42399  -0.42302  -0.41969  -0.41874  -0.41604
 Alpha  occ. eigenvalues --   -0.41499  -0.41385  -0.41240  -0.40993  -0.40769
 Alpha  occ. eigenvalues --   -0.40340  -0.40284  -0.40155  -0.39913  -0.39573
 Alpha  occ. eigenvalues --   -0.39405  -0.39334  -0.39245  -0.39119  -0.38956
 Alpha  occ. eigenvalues --   -0.38783  -0.38709  -0.38424  -0.38167  -0.37937
 Alpha  occ. eigenvalues --   -0.37657  -0.37473  -0.37198  -0.37081  -0.37004
 Alpha  occ. eigenvalues --   -0.36795  -0.36616  -0.36217  -0.36077  -0.35798
 Alpha  occ. eigenvalues --   -0.35699  -0.35196  -0.34791  -0.34775  -0.34518
 Alpha  occ. eigenvalues --   -0.34379  -0.34161  -0.33824  -0.33721  -0.33325
 Alpha  occ. eigenvalues --   -0.33313  -0.32994  -0.32770  -0.32717  -0.32304
 Alpha  occ. eigenvalues --   -0.32040  -0.31718  -0.31604  -0.30725  -0.30170
 Alpha  occ. eigenvalues --   -0.29691  -0.29571  -0.29235  -0.28328  -0.28094
 Alpha  occ. eigenvalues --   -0.27188  -0.26509  -0.24535  -0.23668  -0.21722
 Alpha  occ. eigenvalues --   -0.19845
 Alpha virt. eigenvalues --   -0.07223  -0.04036  -0.00189   0.02127   0.02968
 Alpha virt. eigenvalues --    0.04149   0.04881   0.04997   0.05350   0.05769
 Alpha virt. eigenvalues --    0.06406   0.08730   0.09370   0.09583   0.09654

 Mulliken charges:
               1
     1  Mg   0.802204
     2  C    0.033651
     3  C   -0.215024
     4  C   -0.184911
     5  C   -0.178819
     6  N   -0.664979
     7  C    0.372800
     8  C   -0.160973
     9  C   -0.170248
    10  C    0.377067
    11  C   -0.309533
    12  C   -0.171455
    13  C   -0.261395
    14  C    0.597651
    15  O   -0.505973
    16  O   -0.417574
    17  N   -0.693598
    18  C    0.336438
    19  C   -0.018233
    20  C    0.048781
    21  C    0.285825
    22  C   -0.382765
    23  C   -0.129305
    24  C   -0.169185
    25  N   -0.701056
    26  C    0.263293
    27  C    0.031153
    28  C   -0.007037
    29  C    0.390981
    30  C   -0.365692
    31  C   -0.252084
    32  C   -0.303860
    33  N   -0.730913
    34  C    0.260552
    35  C   -0.053958
    36  C    0.106422
    37  C    0.296046
    38  C   -0.376527
    39  C    0.357144
    40  O   -0.481029
    41  C   -0.300224
    42  C    0.628435
    43  O   -0.473193
    44  O   -0.456350
    45  C   -0.064413
    46  C   -0.005672
    47  C   -0.133508
    48  C    0.133278
    49  C   -0.367856
    50  C   -0.243997
    51  C   -0.168061
    52  C   -0.175245
    53  C   -0.050198
    54  C   -0.262073
    55  C   -0.172804
    56  C   -0.193174
    57  C   -0.181422
    58  C   -0.049154
    59  C   -0.308075
    60  C   -0.151051
    61  C   -0.166365
    62  C   -0.159294
    63  C   -0.037264
    64  C   -0.289862
    65  C   -0.317704
    66  H    0.071144
    67  H    0.104395
    68  H    0.100694
    69  H    0.121872
    70  H    0.088133
    71  H    0.110169
    72  H    0.104904
    73  H    0.137105
    74  H    0.124807
    75  H    0.111224
    76  H    0.118938
    77  H    0.141646
    78  H    0.128123
    79  H    0.124437
    80  H    0.118349
    81  H    0.076002
    82  H    0.077892
    83  H    0.096354
    84  H    0.093377
    85  H    0.120679
    86  H    0.128206
    87  H    0.103241
    88  H    0.089454
    89  H    0.106100
    90  H    0.114936
    91  H    0.089295
    92  H    0.117361
    93  H    0.151848
    94  H    0.114716
    95  H    0.151151
    96  H    0.131204
    97  H    0.108999
    98  H    0.132638
    99  H    0.101708
   100  H    0.125663
   101  H    0.088462
   102  H    0.108895
   103  H    0.114333
   104  H    0.137548
   105  H    0.104173
   106  H    0.092220
   107  H    0.090580
   108  H    0.109502
   109  H    0.083896
   110  H    0.082591
   111  H    0.093230
   112  H    0.090013
   113  H    0.084311
   114  H    0.068497
   115  H    0.087575
   116  H    0.101276
   117  H    0.105384
   118  H    0.079938
   119  H    0.063595
   120  H    0.081441
   121  H    0.068364
   122  H    0.108055
   123  H    0.080580
   124  H    0.114027
   125  H    0.098212
   126  H    0.089888
   127  H    0.077315
   128  H    0.088111
   129  H    0.076280
   130  H    0.076923
   131  H    0.041870
   132  H    0.109545
   133  H    0.060099
   134  H    0.102409
   135  H    0.103758
   136  H    0.116035
   137  H    0.095673
 Sum of Mulliken charges =  -0.00000

 Dipole moment (field-independent basis, Debye):
    X=              3.7973    Y=              4.3761    Z=              1.0195  Tot=              5.8829
 Quadrupole moment (field-independent basis, Debye-Ang):
   XX=           -333.8976   YY=           -395.7493   ZZ=           -395.0457
   XY=            -13.7432   XZ=             11.1525   YZ=             -3.7191

 Normal termination of Gaussian 16 at Sun Sep 15 11:04:31 2019.
