 Gaussian 09, Revision D.01,
 Gaussian 09:  ES64L-G09RevD.01 24-Apr-2013

 -------------------------------------
 # td=(NStates=1) CAM-B3LYP/6-31G(d,p)
 -------------------------------------

 --
 TD
 --
 Symbolic Z-matrix:
 Charge =  0 Multiplicity = 1

                         Standard orientation:
 ---------------------------------------------------------------------
 Center     Atomic      Atomic             Coordinates (Angstroms)
 Number     Number       Type             X           Y           Z
 ---------------------------------------------------------------------
      1         12           0       -7.129399    0.624722    0.045793
      2          6           0       -4.874909   -1.954916    0.579866
      3          6           0       -4.770371    2.810329    1.061531
      4          6           0       -9.405515    3.080248   -0.336656
      5          6           0       -9.429476   -1.733209   -0.965527
      6          7           0       -5.093387    0.410248    0.780920
      7          6           0       -4.234634   -0.749169    0.791858
      8          6           0       -2.890791   -0.427867    1.296991
      9          6           0       -3.013588    1.102849    1.711295
     10          6           0       -4.323222    1.498205    1.145763
     11          6           0       -2.993588    1.219705    3.297156
     12          6           0       -1.870611   -0.612463    0.173664
     13          6           0       -0.463704   -0.379659    0.641050
     14          6           0        0.458529   -0.596846   -0.474465
     15          8           0        0.250203   -0.920672   -1.594970
     16          8           0        1.795055   -0.400504   -0.147632
     17          7           0       -7.065657    2.605597    0.350473
     18          6           0       -5.990790    3.355076    0.611544
     19          6           0       -6.300644    4.767351    0.724306
     20          6           0       -7.680874    4.866867    0.346911
     21          6           0       -8.177053    3.515080    0.093249
     22          6           0       -5.362629    5.884775    1.001441
     23          6           0       -8.525779    6.034345    0.040042
     24          6           0       -8.439131    7.126746    0.778107
     25          7           0       -9.047385    0.527601   -0.564435
     26          6           0       -9.852276    1.770699   -0.607126
     27          6           0      -11.161974    1.474407   -1.094304
     28          6           0      -11.230603    0.079896   -1.216463
     29          6           0       -9.926530   -0.432111   -0.824307
     30          6           0      -12.353621    2.399566   -1.213036
     31          6           0      -12.312262   -0.794119   -1.748566
     32          6           0      -12.198709   -1.220626   -3.240091
     33          7           0       -7.148074   -1.366662   -0.089247
     34          6           0       -8.204488   -2.156747   -0.622189
     35          6           0       -7.823194   -3.604435   -0.575784
     36          6           0       -6.460926   -3.647252   -0.252662
     37          6           0       -6.174514   -2.218549    0.105894
     38          6           0       -8.529732   -4.915337   -1.034233
     39          6           0       -5.232486   -4.393038   -0.015887
     40          8           0       -5.042444   -5.605063   -0.062477
     41          6           0       -4.209737   -3.296403    0.526064
     42          6           0       -3.597754   -3.620176    1.945342
     43          8           0       -3.850996   -3.043815    2.985828
     44          8           0       -2.839544   -4.702602    1.879954
     45          6           0       -2.148026   -5.118145    3.013076
     46          6           0        2.804675   -0.601138   -1.203882
     47          6           0        4.079169   -0.309497   -0.544713
     48          6           0        5.079892    0.494898   -0.935385
     49          6           0        5.098048    1.142613   -2.305417
     50          6           0        6.386093    0.597079   -0.165606
     51          6           0        7.557474   -0.032125   -0.863591
     52          6           0        8.829179   -0.138986   -0.022582
     53          6           0       10.127191   -0.522032   -0.835979
     54          6           0        9.971692   -1.952849   -1.217018
     55          6           0       11.329681   -0.185222   -0.043259
     56          6           0       12.662650   -0.442182   -0.643451
     57          6           0       13.917066   -0.097070    0.177286
     58          6           0       15.335332   -0.286611   -0.523643
     59          6           0       15.565967   -1.732113   -0.839704
     60          6           0       16.424694    0.329154    0.442260
     61          6           0       17.752101    0.444566   -0.170904
     62          6           0       18.808855    1.073772    0.833188
     63          6           0       20.135672    1.293925    0.128731
     64          6           0       20.191715    2.084340   -1.164669
     65          6           0       21.118090    1.869966    1.073193
     66          1           0       -4.054422    3.552265    1.432361
     67          1           0       -9.981665    3.864235   -0.448329
     68          1           0      -10.200971   -2.636945   -0.993588
     69          1           0       -2.392795   -1.013159    2.099800
     70          1           0       -2.248565    1.753138    1.217172
     71          1           0       -2.092909    0.780982    3.535216
     72          1           0       -3.122166    2.190182    3.635125
     73          1           0       -3.849319    0.689067    3.806569
     74          1           0       -2.071296   -1.603023   -0.058107
     75          1           0       -2.210357    0.176206   -0.672732
     76          1           0       -0.306015    0.628878    1.007559
     77          1           0       -0.052887   -1.236380    1.216930
     78          1           0       -5.817161    6.729281    0.402887
     79          1           0       -5.513802    6.172688    2.021755
     80          1           0       -4.281792    5.827565    0.611412
     81          1           0       -9.306698    6.044321   -0.756392
     82          1           0       -9.212045    8.099246    0.616763
     83          1           0       -7.560231    7.221901    1.351781
     84          1           0      -12.152324    3.205303   -2.060321
     85          1           0      -13.100024    1.833503   -1.549262
     86          1           0      -12.646446    2.755255    0.017477
     87          1           0      -12.299178   -1.605826   -1.011138
     88          1           0      -13.107404   -0.174125   -1.606816
     89          1           0      -13.109728   -1.745712   -3.762520
     90          1           0      -12.096839   -0.143173   -3.781830
     91          1           0      -11.427909   -1.989507   -3.336547
     92          1           0       -8.723126   -4.968321   -2.158707
     93          1           0       -7.960659   -5.667464   -0.808833
     94          1           0       -9.425642   -5.206467   -0.499926
     95          1           0       -3.426223   -3.232362   -0.297094
     96          1           0       -1.739861   -4.367878    3.773720
     97          1           0       -2.747659   -5.777305    3.801661
     98          1           0       -1.299305   -5.862201    2.753810
     99          1           0        2.665421   -1.567897   -1.454881
    100          1           0        2.671937    0.178446   -2.027334
    101          1           0        4.283308   -0.924317    0.296011
    102          1           0        4.141725    1.359445   -2.735137
    103          1           0        5.513645    2.269776   -2.385223
    104          1           0        5.751926    0.663744   -3.029089
    105          1           0        6.621741    1.723226   -0.167880
    106          1           0        6.084082   -0.074284    0.647300
    107          1           0        7.467010   -1.010663   -1.280536
    108          1           0        7.847356    0.649173   -1.840292
    109          1           0        9.187024    0.952720    0.495221
    110          1           0        8.947004   -0.839243    0.694895
    111          1           0       10.114063    0.312702   -1.602699
    112          1           0        8.900047   -2.315587   -1.608421
    113          1           0       10.712775   -2.147003   -2.030622
    114          1           0       10.015229   -2.656418   -0.309163
    115          1           0       11.252190    0.833298    0.328592
    116          1           0       11.222028   -0.736009    0.858831
    117          1           0       12.675492   -1.494973   -0.970867
    118          1           0       12.496860    0.174627   -1.593327
    119          1           0       14.069428    0.865316    0.569212
    120          1           0       14.092692   -0.773902    1.143606
    121          1           0       15.303740    0.498876   -1.361378
    122          1           0       15.732410   -2.168826    0.177111
    123          1           0       14.833411   -2.272368   -1.284760
    124          1           0       16.469303   -1.994587   -1.273833
    125          1           0       16.095428    1.363453    0.882891
    126          1           0       16.259551   -0.035152    1.432763
    127          1           0       18.234777   -0.651606   -0.498884
    128          1           0       17.623363    0.891778   -1.055877
    129          1           0       18.510694    2.179137    1.055997
    130          1           0       18.832025    0.631873    1.771648
    131          1           0       20.543128    0.255498   -0.021279
    132          1           0       20.074263    3.219877   -0.821053
    133          1           0       21.242903    2.116576   -1.633466
    134          1           0       19.472271    1.719755   -1.893808
    135          1           0       21.354788    1.369385    2.050661
    136          1           0       22.093084    2.006361    0.351891
    137          1           0       20.847664    2.907304    1.211940
 ---------------------------------------------------------------------

 SCF Done:  E(RCAM-B3LYP) =  -2932.67819496     A.U. after   15 cycles

 Excitation energies and oscillator strengths:

 Excited State   1:      Singlet-A      2.0508 eV  604.56 nm  f=0.1987  <S**2>=0.000
     240 -> 242       -0.11211
     240 -> 243        0.24219
     241 -> 242        0.63484
     241 -> 243        0.12141
 This state for optimization and/or second-order correction.
 Total Energy, E(TD-HF/TD-KS) =  -2932.60282907
 Copying the excited state density for this state as the 1-particle RhoCI density.

 The electronic state is 1-A.
 Alpha  occ. eigenvalues --  -46.83441 -19.27707 -19.23543 -19.21309 -19.21145
 Alpha  occ. eigenvalues --  -19.20197 -14.40892 -14.39906 -14.39306 -14.38868
 Alpha  occ. eigenvalues --  -10.40035 -10.38159 -10.36215 -10.33079 -10.30989
 Alpha  occ. eigenvalues --  -10.30727 -10.30401 -10.29958 -10.29768 -10.29588
 Alpha  occ. eigenvalues --  -10.29395 -10.29218 -10.28795 -10.28783 -10.28310
 Alpha  occ. eigenvalues --  -10.28037 -10.27987 -10.27983 -10.27854 -10.27744
 Alpha  occ. eigenvalues --  -10.27656 -10.27454 -10.27432 -10.27308 -10.27239
 Alpha  occ. eigenvalues --  -10.27132 -10.26972 -10.26802 -10.26628 -10.26611
 Alpha  occ. eigenvalues --  -10.26576 -10.26566 -10.26398 -10.26249 -10.26203
 Alpha  occ. eigenvalues --  -10.26160 -10.26146 -10.26051 -10.25836 -10.25656
 Alpha  occ. eigenvalues --  -10.25644 -10.25579 -10.25575 -10.25515 -10.25452
 Alpha  occ. eigenvalues --  -10.25403 -10.25378 -10.25378 -10.25122 -10.25017
 Alpha  occ. eigenvalues --  -10.24998 -10.24935 -10.24742 -10.23601 -10.23008
 Alpha  occ. eigenvalues --   -3.12624  -1.87316  -1.86864  -1.86823  -1.20155
 Alpha  occ. eigenvalues --   -1.17233  -1.10899  -1.09870  -1.07680  -1.04235
 Alpha  occ. eigenvalues --   -1.02173  -1.01786  -1.00945  -0.92503  -0.91991
 Alpha  occ. eigenvalues --   -0.91518  -0.90775  -0.90400  -0.89411  -0.88793
 Alpha  occ. eigenvalues --   -0.88738  -0.88427  -0.87760  -0.86731  -0.86420
 Alpha  occ. eigenvalues --   -0.85386  -0.84531  -0.83750  -0.83488  -0.82835
 Alpha  occ. eigenvalues --   -0.81821  -0.81499  -0.80595  -0.79948  -0.79089
 Alpha  occ. eigenvalues --   -0.77723  -0.76476  -0.76408  -0.76091  -0.75905
 Alpha  occ. eigenvalues --   -0.75346  -0.75250  -0.74551  -0.73532  -0.72721
 Alpha  occ. eigenvalues --   -0.72311  -0.71058  -0.69816  -0.69445  -0.68368
 Alpha  occ. eigenvalues --   -0.66796  -0.66133  -0.65290  -0.64850  -0.64645
 Alpha  occ. eigenvalues --   -0.64506  -0.63165  -0.62730  -0.62002  -0.61698
 Alpha  occ. eigenvalues --   -0.61638  -0.60643  -0.59893  -0.59812  -0.59175
 Alpha  occ. eigenvalues --   -0.58698  -0.58195  -0.57857  -0.57327  -0.57213
 Alpha  occ. eigenvalues --   -0.56452  -0.55968  -0.55160  -0.54991  -0.54808
 Alpha  occ. eigenvalues --   -0.54692  -0.54351  -0.54244  -0.53896  -0.53123
 Alpha  occ. eigenvalues --   -0.52775  -0.52614  -0.52206  -0.52065  -0.51762
 Alpha  occ. eigenvalues --   -0.51477  -0.51299  -0.51080  -0.50751  -0.50688
 Alpha  occ. eigenvalues --   -0.50534  -0.50274  -0.50023  -0.49678  -0.49516
 Alpha  occ. eigenvalues --   -0.49121  -0.49003  -0.48844  -0.48658  -0.48118
 Alpha  occ. eigenvalues --   -0.48053  -0.47873  -0.47763  -0.47567  -0.47270
 Alpha  occ. eigenvalues --   -0.46954  -0.46509  -0.46397  -0.46247  -0.46209
 Alpha  occ. eigenvalues --   -0.46118  -0.45936  -0.45628  -0.45467  -0.44992
 Alpha  occ. eigenvalues --   -0.44734  -0.44706  -0.44353  -0.44179  -0.44118
 Alpha  occ. eigenvalues --   -0.43979  -0.43779  -0.43544  -0.43404  -0.43054
 Alpha  occ. eigenvalues --   -0.42968  -0.42829  -0.42663  -0.42652  -0.42483
 Alpha  occ. eigenvalues --   -0.42133  -0.41797  -0.41680  -0.41613  -0.41481
 Alpha  occ. eigenvalues --   -0.41179  -0.40820  -0.40739  -0.40338  -0.40290
 Alpha  occ. eigenvalues --   -0.40178  -0.40049  -0.39857  -0.39822  -0.39607
 Alpha  occ. eigenvalues --   -0.39216  -0.38844  -0.38273  -0.38136  -0.37914
 Alpha  occ. eigenvalues --   -0.37497  -0.37239  -0.36910  -0.36785  -0.36015
 Alpha  occ. eigenvalues --   -0.35691  -0.35609  -0.35480  -0.35265  -0.35216
 Alpha  occ. eigenvalues --   -0.35042  -0.34865  -0.34399  -0.34227  -0.33783
 Alpha  occ. eigenvalues --   -0.33441  -0.32965  -0.32104  -0.31227  -0.30724
 Alpha  occ. eigenvalues --   -0.30025  -0.29756  -0.27813  -0.26988  -0.22924
 Alpha  occ. eigenvalues --   -0.21070
 Alpha virt. eigenvalues --   -0.06280  -0.03219   0.00706   0.04490   0.05472
 Alpha virt. eigenvalues --    0.05909   0.06081   0.06985   0.07288   0.07866
 Alpha virt. eigenvalues --    0.08117   0.10299   0.10952   0.11372   0.11698

 Mulliken charges:
               1
     1  Mg   0.817770
     2  C    0.073364
     3  C   -0.214560
     4  C   -0.126363
     5  C   -0.195118
     6  N   -0.626071
     7  C    0.308206
     8  C   -0.171428
     9  C   -0.156424
    10  C    0.357364
    11  C   -0.303521
    12  C   -0.156233
    13  C   -0.261945
    14  C    0.588809
    15  O   -0.456619
    16  O   -0.535984
    17  N   -0.709296
    18  C    0.336353
    19  C    0.015061
    20  C   -0.000830
    21  C    0.252549
    22  C   -0.389907
    23  C   -0.078067
    24  C   -0.229820
    25  N   -0.673571
    26  C    0.237759
    27  C    0.031693
    28  C   -0.019915
    29  C    0.312767
    30  C   -0.336150
    31  C   -0.224760
    32  C   -0.286995
    33  N   -0.685273
    34  C    0.281871
    35  C   -0.022228
    36  C    0.060948
    37  C    0.254557
    38  C   -0.365174
    39  C    0.367733
    40  O   -0.453782
    41  C   -0.361523
    42  C    0.621568
    43  O   -0.462860
    44  O   -0.400939
    45  C   -0.101354
    46  C    0.052458
    47  C   -0.125688
    48  C    0.114864
    49  C   -0.376639
    50  C   -0.203782
    51  C   -0.164446
    52  C   -0.157180
    53  C   -0.068988
    54  C   -0.312441
    55  C   -0.165119
    56  C   -0.171946
    57  C   -0.170655
    58  C   -0.068955
    59  C   -0.302174
    60  C   -0.195125
    61  C   -0.147391
    62  C   -0.161516
    63  C   -0.046340
    64  C   -0.305053
    65  C   -0.299555
    66  H    0.066902
    67  H    0.064957
    68  H    0.096507
    69  H    0.122047
    70  H    0.099922
    71  H    0.114801
    72  H    0.116662
    73  H    0.128821
    74  H    0.116046
    75  H    0.107120
    76  H    0.151449
    77  H    0.149099
    78  H    0.119899
    79  H    0.138149
    80  H    0.121392
    81  H    0.107396
    82  H    0.087477
    83  H    0.098698
    84  H    0.108377
    85  H    0.124953
    86  H    0.096228
    87  H    0.104394
    88  H    0.103213
    89  H    0.091638
    90  H    0.092847
    91  H    0.116940
    92  H    0.125174
    93  H    0.155605
    94  H    0.119819
    95  H    0.159526
    96  H    0.127533
    97  H    0.107468
    98  H    0.119071
    99  H    0.128799
   100  H    0.109671
   101  H    0.083516
   102  H    0.117270
   103  H    0.078085
   104  H    0.134804
   105  H    0.111778
   106  H    0.103550
   107  H    0.102669
   108  H    0.067790
   109  H    0.043887
   110  H    0.099290
   111  H    0.078666
   112  H    0.088514
   113  H    0.110177
   114  H    0.102907
   115  H    0.090741
   116  H    0.080119
   117  H    0.097500
   118  H    0.079936
   119  H    0.095377
   120  H    0.065338
   121  H    0.073492
   122  H    0.092728
   123  H    0.112936
   124  H    0.106906
   125  H    0.070193
   126  H    0.090930
   127  H    0.057918
   128  H    0.110689
   129  H    0.066882
   130  H    0.107210
   131  H    0.081043
   132  H    0.083769
   133  H    0.103660
   134  H    0.110358
   135  H    0.099998
   136  H    0.066717
   137  H    0.098076
 Sum of Mulliken charges =   0.00000

 Dipole moment (field-independent basis, Debye):
    X=              1.4788    Y=              3.0597    Z=              0.0942  Tot=              3.3996
 Quadrupole moment (field-independent basis, Debye-Ang):
   XX=           -355.1116   YY=           -389.0672   ZZ=           -397.7824
   XY=            -20.2530   XZ=             13.2611   YZ=             -4.4134

 Normal termination of Gaussian 09 at Sat Jul  6 01:05:41 2019.
