 Gaussian 09, Revision D.01,
 Gaussian 09:  ES64L-G09RevD.01 24-Apr-2013

 -------------------------------------
 # td=(NStates=1) CAM-B3LYP/6-31G(d,p)
 -------------------------------------

 --
 TD
 --
 Symbolic Z-matrix:
 Charge =  0 Multiplicity = 1

                         Standard orientation:
 ---------------------------------------------------------------------
 Center     Atomic      Atomic             Coordinates (Angstroms)
 Number     Number       Type             X           Y           Z
 ---------------------------------------------------------------------
      1         12           0       -7.115980    0.618515    0.004093
      2          6           0       -4.850285   -1.974774    0.493763
      3          6           0       -4.792039    2.831152    1.017709
      4          6           0       -9.393784    3.074971   -0.325417
      5          6           0       -9.615110   -1.727143   -0.784485
      6          7           0       -5.142418    0.335023    0.718362
      7          6           0       -4.313845   -0.702558    0.699318
      8          6           0       -2.885093   -0.453779    1.180712
      9          6           0       -3.030355    1.031379    1.713665
     10          6           0       -4.368942    1.437131    1.136250
     11          6           0       -3.084100    1.069169    3.248465
     12          6           0       -1.801076   -0.703473    0.069818
     13          6           0       -0.392134   -0.404981    0.565342
     14          6           0        0.564957   -0.724987   -0.510177
     15          8           0        0.251440   -0.966199   -1.639436
     16          8           0        1.860610   -0.599996   -0.051225
     17          7           0       -7.062089    2.583385    0.181007
     18          6           0       -6.068407    3.360109    0.738025
     19          6           0       -6.375188    4.758769    0.765228
     20          6           0       -7.750589    4.848762    0.394953
     21          6           0       -8.100235    3.483286    0.027380
     22          6           0       -5.469679    5.744923    1.420350
     23          6           0       -8.549254    6.088653    0.159460
     24          6           0       -8.451850    7.289596    0.919351
     25          7           0       -9.108649    0.658118   -0.539242
     26          6           0       -9.930544    1.751468   -0.692678
     27          6           0      -11.191173    1.475834   -1.176694
     28          6           0      -11.251831    0.120393   -1.383094
     29          6           0       -9.975215   -0.428174   -0.924452
     30          6           0      -12.356394    2.524512   -1.498910
     31          6           0      -12.348982   -0.810242   -1.853198
     32          6           0      -12.358622   -0.761862   -3.410746
     33          7           0       -7.305166   -1.379190   -0.183934
     34          6           0       -8.306747   -2.237326   -0.488274
     35          6           0       -7.890384   -3.627882   -0.465318
     36          6           0       -6.508731   -3.504446   -0.134013
     37          6           0       -6.207437   -2.136103    0.103259
     38          6           0       -8.738754   -4.842983   -0.758818
     39          6           0       -5.376391   -4.443825    0.133480
     40          8           0       -5.233542   -5.643159    0.176548
     41          6           0       -4.244318   -3.342194    0.605369
     42          6           0       -3.608168   -3.631325    1.937696
     43          8           0       -3.788018   -3.092989    3.027581
     44          8           0       -2.653373   -4.575990    1.718267
     45          6           0       -2.248174   -5.240870    2.964047
     46          6           0        2.874441   -0.865942   -1.160166
     47          6           0        4.237307   -0.466370   -0.505155
     48          6           0        5.114022    0.408692   -0.963289
     49          6           0        4.930115    1.146175   -2.224475
     50          6           0        6.413500    0.484068   -0.272768
     51          6           0        7.612618   -0.161489   -0.993984
     52          6           0        8.870249   -0.136414   -0.158252
     53          6           0       10.185524   -0.507668   -0.859691
     54          6           0       10.193606   -2.006792   -1.241710
     55          6           0       11.382383   -0.171554   -0.032410
     56          6           0       12.819393   -0.528771   -0.726282
     57          6           0       14.038947    0.076822    0.186944
     58          6           0       15.414574   -0.276818   -0.403981
     59          6           0       15.695300   -1.693002   -0.780237
     60          6           0       16.513678    0.265896    0.544867
     61          6           0       17.813955    0.619631   -0.148590
     62          6           0       18.827565    1.367706    0.682056
     63          6           0       20.260624    1.305324    0.107678
     64          6           0       20.428198    2.156369   -1.133642
     65          6           0       21.192732    1.904503    1.140702
     66          1           0       -4.073080    3.420075    1.573935
     67          1           0      -10.086292    3.896420   -0.224022
     68          1           0      -10.364441   -2.516060   -1.127580
     69          1           0       -2.713025   -1.197388    2.070718
     70          1           0       -2.199205    1.612389    1.413677
     71          1           0       -1.946512    0.933034    3.480453
     72          1           0       -3.323203    2.311350    3.605057
     73          1           0       -3.886192    0.693845    3.858039
     74          1           0       -1.838572   -1.648362   -0.386880
     75          1           0       -2.063844   -0.026528   -0.818085
     76          1           0       -0.347378    0.580775    0.894954
     77          1           0       -0.294047   -0.879193    1.378763
     78          1           0       -5.731403    6.686247    0.865394
     79          1           0       -5.624173    5.912737    2.408924
     80          1           0       -4.390153    5.521996    1.105445
     81          1           0       -9.249889    6.024920   -0.390298
     82          1           0       -9.059306    8.193444    0.949586
     83          1           0       -7.690102    7.470560    1.715580
     84          1           0      -12.295654    3.237115   -2.233562
     85          1           0      -13.309578    1.965937   -1.329891
     86          1           0      -12.460484    3.218343   -0.775605
     87          1           0      -12.308199   -1.828739   -1.235341
     88          1           0      -13.264223   -0.192146   -1.683077
     89          1           0      -13.315239   -1.260572   -3.809208
     90          1           0      -12.316086    0.268613   -3.765989
     91          1           0      -11.660861   -1.329574   -3.761462
     92          1           0       -9.286795   -4.792154   -1.733263
     93          1           0       -7.980755   -5.628266   -0.993959
     94          1           0       -9.439859   -4.837589    0.102174
     95          1           0       -3.351844   -3.529960   -0.126943
     96          1           0       -1.592341   -4.623347    3.465792
     97          1           0       -3.260764   -5.342823    3.490455
     98          1           0       -1.836051   -6.158341    2.506969
     99          1           0        2.625868   -1.721718   -1.806360
    100          1           0        2.688288   -0.122991   -2.045000
    101          1           0        4.278839   -0.938461    0.474430
    102          1           0        3.964924    1.130839   -2.673757
    103          1           0        5.338166    2.198429   -2.152223
    104          1           0        5.539382    0.634945   -2.913947
    105          1           0        6.601703    1.588317   -0.078014
    106          1           0        6.305163    0.062481    0.769830
    107          1           0        7.379794   -1.253410   -1.294178
    108          1           0        7.772074    0.670154   -2.015193
    109          1           0        9.018780    0.891180    0.444236
    110          1           0        8.600207   -0.907122    0.678947
    111          1           0       10.499609    0.024520   -1.738767
    112          1           0        9.276176   -2.220745   -1.861465
    113          1           0       11.303099   -2.203791   -1.851358
    114          1           0       10.050468   -2.584938   -0.337069
    115          1           0       11.552819    1.044676    0.055105
    116          1           0       11.541012   -0.699271    0.946448
    117          1           0       13.108881   -1.513945   -0.833063
    118          1           0       12.827405    0.121092   -1.560423
    119          1           0       13.778589    1.151257    0.446378
    120          1           0       14.056431   -0.329233    1.305214
    121          1           0       15.388166    0.032959   -1.422857
    122          1           0       15.426981   -2.386790    0.178002
    123          1           0       14.780047   -1.968370   -1.586788
    124          1           0       16.771635   -1.889093   -1.197475
    125          1           0       16.143126    1.131049    1.143513
    126          1           0       16.786854   -0.413480    1.365034
    127          1           0       18.423778   -0.368792   -0.291247
    128          1           0       17.676162    0.917315   -1.169861
    129          1           0       18.614157    2.410157    0.888270
    130          1           0       18.776671    0.881926    1.760070
    131          1           0       20.516585    0.232949   -0.374187
    132          1           0       20.256255    3.214048   -0.704655
    133          1           0       21.465811    2.225048   -1.592079
    134          1           0       19.776686    2.091390   -2.194986
    135          1           0       21.540640    1.390796    1.982703
    136          1           0       22.255926    2.004019    0.621609
    137          1           0       20.776301    2.869707    1.338183
 ---------------------------------------------------------------------

 SCF Done:  E(RCAM-B3LYP) =  -2932.63503018     A.U. after   18 cycles

 Excitation energies and oscillator strengths:

 Excited State   1:      Singlet-A      2.0372 eV  608.61 nm  f=0.2278  <S**2>=0.000
     240 -> 242       -0.21327
     240 -> 243        0.22922
     241 -> 242        0.60918
     241 -> 243        0.15402
 This state for optimization and/or second-order correction.
 Total Energy, E(TD-HF/TD-KS) =  -2932.56016504
 Copying the excited state density for this state as the 1-particle RhoCI density.

 The electronic state is 1-A.
 Alpha  occ. eigenvalues --  -46.83642 -19.25965 -19.25038 -19.21370 -19.21043
 Alpha  occ. eigenvalues --  -19.20564 -14.41846 -14.39382 -14.38900 -14.38810
 Alpha  occ. eigenvalues --  -10.38888 -10.38549 -10.35700 -10.32532 -10.31765
 Alpha  occ. eigenvalues --  -10.30576 -10.29934 -10.29860 -10.29779 -10.29191
 Alpha  occ. eigenvalues --  -10.28863 -10.28452 -10.28440 -10.28319 -10.28306
 Alpha  occ. eigenvalues --  -10.28289 -10.28196 -10.28097 -10.28041 -10.28007
 Alpha  occ. eigenvalues --  -10.27720 -10.27712 -10.27671 -10.27650 -10.27565
 Alpha  occ. eigenvalues --  -10.27448 -10.27347 -10.27297 -10.27167 -10.26912
 Alpha  occ. eigenvalues --  -10.26770 -10.26676 -10.26638 -10.26564 -10.26549
 Alpha  occ. eigenvalues --  -10.26494 -10.26462 -10.26451 -10.26315 -10.26102
 Alpha  occ. eigenvalues --  -10.26035 -10.26007 -10.25997 -10.25884 -10.25750
 Alpha  occ. eigenvalues --  -10.25506 -10.25399 -10.25273 -10.25145 -10.25036
 Alpha  occ. eigenvalues --  -10.24958 -10.24955 -10.24870 -10.24779 -10.24596
 Alpha  occ. eigenvalues --   -3.12805  -1.87493  -1.87050  -1.87001  -1.16995
 Alpha  occ. eigenvalues --   -1.16686  -1.11425  -1.08855  -1.07751  -1.04290
 Alpha  occ. eigenvalues --   -1.03160  -1.02932  -1.01286  -0.91983  -0.91469
 Alpha  occ. eigenvalues --   -0.90684  -0.90328  -0.89896  -0.88840  -0.88800
 Alpha  occ. eigenvalues --   -0.88527  -0.87704  -0.87134  -0.86374  -0.85878
 Alpha  occ. eigenvalues --   -0.84756  -0.83760  -0.83188  -0.83003  -0.82419
 Alpha  occ. eigenvalues --   -0.81170  -0.80566  -0.79897  -0.79604  -0.78269
 Alpha  occ. eigenvalues --   -0.77731  -0.77613  -0.76482  -0.75484  -0.75057
 Alpha  occ. eigenvalues --   -0.74856  -0.74352  -0.73797  -0.72657  -0.71744
 Alpha  occ. eigenvalues --   -0.71591  -0.70587  -0.69673  -0.69223  -0.69138
 Alpha  occ. eigenvalues --   -0.67272  -0.65806  -0.65232  -0.64289  -0.64191
 Alpha  occ. eigenvalues --   -0.63703  -0.62902  -0.62693  -0.62464  -0.61703
 Alpha  occ. eigenvalues --   -0.61607  -0.61053  -0.60629  -0.59992  -0.59096
 Alpha  occ. eigenvalues --   -0.58353  -0.57954  -0.57243  -0.56632  -0.56421
 Alpha  occ. eigenvalues --   -0.56020  -0.55176  -0.55097  -0.54996  -0.54539
 Alpha  occ. eigenvalues --   -0.54278  -0.54202  -0.53587  -0.53184  -0.52943
 Alpha  occ. eigenvalues --   -0.52419  -0.52148  -0.52114  -0.51828  -0.51520
 Alpha  occ. eigenvalues --   -0.51175  -0.51091  -0.50862  -0.50718  -0.50620
 Alpha  occ. eigenvalues --   -0.50276  -0.49927  -0.49797  -0.49550  -0.49427
 Alpha  occ. eigenvalues --   -0.49311  -0.48800  -0.48659  -0.48382  -0.48144
 Alpha  occ. eigenvalues --   -0.47941  -0.47898  -0.47785  -0.47246  -0.46994
 Alpha  occ. eigenvalues --   -0.46821  -0.46623  -0.46328  -0.46101  -0.45777
 Alpha  occ. eigenvalues --   -0.45668  -0.45356  -0.45070  -0.44819  -0.44464
 Alpha  occ. eigenvalues --   -0.44269  -0.44192  -0.44028  -0.44008  -0.43880
 Alpha  occ. eigenvalues --   -0.43722  -0.43612  -0.43504  -0.43427  -0.42972
 Alpha  occ. eigenvalues --   -0.42830  -0.42647  -0.42546  -0.42462  -0.42149
 Alpha  occ. eigenvalues --   -0.42039  -0.41872  -0.41695  -0.41534  -0.41344
 Alpha  occ. eigenvalues --   -0.41232  -0.40985  -0.40756  -0.40663  -0.40390
 Alpha  occ. eigenvalues --   -0.40199  -0.39856  -0.39691  -0.39358  -0.39007
 Alpha  occ. eigenvalues --   -0.38867  -0.38682  -0.38506  -0.38123  -0.37638
 Alpha  occ. eigenvalues --   -0.37143  -0.37067  -0.36894  -0.36547  -0.36240
 Alpha  occ. eigenvalues --   -0.36208  -0.36041  -0.36002  -0.35545  -0.35427
 Alpha  occ. eigenvalues --   -0.35305  -0.35247  -0.34886  -0.34388  -0.33575
 Alpha  occ. eigenvalues --   -0.33305  -0.32956  -0.32039  -0.30067  -0.29771
 Alpha  occ. eigenvalues --   -0.29648  -0.28855  -0.28137  -0.27464  -0.22631
 Alpha  occ. eigenvalues --   -0.20767
 Alpha virt. eigenvalues --   -0.06285  -0.03170   0.01323   0.03182   0.05684
 Alpha virt. eigenvalues --    0.06076   0.06289   0.06476   0.07035   0.07123
 Alpha virt. eigenvalues --    0.08557   0.10824   0.11100   0.11564   0.11600

 Mulliken charges:
               1
     1  Mg   0.816820
     2  C    0.058842
     3  C   -0.207037
     4  C   -0.196176
     5  C   -0.191868
     6  N   -0.613415
     7  C    0.313358
     8  C   -0.172047
     9  C   -0.142230
    10  C    0.281247
    11  C   -0.279046
    12  C   -0.186289
    13  C   -0.255685
    14  C    0.628864
    15  O   -0.463286
    16  O   -0.507338
    17  N   -0.699047
    18  C    0.320041
    19  C    0.008895
    20  C    0.001050
    21  C    0.304218
    22  C   -0.369456
    23  C   -0.031745
    24  C   -0.253608
    25  N   -0.671765
    26  C    0.300674
    27  C    0.020734
    28  C    0.027300
    29  C    0.286122
    30  C   -0.369943
    31  C   -0.248924
    32  C   -0.304334
    33  N   -0.721256
    34  C    0.252430
    35  C    0.026081
    36  C   -0.079142
    37  C    0.341103
    38  C   -0.367251
    39  C    0.397006
    40  O   -0.447104
    41  C   -0.354176
    42  C    0.627098
    43  O   -0.493718
    44  O   -0.473389
    45  C   -0.079250
    46  C   -0.016134
    47  C   -0.138682
    48  C    0.142732
    49  C   -0.370693
    50  C   -0.226266
    51  C   -0.141088
    52  C   -0.162985
    53  C   -0.033959
    54  C   -0.300066
    55  C   -0.174086
    56  C   -0.215510
    57  C   -0.192321
    58  C   -0.038206
    59  C   -0.291514
    60  C   -0.182018
    61  C   -0.173890
    62  C   -0.154842
    63  C   -0.066278
    64  C   -0.284365
    65  C   -0.299552
    66  H    0.075782
    67  H    0.077832
    68  H    0.086898
    69  H    0.130921
    70  H    0.114466
    71  H    0.104815
    72  H    0.046792
    73  H    0.153849
    74  H    0.130711
    75  H    0.109087
    76  H    0.137393
    77  H    0.140608
    78  H    0.116029
    79  H    0.143224
    80  H    0.113809
    81  H    0.063168
    82  H    0.119408
    83  H    0.102987
    84  H    0.130314
    85  H    0.111341
    86  H    0.125122
    87  H    0.105588
    88  H    0.107501
    89  H    0.086961
    90  H    0.122799
    91  H    0.128556
    92  H    0.119874
    93  H    0.147392
    94  H    0.138278
    95  H    0.154540
    96  H    0.137553
    97  H    0.134159
    98  H    0.132893
    99  H    0.148402
   100  H    0.100728
   101  H    0.098314
   102  H    0.121325
   103  H    0.107477
   104  H    0.136757
   105  H    0.090787
   106  H    0.096219
   107  H    0.101620
   108  H    0.047491
   109  H    0.081397
   110  H    0.084662
   111  H    0.093439
   112  H    0.098481
   113  H    0.079450
   114  H    0.107698
   115  H    0.063537
   116  H    0.091925
   117  H    0.116468
   118  H    0.104268
   119  H    0.091573
   120  H    0.063771
   121  H    0.098069
   122  H    0.073936
   123  H    0.068756
   124  H    0.111199
   125  H    0.086789
   126  H    0.096288
   127  H    0.075464
   128  H    0.101835
   129  H    0.090339
   130  H    0.074869
   131  H    0.072813
   132  H    0.079278
   133  H    0.101560
   134  H    0.076445
   135  H    0.115212
   136  H    0.077349
   137  H    0.109722
 Sum of Mulliken charges =   0.00000

 Dipole moment (field-independent basis, Debye):
    X=              1.3952    Y=              5.1255    Z=              0.2657  Tot=              5.3186
 Quadrupole moment (field-independent basis, Debye-Ang):
   XX=           -332.2161   YY=           -390.1651   ZZ=           -396.3798
   XY=            -26.3949   XZ=              9.3744   YZ=              3.8484

 Normal termination of Gaussian 09 at Thu Jul  4 12:48:22 2019.
