 Gaussian 16, Revision A.03,
 Gaussian 16:  ES64L-G16RevA.03 25-Dec-2016

 ----------------------------------------------------------------------
 # td=(NStates=1) iop(3/107=0140000000,3/108=0140000000) CAM-B3LYP/6-31
 G(d,p)
 ----------------------------------------------------------------------

 --
 TD
 --
 Symbolic Z-matrix:
 Charge =  0 Multiplicity = 1

                         Standard orientation:
 ---------------------------------------------------------------------
 Center     Atomic      Atomic             Coordinates (Angstroms)
 Number     Number       Type             X           Y           Z
 ---------------------------------------------------------------------
      1         12           0       -7.154181    0.645049    0.021567
      2          6           0       -4.802043   -1.957020    0.408047
      3          6           0       -4.707455    2.872661    1.152857
      4          6           0       -9.405909    3.142995   -0.427800
      5          6           0       -9.559518   -1.731664   -0.998842
      6          7           0       -5.129765    0.492452    0.607685
      7          6           0       -4.430652   -0.610567    0.816112
      8          6           0       -2.938388   -0.424416    1.276563
      9          6           0       -3.051371    0.994338    1.779944
     10          6           0       -4.436230    1.457355    1.254489
     11          6           0       -3.089865    1.077197    3.285473
     12          6           0       -1.948171   -0.666427    0.255126
     13          6           0       -0.438982   -0.429069    0.666894
     14          6           0        0.517201   -0.577435   -0.410402
     15          8           0        0.253856   -1.034040   -1.561211
     16          8           0        1.811296   -0.326631   -0.009270
     17          7           0       -7.057421    2.654840    0.299714
     18          6           0       -6.026078    3.436407    0.745761
     19          6           0       -6.427599    4.779262    0.843636
     20          6           0       -7.656357    4.865956    0.369890
     21          6           0       -8.123505    3.469211    0.101760
     22          6           0       -5.419273    5.871255    1.185363
     23          6           0       -8.541728    6.051074    0.130250
     24          6           0       -8.343198    7.228174    0.768139
     25          7           0       -9.148929    0.656268   -0.579515
     26          6           0       -9.872310    1.867162   -0.846931
     27          6           0      -11.218138    1.565685   -1.298542
     28          6           0      -11.180918    0.170016   -1.433768
     29          6           0       -9.917089   -0.376626   -0.969444
     30          6           0      -12.279933    2.523791   -1.436606
     31          6           0      -12.387302   -0.697075   -1.724151
     32          6           0      -12.194243   -1.232533   -3.232279
     33          7           0       -7.223652   -1.346110   -0.242280
     34          6           0       -8.265942   -2.205796   -0.695829
     35          6           0       -7.778808   -3.609188   -0.790824
     36          6           0       -6.425472   -3.561949   -0.228855
     37          6           0       -6.169725   -2.203677    0.079702
     38          6           0       -8.639127   -4.748045   -1.161152
     39          6           0       -5.296811   -4.381034    0.178922
     40          8           0       -5.180508   -5.570020    0.176746
     41          6           0       -4.121245   -3.309777    0.522219
     42          6           0       -3.546149   -3.731706    1.878387
     43          8           0       -3.808492   -3.219324    2.970141
     44          8           0       -2.778560   -4.803787    1.797233
     45          6           0       -2.284900   -5.360664    2.976521
     46          6           0        2.912568   -0.558071   -1.084295
     47          6           0        4.181740   -0.449808   -0.340083
     48          6           0        5.088385    0.448084   -0.651078
     49          6           0        5.042776    1.413081   -1.807648
     50          6           0        6.417371    0.396529    0.126389
     51          6           0        7.664322   -0.203089   -0.674677
     52          6           0        8.903848   -0.248616    0.129385
     53          6           0       10.168339   -0.601801   -0.767027
     54          6           0        9.989417   -2.100640   -1.231391
     55          6           0       11.425834   -0.438078   -0.034618
     56          6           0       12.831528   -0.477439   -0.801501
     57          6           0       13.990162   -0.262983    0.099901
     58          6           0       15.408484   -0.270965   -0.526715
     59          6           0       15.698274   -1.664837   -1.110861
     60          6           0       16.419969    0.357285    0.288791
     61          6           0       17.785877    0.467673   -0.339609
     62          6           0       18.814887    1.283030    0.533285
     63          6           0       20.239810    1.441081    0.013923
     64          6           0       20.228745    2.267745   -1.189793
     65          6           0       21.119467    2.125523    1.127644
     66          1           0       -4.041962    3.360331    1.677348
     67          1           0      -10.073098    3.848589   -0.653047
     68          1           0      -10.245018   -2.374725   -1.372495
     69          1           0       -2.777489   -1.206325    2.228869
     70          1           0       -2.095784    1.551879    1.396899
     71          1           0       -2.232162    0.675291    3.754388
     72          1           0       -3.145008    2.072022    3.623947
     73          1           0       -3.879109    0.447929    3.570748
     74          1           0       -1.882153   -1.752209   -0.244272
     75          1           0       -2.095697   -0.046557   -0.666085
     76          1           0       -0.168044    0.590504    1.053650
     77          1           0       -0.000155   -1.097372    1.607797
     78          1           0       -5.624543    6.746860    0.578614
     79          1           0       -5.528324    6.125248    2.261100
     80          1           0       -4.231302    5.661710    0.959702
     81          1           0       -9.148873    5.775063   -0.604393
     82          1           0       -9.052750    8.008211    0.391406
     83          1           0       -7.643974    7.474480    1.595369
     84          1           0      -12.168891    2.989010   -2.478390
     85          1           0      -13.214127    2.019282   -1.606962
     86          1           0      -12.479065    3.195381   -0.468763
     87          1           0      -12.368816   -1.574113   -0.956825
     88          1           0      -13.363369   -0.217975   -1.756523
     89          1           0      -13.138515   -1.832450   -3.385712
     90          1           0      -12.382394   -0.265313   -3.749062
     91          1           0      -11.227482   -1.650030   -3.511787
     92          1           0       -8.778633   -4.740082   -2.238127
     93          1           0       -7.965081   -5.743433   -0.942889
     94          1           0       -9.505637   -5.038943   -0.650833
     95          1           0       -3.444631   -3.642301   -0.261158
     96          1           0       -2.002523   -4.507378    3.717466
     97          1           0       -3.004665   -5.813713    3.568982
     98          1           0       -1.510841   -6.162377    2.908380
     99          1           0        2.618280   -1.561497   -1.368698
    100          1           0        2.595277    0.115043   -1.813796
    101          1           0        4.441004   -1.137934    0.624457
    102          1           0        4.033603    1.633990   -2.322386
    103          1           0        5.484816    2.283037   -1.525716
    104          1           0        5.612894    1.079207   -2.581545
    105          1           0        6.737604    1.367596    0.167455
    106          1           0        6.386153   -0.248885    1.038010
    107          1           0        7.453900   -1.266857   -0.977162
    108          1           0        7.849547    0.255732   -1.589971
    109          1           0        9.060708    0.938148    0.428797
    110          1           0        8.830410   -0.859292    1.059359
    111          1           0       10.154253    0.133838   -1.600459
    112          1           0        9.205532   -1.982533   -2.008900
    113          1           0       10.962353   -2.450541   -1.485469
    114          1           0        9.604303   -2.648229   -0.361316
    115          1           0       11.383813    0.520087    0.582060
    116          1           0       11.453513   -1.113268    0.875975
    117          1           0       12.929135   -1.403948   -1.274822
    118          1           0       12.700468    0.259969   -1.613929
    119          1           0       13.864118    0.733489    0.484059
    120          1           0       13.822089   -0.887056    1.049356
    121          1           0       15.185349    0.281956   -1.415047
    122          1           0       15.544208   -2.536155   -0.309808
    123          1           0       14.992057   -1.960963   -1.632975
    124          1           0       16.378690   -1.814871   -1.956517
    125          1           0       15.966207    1.317406    0.866583
    126          1           0       16.501866   -0.254930    1.373567
    127          1           0       18.406332   -0.419636   -0.640106
    128          1           0       17.501048    1.067350   -1.288002
    129          1           0       18.376069    2.239230    0.812383
    130          1           0       18.824054    0.828088    1.490941
    131          1           0       20.642455    0.389275   -0.198567
    132          1           0       19.811736    3.101164   -1.012162
    133          1           0       21.235200    2.594423   -1.779954
    134          1           0       19.590881    1.711575   -1.928232
    135          1           0       21.248032    1.376740    1.855812
    136          1           0       22.055107    2.151569    0.524603
    137          1           0       20.817448    3.089421    1.573736
 ---------------------------------------------------------------------

 SCF Done:  E(RCAM-B3LYP) =  -2933.54068509     A.U. after   16 cycles

 Excitation energies and oscillator strengths:

 Excited State   1:      Singlet-A      1.9460 eV  637.11 nm  f=0.2351  <S**2>=0.000
     240 -> 243       -0.25271
     241 -> 242        0.65862
 This state for optimization and/or second-order correction.
 Total Energy, E(TD-HF/TD-DFT) =  -2933.46916955
 Copying the excited state density for this state as the 1-particle RhoCI density.

 The electronic state is 1-A.
 Alpha  occ. eigenvalues --  -46.79758 -19.22424 -19.19956 -19.16490 -19.15591
 Alpha  occ. eigenvalues --  -19.15269 -14.38321 -14.35380 -14.35256 -14.34752
 Alpha  occ. eigenvalues --  -10.34400 -10.33506 -10.30555 -10.26797 -10.26749
 Alpha  occ. eigenvalues --  -10.26383 -10.26353 -10.25434 -10.25386 -10.25079
 Alpha  occ. eigenvalues --  -10.25065 -10.24553 -10.24553 -10.24447 -10.24321
 Alpha  occ. eigenvalues --  -10.24297 -10.23235 -10.23225 -10.23159 -10.23127
 Alpha  occ. eigenvalues --  -10.23068 -10.22936 -10.22728 -10.22700 -10.22644
 Alpha  occ. eigenvalues --  -10.22545 -10.22491 -10.22385 -10.22361 -10.22275
 Alpha  occ. eigenvalues --  -10.22228 -10.22069 -10.22041 -10.22004 -10.21805
 Alpha  occ. eigenvalues --  -10.21790 -10.21700 -10.21682 -10.21613 -10.21573
 Alpha  occ. eigenvalues --  -10.21503 -10.21412 -10.21375 -10.21205 -10.21197
 Alpha  occ. eigenvalues --  -10.21134 -10.21124 -10.20786 -10.20684 -10.20444
 Alpha  occ. eigenvalues --  -10.19768 -10.19726 -10.19418 -10.19154 -10.18982
 Alpha  occ. eigenvalues --   -3.08363  -1.83306  -1.82855  -1.82750  -1.14215
 Alpha  occ. eigenvalues --   -1.08800  -1.07458  -1.03017  -1.00619  -1.00197
 Alpha  occ. eigenvalues --   -0.98649  -0.96902  -0.95713  -0.86691  -0.86626
 Alpha  occ. eigenvalues --   -0.86162  -0.85471  -0.84844  -0.84119  -0.83874
 Alpha  occ. eigenvalues --   -0.83429  -0.82915  -0.81961  -0.81386  -0.81032
 Alpha  occ. eigenvalues --   -0.80365  -0.79215  -0.78806  -0.78354  -0.77546
 Alpha  occ. eigenvalues --   -0.77068  -0.76719  -0.75972  -0.75262  -0.73987
 Alpha  occ. eigenvalues --   -0.72481  -0.72409  -0.72173  -0.71983  -0.71495
 Alpha  occ. eigenvalues --   -0.71449  -0.70382  -0.70356  -0.68689  -0.67561
 Alpha  occ. eigenvalues --   -0.66939  -0.66149  -0.65587  -0.64267  -0.63688
 Alpha  occ. eigenvalues --   -0.63119  -0.62206  -0.61314  -0.60575  -0.60087
 Alpha  occ. eigenvalues --   -0.59341  -0.59285  -0.58819  -0.58811  -0.58143
 Alpha  occ. eigenvalues --   -0.56693  -0.56480  -0.56140  -0.55304  -0.54781
 Alpha  occ. eigenvalues --   -0.54730  -0.53988  -0.53329  -0.53088  -0.52104
 Alpha  occ. eigenvalues --   -0.51883  -0.51574  -0.51214  -0.50849  -0.50741
 Alpha  occ. eigenvalues --   -0.50629  -0.50004  -0.49852  -0.49207  -0.49183
 Alpha  occ. eigenvalues --   -0.49011  -0.48846  -0.48489  -0.47998  -0.47693
 Alpha  occ. eigenvalues --   -0.47237  -0.47198  -0.47066  -0.46781  -0.46746
 Alpha  occ. eigenvalues --   -0.46668  -0.46563  -0.46484  -0.46376  -0.46176
 Alpha  occ. eigenvalues --   -0.46061  -0.45762  -0.45558  -0.45379  -0.44892
 Alpha  occ. eigenvalues --   -0.44737  -0.44632  -0.44452  -0.44148  -0.43847
 Alpha  occ. eigenvalues --   -0.43731  -0.43433  -0.43025  -0.42917  -0.42653
 Alpha  occ. eigenvalues --   -0.42384  -0.42218  -0.42063  -0.41912  -0.41594
 Alpha  occ. eigenvalues --   -0.41486  -0.41393  -0.40986  -0.40843  -0.40756
 Alpha  occ. eigenvalues --   -0.40576  -0.40388  -0.40318  -0.39963  -0.39676
 Alpha  occ. eigenvalues --   -0.39584  -0.39346  -0.39119  -0.39002  -0.38947
 Alpha  occ. eigenvalues --   -0.38854  -0.38620  -0.38449  -0.38383  -0.37792
 Alpha  occ. eigenvalues --   -0.37547  -0.37497  -0.37202  -0.36993  -0.36867
 Alpha  occ. eigenvalues --   -0.36729  -0.36553  -0.36431  -0.36293  -0.35866
 Alpha  occ. eigenvalues --   -0.35820  -0.35428  -0.35121  -0.35079  -0.34683
 Alpha  occ. eigenvalues --   -0.34608  -0.34103  -0.33926  -0.33602  -0.33566
 Alpha  occ. eigenvalues --   -0.33275  -0.33018  -0.32421  -0.32229  -0.31837
 Alpha  occ. eigenvalues --   -0.31617  -0.31501  -0.31183  -0.30920  -0.30345
 Alpha  occ. eigenvalues --   -0.29801  -0.29216  -0.29180  -0.27987  -0.27344
 Alpha  occ. eigenvalues --   -0.26782  -0.26378  -0.25720  -0.24824  -0.21338
 Alpha  occ. eigenvalues --   -0.19781
 Alpha virt. eigenvalues --   -0.07231  -0.04060  -0.00043   0.02440   0.03457
 Alpha virt. eigenvalues --    0.03940   0.04173   0.04785   0.04932   0.05659
 Alpha virt. eigenvalues --    0.06298   0.08864   0.09746   0.09874   0.09977

 Mulliken charges:
               1
     1  Mg   0.812253
     2  C    0.046675
     3  C   -0.147578
     4  C   -0.147734
     5  C   -0.146611
     6  N   -0.574905
     7  C    0.279007
     8  C   -0.124099
     9  C   -0.158163
    10  C    0.292722
    11  C   -0.302398
    12  C   -0.170529
    13  C   -0.262960
    14  C    0.614917
    15  O   -0.515598
    16  O   -0.517137
    17  N   -0.696943
    18  C    0.276537
    19  C    0.023281
    20  C   -0.017037
    21  C    0.305263
    22  C   -0.380880
    23  C   -0.016250
    24  C   -0.254406
    25  N   -0.695749
    26  C    0.240385
    27  C    0.072109
    28  C   -0.003838
    29  C    0.352742
    30  C   -0.395510
    31  C   -0.256619
    32  C   -0.315011
    33  N   -0.709456
    34  C    0.274441
    35  C    0.028582
    36  C    0.009045
    37  C    0.288137
    38  C   -0.401904
    39  C    0.344556
    40  O   -0.437366
    41  C   -0.315794
    42  C    0.619027
    43  O   -0.502069
    44  O   -0.405683
    45  C   -0.098920
    46  C    0.006953
    47  C   -0.125591
    48  C    0.147213
    49  C   -0.377811
    50  C   -0.221353
    51  C   -0.189601
    52  C   -0.156591
    53  C   -0.059765
    54  C   -0.307904
    55  C   -0.179280
    56  C   -0.182236
    57  C   -0.185720
    58  C   -0.039269
    59  C   -0.301973
    60  C   -0.151201
    61  C   -0.169399
    62  C   -0.172447
    63  C   -0.074600
    64  C   -0.274312
    65  C   -0.313080
    66  H    0.064750
    67  H    0.068820
    68  H    0.076922
    69  H    0.111847
    70  H    0.088971
    71  H    0.108465
    72  H    0.108256
    73  H    0.130285
    74  H    0.117299
    75  H    0.122633
    76  H    0.131302
    77  H    0.124683
    78  H    0.127429
    79  H    0.120989
    80  H    0.096335
    81  H    0.086771
    82  H    0.093274
    83  H    0.115299
    84  H    0.123936
    85  H    0.117829
    86  H    0.119371
    87  H    0.096374
    88  H    0.104146
    89  H    0.098566
    90  H    0.106523
    91  H    0.121674
    92  H    0.133506
    93  H    0.121077
    94  H    0.144575
    95  H    0.164604
    96  H    0.114966
    97  H    0.135830
    98  H    0.122016
    99  H    0.139681
   100  H    0.135803
   101  H    0.084657
   102  H    0.109142
   103  H    0.123374
   104  H    0.140932
   105  H    0.104161
   106  H    0.101105
   107  H    0.089314
   108  H    0.098432
   109  H    0.051297
   110  H    0.091685
   111  H    0.078701
   112  H    0.106275
   113  H    0.107995
   114  H    0.105167
   115  H    0.074439
   116  H    0.074103
   117  H    0.103305
   118  H    0.088658
   119  H    0.091859
   120  H    0.081077
   121  H    0.088979
   122  H    0.075576
   123  H    0.114486
   124  H    0.093605
   125  H    0.077940
   126  H    0.048967
   127  H    0.102631
   128  H    0.081228
   129  H    0.083898
   130  H    0.092254
   131  H    0.073946
   132  H    0.116439
   133  H    0.067509
   134  H    0.090816
   135  H    0.107604
   136  H    0.098318
   137  H    0.104750
 Sum of Mulliken charges =  -0.00000

 Dipole moment (field-independent basis, Debye):
    X=              1.2251    Y=              4.1383    Z=             -0.4288  Tot=              4.3371
 Quadrupole moment (field-independent basis, Debye-Ang):
   XX=           -347.8127   YY=           -391.5229   ZZ=           -395.0126
   XY=            -17.7589   XZ=              9.0881   YZ=             -2.1112

 Normal termination of Gaussian 16 at Mon Sep 16 13:36:08 2019.
