 Gaussian 09, Revision D.01,
 Gaussian 09:  ES64L-G09RevD.01 24-Apr-2013

 -------------------------------------
 # td=(NStates=1) CAM-B3LYP/6-31G(d,p)
 -------------------------------------

 --
 TD
 --
 Symbolic Z-matrix:
 Charge =  0 Multiplicity = 1

                         Standard orientation:
 ---------------------------------------------------------------------
 Center     Atomic      Atomic             Coordinates (Angstroms)
 Number     Number       Type             X           Y           Z
 ---------------------------------------------------------------------
      1         12           0       -7.125321    0.482716    0.119076
      2          6           0       -4.788930   -1.933818    0.553815
      3          6           0       -4.786579    2.813530    1.356591
      4          6           0       -9.362199    3.069836   -0.429873
      5          6           0       -9.511778   -1.667892   -0.856404
      6          7           0       -5.084182    0.504778    0.772306
      7          6           0       -4.320239   -0.699896    0.891669
      8          6           0       -2.841023   -0.414329    1.265808
      9          6           0       -3.011940    1.093250    1.725415
     10          6           0       -4.402274    1.429447    1.174317
     11          6           0       -2.915909    1.246401    3.243968
     12          6           0       -1.939403   -0.614102    0.062552
     13          6           0       -0.486617   -0.613736    0.537115
     14          6           0        0.483779   -0.646935   -0.650158
     15          8           0        0.195828   -1.041771   -1.750028
     16          8           0        1.687137   -0.400501   -0.268258
     17          7           0       -7.141892    2.538182    0.524962
     18          6           0       -5.999116    3.279154    0.857968
     19          6           0       -6.374383    4.750491    0.742995
     20          6           0       -7.688577    4.770702    0.288180
     21          6           0       -8.162377    3.446204    0.108864
     22          6           0       -5.526652    5.882624    1.277508
     23          6           0       -8.432890    5.977338    0.168237
     24          6           0       -8.525059    7.235123    0.809134
     25          7           0       -9.038378    0.741610   -0.599715
     26          6           0       -9.825994    1.785346   -0.780991
     27          6           0      -11.201631    1.420450   -1.201591
     28          6           0      -11.186418    0.065068   -1.282981
     29          6           0       -9.865043   -0.356677   -0.938829
     30          6           0      -12.215390    2.449199   -1.504349
     31          6           0      -12.306155   -0.677455   -1.730351
     32          6           0      -12.352025   -0.920817   -3.257088
     33          7           0       -7.174689   -1.422922   -0.305301
     34          6           0       -8.258625   -2.250454   -0.569249
     35          6           0       -7.844592   -3.577281   -0.402566
     36          6           0       -6.475300   -3.503696   -0.128131
     37          6           0       -6.126558   -2.214222    0.113731
     38          6           0       -8.642780   -4.795237   -0.734531
     39          6           0       -5.297911   -4.339174    0.136426
     40          8           0       -5.045644   -5.584815   -0.005281
     41          6           0       -4.169871   -3.283973    0.579890
     42          6           0       -3.613429   -3.683868    1.966804
     43          8           0       -3.829153   -3.158030    3.019380
     44          8           0       -2.720586   -4.734470    1.802595
     45          6           0       -2.165743   -5.242717    3.055581
     46          6           0        2.701191   -0.611137   -1.225398
     47          6           0        4.121664   -0.389826   -0.576655
     48          6           0        5.125931    0.418476   -1.055668
     49          6           0        5.008235    1.091069   -2.428545
     50          6           0        6.335964    0.424923   -0.313005
     51          6           0        7.562461   -0.172531   -1.102923
     52          6           0        8.853392   -0.020590   -0.233722
     53          6           0       10.130615   -0.505233   -1.000740
     54          6           0       10.220565   -1.996182   -1.361327
     55          6           0       11.306374   -0.057610   -0.064070
     56          6           0       12.793948   -0.503635   -0.673520
     57          6           0       13.973063   -0.215606    0.313458
     58          6           0       15.315417   -0.209733   -0.344633
     59          6           0       15.666167   -1.637094   -0.885983
     60          6           0       16.476295    0.319747    0.583136
     61          6           0       17.779413    0.532987   -0.117698
     62          6           0       18.872444    1.228125    0.844978
     63          6           0       20.282362    1.276560    0.265856
     64          6           0       20.279464    1.946333   -1.253004
     65          6           0       21.091320    2.133165    1.253840
     66          1           0       -4.157226    3.452895    1.756895
     67          1           0      -10.181034    3.782086   -0.608821
     68          1           0      -10.238008   -2.272542   -1.061298
     69          1           0       -2.562934   -1.139799    1.909276
     70          1           0       -2.286307    1.719194    1.033159
     71          1           0       -2.049088    0.901033    3.703130
     72          1           0       -3.026733    2.299449    3.377652
     73          1           0       -3.791052    0.629611    3.664791
     74          1           0       -2.271959   -1.494628   -0.385766
     75          1           0       -2.039290    0.161478   -0.632780
     76          1           0       -0.213516    0.256707    1.081322
     77          1           0       -0.333077   -1.264798    1.396992
     78          1           0       -5.881356    6.765985    0.803915
     79          1           0       -5.610894    5.890048    2.421295
     80          1           0       -4.602253    5.634356    1.032858
     81          1           0       -9.219205    6.001305   -0.515551
     82          1           0       -9.218093    8.054839    0.387006
     83          1           0       -7.774759    7.505512    1.549069
     84          1           0      -11.907379    3.021355   -2.552806
     85          1           0      -13.116106    1.910761   -1.731448
     86          1           0      -12.249756    3.089746   -0.721502
     87          1           0      -12.420409   -1.801083   -1.190842
     88          1           0      -13.146050   -0.267322   -1.403751
     89          1           0      -13.368061   -1.604583   -3.376857
     90          1           0      -12.003199   -0.122136   -3.798886
     91          1           0      -11.614754   -1.589615   -3.481144
     92          1           0       -9.367367   -4.810688   -1.654995
     93          1           0       -7.891878   -5.689657   -0.782131
     94          1           0       -9.310334   -4.837681    0.104178
     95          1           0       -3.257190   -3.164912   -0.026751
     96          1           0       -1.700935   -4.357475    3.590564
     97          1           0       -2.886082   -5.870231    3.650805
     98          1           0       -1.332810   -5.876969    2.580235
     99          1           0        2.675483   -1.592329   -1.467379
    100          1           0        2.524217    0.162644   -2.177053
    101          1           0        4.297224   -0.732984    0.479590
    102          1           0        3.916963    0.988827   -2.872441
    103          1           0        5.291426    2.036469   -2.309524
    104          1           0        5.762681    0.758297   -3.073202
    105          1           0        6.608062    1.714839   -0.221840
    106          1           0        6.229244   -0.022486    0.582955
    107          1           0        7.369479   -1.252792   -1.175716
    108          1           0        7.589913    0.270179   -2.048068
    109          1           0        9.002346    1.043764    0.077740
    110          1           0        8.614989   -0.647980    0.685754
    111          1           0       10.329790    0.182604   -1.894342
    112          1           0        9.239809   -2.221384   -1.814782
    113          1           0       11.171301   -1.955977   -2.021861
    114          1           0       10.293498   -2.678002   -0.475995
    115          1           0       11.168619    0.984765    0.164892
    116          1           0       11.193987   -0.518052    1.059139
    117          1           0       12.672511   -1.531176   -0.766471
    118          1           0       12.977488    0.132082   -1.679425
    119          1           0       13.951324    0.937205    0.785574
    120          1           0       13.831251   -0.973592    1.180966
    121          1           0       15.010859    0.431621   -1.238303
    122          1           0       16.042136   -2.324177    0.021995
    123          1           0       14.730122   -2.058665   -1.453013
    124          1           0       16.492683   -1.527139   -1.634735
    125          1           0       16.200476    1.402757    0.815790
    126          1           0       16.647546   -0.274688    1.530993
    127          1           0       18.272048   -0.301115   -0.495063
    128          1           0       17.562032    1.201161   -0.934999
    129          1           0       18.572375    2.358775    1.147697
    130          1           0       18.912002    0.644010    1.661417
    131          1           0       20.597336    0.266352    0.131619
    132          1           0       20.033376    2.926516   -1.042610
    133          1           0       21.381451    1.884549   -1.573684
    134          1           0       19.733033    1.473136   -1.932899
    135          1           0       21.092709    1.693193    2.404830
    136          1           0       22.180419    2.195813    0.987086
    137          1           0       20.594139    3.062762    1.462495
 ---------------------------------------------------------------------

 SCF Done:  E(RCAM-B3LYP) =  -2932.68912551     A.U. after   17 cycles

 Excitation energies and oscillator strengths:

 Excited State   1:      Singlet-A      2.3015 eV  538.70 nm  f=0.2307  <S**2>=0.000
     240 -> 242       -0.14942
     240 -> 243        0.21949
     241 -> 242        0.63678
 This state for optimization and/or second-order correction.
 Total Energy, E(TD-HF/TD-KS) =  -2932.60454540
 Copying the excited state density for this state as the 1-particle RhoCI density.

 The electronic state is 1-A.
 Alpha  occ. eigenvalues --  -46.84152 -19.26934 -19.25187 -19.21381 -19.20057
 Alpha  occ. eigenvalues --  -19.19448 -14.42256 -14.39542 -14.39155 -14.38546
 Alpha  occ. eigenvalues --  -10.39036 -10.38645 -10.35229 -10.32845 -10.31875
 Alpha  occ. eigenvalues --  -10.31167 -10.30790 -10.30287 -10.30259 -10.29504
 Alpha  occ. eigenvalues --  -10.28613 -10.28413 -10.28397 -10.27991 -10.27859
 Alpha  occ. eigenvalues --  -10.27708 -10.27569 -10.27373 -10.27121 -10.27036
 Alpha  occ. eigenvalues --  -10.26999 -10.26969 -10.26888 -10.26830 -10.26774
 Alpha  occ. eigenvalues --  -10.26720 -10.26603 -10.26599 -10.26543 -10.26533
 Alpha  occ. eigenvalues --  -10.26382 -10.26363 -10.26350 -10.26337 -10.26333
 Alpha  occ. eigenvalues --  -10.26273 -10.26261 -10.26129 -10.26078 -10.26058
 Alpha  occ. eigenvalues --  -10.26056 -10.26047 -10.25969 -10.25873 -10.25827
 Alpha  occ. eigenvalues --  -10.25809 -10.25792 -10.25618 -10.25485 -10.25200
 Alpha  occ. eigenvalues --  -10.24837 -10.24778 -10.24187 -10.24071 -10.23673
 Alpha  occ. eigenvalues --   -3.13248  -1.87952  -1.87522  -1.87393  -1.21216
 Alpha  occ. eigenvalues --   -1.16934  -1.09683  -1.08917  -1.07154  -1.06622
 Alpha  occ. eigenvalues --   -1.04139  -1.02931  -1.01169  -0.93124  -0.91850
 Alpha  occ. eigenvalues --   -0.91163  -0.90943  -0.89905  -0.89044  -0.88820
 Alpha  occ. eigenvalues --   -0.88530  -0.87733  -0.87678  -0.86514  -0.86261
 Alpha  occ. eigenvalues --   -0.84856  -0.84382  -0.83770  -0.82998  -0.82780
 Alpha  occ. eigenvalues --   -0.81883  -0.81165  -0.80627  -0.78896  -0.78716
 Alpha  occ. eigenvalues --   -0.78379  -0.78008  -0.77344  -0.75950  -0.75704
 Alpha  occ. eigenvalues --   -0.74839  -0.74644  -0.73697  -0.73205  -0.72597
 Alpha  occ. eigenvalues --   -0.71921  -0.71502  -0.70524  -0.69393  -0.68331
 Alpha  occ. eigenvalues --   -0.67578  -0.66696  -0.66351  -0.64773  -0.64706
 Alpha  occ. eigenvalues --   -0.64268  -0.63941  -0.62871  -0.61993  -0.61759
 Alpha  occ. eigenvalues --   -0.60947  -0.60800  -0.60314  -0.59623  -0.59302
 Alpha  occ. eigenvalues --   -0.59135  -0.58677  -0.57980  -0.57394  -0.57009
 Alpha  occ. eigenvalues --   -0.56821  -0.56182  -0.55387  -0.55198  -0.54654
 Alpha  occ. eigenvalues --   -0.54553  -0.54081  -0.53937  -0.53632  -0.53218
 Alpha  occ. eigenvalues --   -0.52987  -0.52735  -0.52623  -0.52027  -0.51893
 Alpha  occ. eigenvalues --   -0.51599  -0.51172  -0.51040  -0.50704  -0.50437
 Alpha  occ. eigenvalues --   -0.50313  -0.50149  -0.49998  -0.49943  -0.49516
 Alpha  occ. eigenvalues --   -0.49418  -0.49172  -0.49170  -0.48919  -0.48859
 Alpha  occ. eigenvalues --   -0.48386  -0.48180  -0.47553  -0.47457  -0.47390
 Alpha  occ. eigenvalues --   -0.46881  -0.46797  -0.46624  -0.46534  -0.46137
 Alpha  occ. eigenvalues --   -0.46039  -0.45900  -0.45674  -0.45473  -0.45342
 Alpha  occ. eigenvalues --   -0.45203  -0.45030  -0.44866  -0.44740  -0.44548
 Alpha  occ. eigenvalues --   -0.44405  -0.44051  -0.43869  -0.43547  -0.43345
 Alpha  occ. eigenvalues --   -0.43167  -0.43104  -0.42809  -0.42428  -0.42411
 Alpha  occ. eigenvalues --   -0.42234  -0.41994  -0.41797  -0.41702  -0.41367
 Alpha  occ. eigenvalues --   -0.41284  -0.41161  -0.40916  -0.40607  -0.40385
 Alpha  occ. eigenvalues --   -0.40134  -0.40052  -0.39759  -0.39683  -0.39458
 Alpha  occ. eigenvalues --   -0.39126  -0.38870  -0.38808  -0.38623  -0.37777
 Alpha  occ. eigenvalues --   -0.37723  -0.37504  -0.37169  -0.36917  -0.36739
 Alpha  occ. eigenvalues --   -0.36501  -0.36263  -0.36222  -0.35833  -0.35712
 Alpha  occ. eigenvalues --   -0.35366  -0.35139  -0.34238  -0.33808  -0.33489
 Alpha  occ. eigenvalues --   -0.33273  -0.32987  -0.32081  -0.31034  -0.29452
 Alpha  occ. eigenvalues --   -0.29112  -0.28922  -0.28106  -0.27064  -0.23560
 Alpha  occ. eigenvalues --   -0.21896
 Alpha virt. eigenvalues --   -0.06116  -0.02374   0.01017   0.03700   0.05794
 Alpha virt. eigenvalues --    0.05963   0.06390   0.06607   0.06773   0.07285
 Alpha virt. eigenvalues --    0.08376   0.10092   0.11323   0.11472   0.11909

 Mulliken charges:
               1
     1  Mg   0.807298
     2  C    0.092980
     3  C   -0.180253
     4  C   -0.221219
     5  C   -0.131154
     6  N   -0.581532
     7  C    0.228357
     8  C   -0.134094
     9  C   -0.167168
    10  C    0.363262
    11  C   -0.294593
    12  C   -0.153765
    13  C   -0.289953
    14  C    0.596694
    15  O   -0.477822
    16  O   -0.430617
    17  N   -0.715086
    18  C    0.314266
    19  C   -0.025901
    20  C    0.046754
    21  C    0.357948
    22  C   -0.345198
    23  C   -0.110984
    24  C   -0.253280
    25  N   -0.676518
    26  C    0.315752
    27  C    0.005069
    28  C    0.073434
    29  C    0.282679
    30  C   -0.349550
    31  C   -0.259267
    32  C   -0.303907
    33  N   -0.753933
    34  C    0.285658
    35  C   -0.009273
    36  C    0.017348
    37  C    0.261595
    38  C   -0.374246
    39  C    0.371242
    40  O   -0.499017
    41  C   -0.335356
    42  C    0.607406
    43  O   -0.455126
    44  O   -0.466561
    45  C   -0.080769
    46  C    0.030392
    47  C   -0.183075
    48  C    0.153146
    49  C   -0.353547
    50  C   -0.202547
    51  C   -0.185324
    52  C   -0.169655
    53  C   -0.060688
    54  C   -0.305906
    55  C   -0.175992
    56  C   -0.194305
    57  C   -0.146460
    58  C   -0.047956
    59  C   -0.303075
    60  C   -0.170513
    61  C   -0.187631
    62  C   -0.160718
    63  C   -0.072842
    64  C   -0.311627
    65  C   -0.302952
    66  H    0.062053
    67  H    0.077773
    68  H    0.058531
    69  H    0.108600
    70  H    0.095292
    71  H    0.122920
    72  H    0.112950
    73  H    0.123706
    74  H    0.122122
    75  H    0.112171
    76  H    0.128404
    77  H    0.133672
    78  H    0.127923
    79  H    0.125747
    80  H    0.126825
    81  H    0.087395
    82  H    0.106744
    83  H    0.097610
    84  H    0.102656
    85  H    0.116834
    86  H    0.137668
    87  H    0.065527
    88  H    0.121621
    89  H    0.092533
    90  H    0.122433
    91  H    0.127099
    92  H    0.107971
    93  H    0.141202
    94  H    0.129361
    95  H    0.166937
    96  H    0.123489
    97  H    0.136144
    98  H    0.123010
    99  H    0.139860
   100  H    0.102515
   101  H    0.085083
   102  H    0.097398
   103  H    0.125269
   104  H    0.126396
   105  H    0.039008
   106  H    0.103342
   107  H    0.102420
   108  H    0.100842
   109  H    0.092264
   110  H    0.087328
   111  H    0.083979
   112  H    0.102590
   113  H    0.108396
   114  H    0.105457
   115  H    0.094374
   116  H    0.057873
   117  H    0.123377
   118  H    0.071774
   119  H    0.056035
   120  H    0.076973
   121  H    0.077352
   122  H    0.085996
   123  H    0.090153
   124  H    0.102676
   125  H    0.086283
   126  H    0.088124
   127  H    0.096504
   128  H    0.097154
   129  H    0.058627
   130  H    0.103639
   131  H    0.091401
   132  H    0.111428
   133  H    0.084319
   134  H    0.116195
   135  H    0.069809
   136  H    0.098978
   137  H    0.113568
 Sum of Mulliken charges =   0.00000

 Dipole moment (field-independent basis, Debye):
    X=              1.6585    Y=              5.5483    Z=              0.8750  Tot=              5.8566
 Quadrupole moment (field-independent basis, Debye-Ang):
   XX=           -336.5108   YY=           -405.1667   ZZ=           -396.9192
   XY=            -27.4947   XZ=              8.5867   YZ=             -7.6227

 Normal termination of Gaussian 09 at Tue Jul  2 16:15:49 2019.
