 Gaussian 16, Revision A.03,
 Gaussian 16:  ES64L-G16RevA.03 25-Dec-2016

 ----------------------------------------------------------------------
 # td=(NStates=1) iop(3/107=0140000000,3/108=0140000000) CAM-B3LYP/6-31
 G(d,p)
 ----------------------------------------------------------------------

 --
 TD
 --
 Symbolic Z-matrix:
 Charge =  0 Multiplicity = 1

                         Standard orientation:
 ---------------------------------------------------------------------
 Center     Atomic      Atomic             Coordinates (Angstroms)
 Number     Number       Type             X           Y           Z
 ---------------------------------------------------------------------
      1         12           0       -7.140102    0.582304    0.061305
      2          6           0       -4.955994   -2.050611    0.635917
      3          6           0       -4.728919    2.807326    1.291780
      4          6           0       -9.278353    3.229761   -0.445194
      5          6           0       -9.472826   -1.676817   -0.979376
      6          7           0       -5.093292    0.388373    0.732411
      7          6           0       -4.357103   -0.753612    0.830125
      8          6           0       -2.969182   -0.445140    1.286307
      9          6           0       -3.064770    0.983365    1.752350
     10          6           0       -4.321177    1.520232    1.178743
     11          6           0       -2.944358    1.200744    3.275156
     12          6           0       -2.019842   -0.616333    0.072178
     13          6           0       -0.580799   -0.443804    0.516049
     14          6           0        0.404721   -0.693052   -0.520278
     15          8           0        0.144430   -1.178961   -1.613455
     16          8           0        1.728719   -0.443518   -0.052667
     17          7           0       -7.009804    2.684100    0.283357
     18          6           0       -6.016097    3.476270    0.778414
     19          6           0       -6.255513    4.833618    0.835212
     20          6           0       -7.695399    4.956623    0.493410
     21          6           0       -8.068475    3.565524    0.028406
     22          6           0       -5.400673    5.834980    1.321474
     23          6           0       -8.468833    6.094445    0.206884
     24          6           0       -8.341552    7.311485    0.833795
     25          7           0       -9.047182    0.714419   -0.656987
     26          6           0       -9.738167    1.914739   -0.794664
     27          6           0      -11.081971    1.583729   -1.261913
     28          6           0      -11.110802    0.214840   -1.362367
     29          6           0       -9.800729   -0.306689   -0.990939
     30          6           0      -12.319936    2.544708   -1.509740
     31          6           0      -12.181533   -0.596884   -1.879081
     32          6           0      -12.155557   -0.985341   -3.346127
     33          7           0       -7.176880   -1.367397   -0.090141
     34          6           0       -8.237390   -2.156487   -0.634101
     35          6           0       -7.836166   -3.587110   -0.622968
     36          6           0       -6.575664   -3.599300   -0.014291
     37          6           0       -6.223715   -2.195045    0.113751
     38          6           0       -8.552593   -4.748166   -1.021161
     39          6           0       -5.388548   -4.446319    0.238841
     40          8           0       -5.251708   -5.541371    0.174192
     41          6           0       -4.266409   -3.354985    0.661516
     42          6           0       -3.537462   -3.657211    1.907962
     43          8           0       -3.719744   -3.142390    2.952421
     44          8           0       -2.948488   -4.933145    1.791786
     45          6           0       -2.332516   -5.458679    3.016307
     46          6           0        2.758046   -0.729581   -1.123206
     47          6           0        4.008941   -0.552681   -0.509786
     48          6           0        5.058966    0.235604   -0.885153
     49          6           0        5.082678    1.165691   -2.033506
     50          6           0        6.425075    0.214662   -0.130603
     51          6           0        7.543911   -0.263708   -0.961015
     52          6           0        8.870128   -0.212512   -0.082093
     53          6           0       10.134376   -0.602666   -0.822789
     54          6           0       10.050542   -2.098109   -1.226774
     55          6           0       11.418940   -0.374976    0.031608
     56          6           0       12.769400   -0.356233   -0.819871
     57          6           0       13.934532   -0.159299    0.115426
     58          6           0       15.338878   -0.076754   -0.592514
     59          6           0       15.627110   -1.521153   -1.101490
     60          6           0       16.473252    0.339647    0.380271
     61          6           0       17.852355    0.639528   -0.247205
     62          6           0       18.856993    1.244298    0.676466
     63          6           0       20.260750    1.436079    0.170877
     64          6           0       20.333289    2.327262   -1.050282
     65          6           0       21.230600    1.909694    1.228336
     66          1           0       -4.215538    3.486140    1.852341
     67          1           0       -9.993503    4.104398   -0.580093
     68          1           0      -10.299063   -2.491478   -1.203693
     69          1           0       -2.734005   -1.006792    2.206076
     70          1           0       -2.273929    1.675688    1.470490
     71          1           0       -1.927835    0.836448    3.565714
     72          1           0       -3.031867    2.215308    3.733615
     73          1           0       -3.558686    0.608450    3.905859
     74          1           0       -2.139367   -1.702249   -0.605139
     75          1           0       -2.012236    0.236732   -0.622472
     76          1           0       -0.382145    0.507883    0.911958
     77          1           0       -0.275669   -1.164049    1.279877
     78          1           0       -5.432489    6.712301    0.787272
     79          1           0       -5.249822    5.869205    2.370844
     80          1           0       -4.209515    5.614937    1.163551
     81          1           0       -9.422149    5.786966   -0.469971
     82          1           0       -8.877998    8.066995    0.402237
     83          1           0       -7.585446    7.363647    1.544856
     84          1           0      -12.289445    3.043576   -2.481775
     85          1           0      -13.166183    2.003357   -1.719907
     86          1           0      -12.541043    3.273830   -0.721078
     87          1           0      -12.363825   -1.469106   -1.284511
     88          1           0      -13.138118    0.022069   -1.829715
     89          1           0      -13.059401   -1.812904   -3.564282
     90          1           0      -12.328651   -0.315864   -4.250358
     91          1           0      -11.222422   -1.490181   -3.571940
     92          1           0       -9.289402   -4.777036   -1.923081
     93          1           0       -7.890712   -5.592011   -1.168784
     94          1           0       -9.212021   -4.951843   -0.162691
     95          1           0       -3.555753   -3.566970   -0.000880
     96          1           0       -1.770974   -4.587839    3.505615
     97          1           0       -3.268848   -5.547097    3.563842
     98          1           0       -1.857827   -6.464385    2.779463
     99          1           0        2.468603   -1.758568   -1.622832
    100          1           0        2.680162    0.007707   -1.870490
    101          1           0        3.959679   -1.109985    0.362160
    102          1           0        4.098157    1.315141   -2.578609
    103          1           0        5.318613    2.228679   -1.663781
    104          1           0        5.750365    0.737348   -2.729986
    105          1           0        6.708827    1.250128    0.308167
    106          1           0        6.258751   -0.457491    0.738214
    107          1           0        7.472526   -1.342388   -1.318935
    108          1           0        7.502555    0.530695   -1.841221
    109          1           0        8.956366    0.827993    0.194062
    110          1           0        8.564811   -0.870567    0.820646
    111          1           0       10.259037   -0.001495   -1.758662
    112          1           0        9.237785   -2.234942   -1.927706
    113          1           0       10.889430   -2.514318   -1.888598
    114          1           0       10.077537   -2.644669   -0.233755
    115          1           0       11.252643    0.577838    0.438729
    116          1           0       11.394747   -1.226828    0.767131
    117          1           0       13.010650   -1.242310   -1.352925
    118          1           0       12.606645    0.540560   -1.514625
    119          1           0       13.537924    0.774334    0.594682
    120          1           0       13.986956   -0.847555    1.031380
    121          1           0       15.288326    0.651655   -1.423748
    122          1           0       15.741743   -2.354192   -0.338684
    123          1           0       14.845552   -1.698543   -1.713782
    124          1           0       16.563164   -1.599857   -1.700726
    125          1           0       16.018695    1.195060    0.863775
    126          1           0       16.615880   -0.444764    1.276846
    127          1           0       18.177263   -0.229824   -0.823654
    128          1           0       17.386861    1.151744   -1.184093
    129          1           0       18.461473    2.236279    1.211698
    130          1           0       18.999534    0.581100    1.574667
    131          1           0       20.624519    0.383296   -0.049841
    132          1           0       19.956362    3.381658   -0.826273
    133          1           0       21.387771    2.694779   -1.607115
    134          1           0       19.716373    1.928036   -1.773863
    135          1           0       21.115854    1.262439    2.092740
    136          1           0       22.297632    1.926982    0.898983
    137          1           0       20.805035    2.704116    1.597967
 ---------------------------------------------------------------------

 SCF Done:  E(RCAM-B3LYP) =  -2933.57011807     A.U. after   16 cycles

 Excitation energies and oscillator strengths:

 Excited State   1:      Singlet-A      2.0511 eV  604.48 nm  f=0.2926  <S**2>=0.000
     240 -> 243        0.23252
     241 -> 242        0.65653
 This state for optimization and/or second-order correction.
 Total Energy, E(TD-HF/TD-DFT) =  -2933.49474176
 Copying the excited state density for this state as the 1-particle RhoCI density.

 The electronic state is 1-A.
 Alpha  occ. eigenvalues --  -46.79664 -19.20900 -19.19851 -19.17747 -19.16921
 Alpha  occ. eigenvalues --  -19.16742 -14.36850 -14.35164 -14.35135 -14.35097
 Alpha  occ. eigenvalues --  -10.34093 -10.33356 -10.30791 -10.26953 -10.26571
 Alpha  occ. eigenvalues --  -10.26230 -10.25484 -10.25327 -10.24976 -10.24803
 Alpha  occ. eigenvalues --  -10.24593 -10.24213 -10.24087 -10.24072 -10.24071
 Alpha  occ. eigenvalues --  -10.23623 -10.23507 -10.23395 -10.23344 -10.23143
 Alpha  occ. eigenvalues --  -10.22925 -10.22691 -10.22445 -10.22393 -10.22297
 Alpha  occ. eigenvalues --  -10.22287 -10.22204 -10.22145 -10.21975 -10.21932
 Alpha  occ. eigenvalues --  -10.21923 -10.21905 -10.21798 -10.21773 -10.21760
 Alpha  occ. eigenvalues --  -10.21534 -10.21486 -10.21419 -10.21299 -10.21295
 Alpha  occ. eigenvalues --  -10.21292 -10.21231 -10.21179 -10.21124 -10.21093
 Alpha  occ. eigenvalues --  -10.21040 -10.20968 -10.20889 -10.20775 -10.20671
 Alpha  occ. eigenvalues --  -10.20585 -10.20361 -10.20221 -10.19677 -10.18460
 Alpha  occ. eigenvalues --   -3.08273  -1.83219  -1.82726  -1.82698  -1.14000
 Alpha  occ. eigenvalues --   -1.11857  -1.09964  -1.03628  -1.02706  -0.99976
 Alpha  occ. eigenvalues --   -0.98321  -0.97325  -0.96545  -0.87416  -0.86377
 Alpha  occ. eigenvalues --   -0.85496  -0.85335  -0.84637  -0.84501  -0.83957
 Alpha  occ. eigenvalues --   -0.83528  -0.83391  -0.83154  -0.82453  -0.81515
 Alpha  occ. eigenvalues --   -0.80685  -0.79589  -0.78899  -0.78706  -0.77443
 Alpha  occ. eigenvalues --   -0.76691  -0.76323  -0.75436  -0.74715  -0.74191
 Alpha  occ. eigenvalues --   -0.73033  -0.72197  -0.71486  -0.71304  -0.70746
 Alpha  occ. eigenvalues --   -0.70588  -0.70358  -0.69814  -0.68292  -0.67852
 Alpha  occ. eigenvalues --   -0.67490  -0.65997  -0.64978  -0.64600  -0.64236
 Alpha  occ. eigenvalues --   -0.62777  -0.61246  -0.60761  -0.60560  -0.59960
 Alpha  occ. eigenvalues --   -0.59182  -0.58720  -0.58141  -0.58116  -0.57510
 Alpha  occ. eigenvalues --   -0.57216  -0.56496  -0.55873  -0.55372  -0.55201
 Alpha  occ. eigenvalues --   -0.54806  -0.54413  -0.53516  -0.53287  -0.52620
 Alpha  occ. eigenvalues --   -0.52371  -0.51861  -0.51807  -0.51443  -0.51075
 Alpha  occ. eigenvalues --   -0.50783  -0.50515  -0.49831  -0.49727  -0.49436
 Alpha  occ. eigenvalues --   -0.48899  -0.48739  -0.48619  -0.48413  -0.48253
 Alpha  occ. eigenvalues --   -0.47785  -0.47741  -0.47649  -0.47311  -0.47126
 Alpha  occ. eigenvalues --   -0.46936  -0.46674  -0.46457  -0.46339  -0.46221
 Alpha  occ. eigenvalues --   -0.46020  -0.45731  -0.45555  -0.45359  -0.45123
 Alpha  occ. eigenvalues --   -0.45008  -0.44807  -0.44427  -0.44353  -0.44053
 Alpha  occ. eigenvalues --   -0.43517  -0.43361  -0.43253  -0.43044  -0.42544
 Alpha  occ. eigenvalues --   -0.42421  -0.42355  -0.42292  -0.42145  -0.41835
 Alpha  occ. eigenvalues --   -0.41402  -0.41158  -0.41119  -0.40993  -0.40857
 Alpha  occ. eigenvalues --   -0.40647  -0.40607  -0.40378  -0.40069  -0.40009
 Alpha  occ. eigenvalues --   -0.39951  -0.39760  -0.39526  -0.39419  -0.39266
 Alpha  occ. eigenvalues --   -0.38882  -0.38637  -0.38622  -0.38186  -0.37767
 Alpha  occ. eigenvalues --   -0.37618  -0.37385  -0.37273  -0.37233  -0.36881
 Alpha  occ. eigenvalues --   -0.36445  -0.36333  -0.36193  -0.36060  -0.35772
 Alpha  occ. eigenvalues --   -0.35254  -0.35239  -0.35160  -0.34865  -0.34843
 Alpha  occ. eigenvalues --   -0.34783  -0.34524  -0.34292  -0.33801  -0.33491
 Alpha  occ. eigenvalues --   -0.33442  -0.32845  -0.32369  -0.32238  -0.32145
 Alpha  occ. eigenvalues --   -0.32131  -0.31559  -0.31152  -0.30841  -0.30460
 Alpha  occ. eigenvalues --   -0.30337  -0.29981  -0.29463  -0.28168  -0.27411
 Alpha  occ. eigenvalues --   -0.27190  -0.26496  -0.25645  -0.23529  -0.21508
 Alpha  occ. eigenvalues --   -0.19754
 Alpha virt. eigenvalues --   -0.06833  -0.03956   0.00585   0.02487   0.03321
 Alpha virt. eigenvalues --    0.03773   0.03949   0.05112   0.05660   0.06021
 Alpha virt. eigenvalues --    0.06665   0.09291   0.09527   0.10389   0.10494

 Mulliken charges:
               1
     1  Mg   0.820199
     2  C    0.087571
     3  C   -0.187178
     4  C   -0.152580
     5  C   -0.186752
     6  N   -0.626487
     7  C    0.315335
     8  C   -0.165792
     9  C   -0.145047
    10  C    0.352554
    11  C   -0.333638
    12  C   -0.163304
    13  C   -0.262063
    14  C    0.609194
    15  O   -0.470827
    16  O   -0.521815
    17  N   -0.677058
    18  C    0.299213
    19  C    0.059109
    20  C    0.010968
    21  C    0.291467
    22  C   -0.411200
    23  C   -0.086067
    24  C   -0.239872
    25  N   -0.722763
    26  C    0.249054
    27  C    0.026574
    28  C    0.023485
    29  C    0.347409
    30  C   -0.380074
    31  C   -0.257240
    32  C   -0.297468
    33  N   -0.734120
    34  C    0.286849
    35  C    0.037881
    36  C   -0.025735
    37  C    0.306289
    38  C   -0.410873
    39  C    0.368478
    40  O   -0.348739
    41  C   -0.332168
    42  C    0.589771
    43  O   -0.443002
    44  O   -0.493301
    45  C   -0.084967
    46  C    0.017123
    47  C   -0.112727
    48  C    0.114023
    49  C   -0.375123
    50  C   -0.215581
    51  C   -0.172593
    52  C   -0.161162
    53  C   -0.070061
    54  C   -0.307117
    55  C   -0.165854
    56  C   -0.186047
    57  C   -0.164455
    58  C   -0.078870
    59  C   -0.306697
    60  C   -0.159463
    61  C   -0.170813
    62  C   -0.159618
    63  C   -0.061155
    64  C   -0.291009
    65  C   -0.298886
    66  H    0.058827
    67  H    0.089868
    68  H    0.098032
    69  H    0.134722
    70  H    0.106960
    71  H    0.097553
    72  H    0.109483
    73  H    0.130348
    74  H    0.106198
    75  H    0.124354
    76  H    0.140955
    77  H    0.141798
    78  H    0.132202
    79  H    0.138589
    80  H    0.079797
    81  H    0.072485
    82  H    0.104050
    83  H    0.106805
    84  H    0.118491
    85  H    0.119759
    86  H    0.121098
    87  H    0.108779
    88  H    0.092848
    89  H    0.063057
    90  H    0.108106
    91  H    0.108772
    92  H    0.115971
    93  H    0.147893
    94  H    0.143402
    95  H    0.144095
    96  H    0.123115
    97  H    0.138145
    98  H    0.131329
    99  H    0.126485
   100  H    0.108652
   101  H    0.086882
   102  H    0.105267
   103  H    0.114500
   104  H    0.139100
   105  H    0.089874
   106  H    0.094302
   107  H    0.101607
   108  H    0.078501
   109  H    0.090739
   110  H    0.085847
   111  H    0.076552
   112  H    0.105122
   113  H    0.089428
   114  H    0.095778
   115  H    0.094157
   116  H    0.083487
   117  H    0.104241
   118  H    0.086295
   119  H    0.076129
   120  H    0.086926
   121  H    0.085298
   122  H    0.100404
   123  H    0.107616
   124  H    0.091374
   125  H    0.091286
   126  H    0.058364
   127  H    0.098731
   128  H    0.078825
   129  H    0.071943
   130  H    0.094539
   131  H    0.078303
   132  H    0.088977
   133  H    0.067839
   134  H    0.113421
   135  H    0.085881
   136  H    0.104020
   137  H    0.110242
 Sum of Mulliken charges =  -0.00000

 Dipole moment (field-independent basis, Debye):
    X=              1.1794    Y=              2.3192    Z=              0.3140  Tot=              2.6208
 Quadrupole moment (field-independent basis, Debye-Ang):
   XX=           -370.9357   YY=           -387.3563   ZZ=           -396.0649
   XY=             -7.6590   XZ=              8.0511   YZ=             -0.7684

 Normal termination of Gaussian 16 at Thu Sep  5 09:23:41 2019.
