 Gaussian 16, Revision A.03,
 Gaussian 16:  ES64L-G16RevA.03 25-Dec-2016

 ----------------------------------------------------------------------
 # td=(NStates=1) iop(3/107=0140000000,3/108=0140000000) CAM-B3LYP/6-31
 G(d,p)
 ----------------------------------------------------------------------

 --
 TD
 --
 Symbolic Z-matrix:
 Charge =  0 Multiplicity = 1

                         Standard orientation:
 ---------------------------------------------------------------------
 Center     Atomic      Atomic             Coordinates (Angstroms)
 Number     Number       Type             X           Y           Z
 ---------------------------------------------------------------------
      1         12           0       -7.085678    0.645350    0.091033
      2          6           0       -4.807694   -1.997752    0.604894
      3          6           0       -4.741170    2.851394    1.211776
      4          6           0       -9.277591    3.141190   -0.535934
      5          6           0       -9.629080   -1.702117   -0.768720
      6          7           0       -5.072235    0.409019    0.773512
      7          6           0       -4.247010   -0.680935    0.914129
      8          6           0       -2.781334   -0.415999    1.372892
      9          6           0       -2.919537    1.036347    1.746244
     10          6           0       -4.261318    1.479641    1.243059
     11          6           0       -2.957343    1.212946    3.296064
     12          6           0       -1.894374   -0.761433    0.174594
     13          6           0       -0.471714   -0.500877    0.524260
     14          6           0        0.519592   -0.721826   -0.738177
     15          8           0        0.214223   -1.062434   -1.785925
     16          8           0        1.805480   -0.464832   -0.283780
     17          7           0       -7.001477    2.653790    0.263547
     18          6           0       -5.937044    3.339445    0.844720
     19          6           0       -6.342813    4.804565    0.943452
     20          6           0       -7.726542    4.817357    0.455066
     21          6           0       -8.046868    3.426108    0.028983
     22          6           0       -5.467849    5.919918    1.321092
     23          6           0       -8.402543    5.959617    0.182208
     24          6           0       -8.274438    7.295304    0.554381
     25          7           0       -9.066561    0.711537   -0.568581
     26          6           0       -9.790710    1.921331   -0.762036
     27          6           0      -11.113443    1.543995   -1.119608
     28          6           0      -11.268110    0.196110   -1.227267
     29          6           0       -9.913275   -0.339601   -0.825116
     30          6           0      -12.161522    2.588563   -1.497592
     31          6           0      -12.273174   -0.756850   -1.696366
     32          6           0      -12.165178   -0.998968   -3.226607
     33          7           0       -7.198913   -1.368329   -0.140570
     34          6           0       -8.318653   -2.117438   -0.479671
     35          6           0       -7.890182   -3.557163   -0.591368
     36          6           0       -6.463077   -3.458224   -0.195109
     37          6           0       -6.170333   -2.231035    0.054998
     38          6           0       -8.771445   -4.632974   -0.860885
     39          6           0       -5.393639   -4.334513    0.169955
     40          8           0       -5.230068   -5.549121    0.088685
     41          6           0       -4.194856   -3.332267    0.577722
     42          6           0       -3.621160   -3.774309    1.884505
     43          8           0       -3.857566   -3.237935    2.994223
     44          8           0       -2.838118   -4.824077    1.723270
     45          6           0       -2.433497   -5.483738    2.931433
     46          6           0        2.812179   -0.626874   -1.342787
     47          6           0        4.036621   -0.354212   -0.679270
     48          6           0        5.081954    0.325799   -1.040150
     49          6           0        5.119114    1.251007   -2.237620
     50          6           0        6.376069    0.282312   -0.244768
     51          6           0        7.570707   -0.208758   -1.114476
     52          6           0        8.838033   -0.169066   -0.218213
     53          6           0       10.161395   -0.688198   -0.953592
     54          6           0       10.176084   -2.142578   -1.295553
     55          6           0       11.400975   -0.407005   -0.146472
     56          6           0       12.700673   -0.428644   -0.858601
     57          6           0       13.895759   -0.094748    0.137895
     58          6           0       15.304284   -0.243471   -0.569701
     59          6           0       15.773084   -1.637543   -0.915016
     60          6           0       16.372972    0.376849    0.423738
     61          6           0       17.895547    0.544973   -0.071257
     62          6           0       18.634166    1.221357    0.895873
     63          6           0       20.093053    1.469704    0.282922
     64          6           0       20.181939    2.430239   -0.862555
     65          6           0       21.085862    1.932470    1.351601
     66          1           0       -4.138755    3.682397    1.729036
     67          1           0      -10.016769    3.911817   -0.767046
     68          1           0      -10.388832   -2.495070   -0.744983
     69          1           0       -2.394371   -1.064015    2.188138
     70          1           0       -2.139245    1.415402    1.450798
     71          1           0       -1.978255    1.257360    3.785703
     72          1           0       -3.395173    2.266454    3.717308
     73          1           0       -3.476201    0.501027    3.752485
     74          1           0       -1.869227   -1.698309   -0.252923
     75          1           0       -2.216371   -0.253722   -0.763994
     76          1           0       -0.225001    0.499865    0.934917
     77          1           0       -0.151832   -1.028794    1.499712
     78          1           0       -5.474739    6.700405    0.590230
     79          1           0       -5.624505    6.269011    2.233011
     80          1           0       -4.335967    5.564250    1.345830
     81          1           0       -9.380318    5.870793   -0.439763
     82          1           0       -9.010025    8.179296    0.247475
     83          1           0       -7.483358    7.837008    1.304190
     84          1           0      -11.826506    3.170301   -2.272030
     85          1           0      -13.173374    2.267086   -1.662617
     86          1           0      -12.597253    3.122744   -0.664253
     87          1           0      -12.291901   -1.596913   -1.024844
     88          1           0      -13.282602   -0.315944   -1.591747
     89          1           0      -12.889338   -2.084297   -3.305191
     90          1           0      -12.345732   -0.236625   -3.811275
     91          1           0      -11.089809   -1.735729   -3.423408
     92          1           0       -9.402966   -4.482002   -1.811454
     93          1           0       -8.200973   -5.513725   -0.898949
     94          1           0       -9.653806   -4.728377   -0.018236
     95          1           0       -3.257466   -3.477667   -0.113583
     96          1           0       -2.104203   -4.602397    3.484445
     97          1           0       -3.262369   -5.732972    3.830671
     98          1           0       -1.785935   -6.148032    2.787499
     99          1           0        2.504547   -1.567720   -1.805144
    100          1           0        2.504243    0.008189   -2.192546
    101          1           0        3.940685   -0.916593    0.211916
    102          1           0        4.250923    1.428390   -2.875368
    103          1           0        5.586832    2.244472   -2.068094
    104          1           0        5.706044    0.816730   -2.952553
    105          1           0        6.442920    1.231774    0.330367
    106          1           0        6.293493   -0.551702    0.570969
    107          1           0        7.553966   -1.352982   -1.515146
    108          1           0        7.737466    0.349002   -2.148199
    109          1           0        9.020636    0.833600    0.001943
    110          1           0        8.703279   -0.627889    0.631159
    111          1           0       10.301074    0.023311   -1.713572
    112          1           0        9.079035   -2.520246   -1.785625
    113          1           0       10.956532   -2.230598   -2.012707
    114          1           0       10.246431   -2.665260   -0.286703
    115          1           0       11.233791    0.634587    0.213392
    116          1           0       11.457157   -1.100721    0.849303
    117          1           0       12.839127   -1.471767   -1.207872
    118          1           0       12.546676    0.063782   -1.752761
    119          1           0       13.799995    0.780560    0.621570
    120          1           0       13.835749   -0.904192    1.053352
    121          1           0       15.369705    0.390092   -1.375171
    122          1           0       15.624639   -2.143792    0.034086
    123          1           0       15.176388   -2.209985   -1.614871
    124          1           0       16.746610   -1.791774   -1.366624
    125          1           0       16.103589    1.469523    0.663198
    126          1           0       16.359765   -0.325196    1.362343
    127          1           0       18.217525   -0.326632   -0.268575
    128          1           0       17.671390    0.909862   -1.037362
    129          1           0       18.280006    2.359830    1.103829
    130          1           0       18.786547    0.538904    1.823287
    131          1           0       20.619682    0.402112    0.184573
    132          1           0       19.889715    3.369796   -0.439719
    133          1           0       21.150631    2.476781   -1.214318
    134          1           0       19.709465    2.092539   -1.806355
    135          1           0       21.187376    1.191173    2.023322
    136          1           0       22.093878    2.022425    0.923577
    137          1           0       20.577207    2.853330    1.918584
 ---------------------------------------------------------------------

 SCF Done:  E(RCAM-B3LYP) =  -2933.37879915     A.U. after   16 cycles

 Excitation energies and oscillator strengths:

 Excited State   1:      Singlet-A      1.8795 eV  659.65 nm  f=0.2600  <S**2>=0.000
     240 -> 243       -0.22309
     241 -> 242        0.66211
 This state for optimization and/or second-order correction.
 Total Energy, E(TD-HF/TD-DFT) =  -2933.30972708
 Copying the excited state density for this state as the 1-particle RhoCI density.

 The electronic state is 1-A.
 Alpha  occ. eigenvalues --  -46.79833 -19.22490 -19.20832 -19.18581 -19.15577
 Alpha  occ. eigenvalues --  -19.15355 -14.39127 -14.35694 -14.34694 -14.34508
 Alpha  occ. eigenvalues --  -10.34722 -10.33636 -10.29901 -10.27893 -10.27012
 Alpha  occ. eigenvalues --  -10.26152 -10.25964 -10.25704 -10.25679 -10.24516
 Alpha  occ. eigenvalues --  -10.24494 -10.24175 -10.24130 -10.23994 -10.23777
 Alpha  occ. eigenvalues --  -10.23727 -10.23691 -10.23617 -10.23564 -10.23526
 Alpha  occ. eigenvalues --  -10.23377 -10.23319 -10.23153 -10.23123 -10.22924
 Alpha  occ. eigenvalues --  -10.22787 -10.22669 -10.22475 -10.22448 -10.22337
 Alpha  occ. eigenvalues --  -10.22322 -10.21993 -10.21957 -10.21837 -10.21789
 Alpha  occ. eigenvalues --  -10.21782 -10.21722 -10.21698 -10.21665 -10.21596
 Alpha  occ. eigenvalues --  -10.21457 -10.21253 -10.21154 -10.20838 -10.20737
 Alpha  occ. eigenvalues --  -10.20664 -10.20455 -10.20374 -10.20083 -10.19995
 Alpha  occ. eigenvalues --  -10.19715 -10.19508 -10.19284 -10.19252 -10.18014
 Alpha  occ. eigenvalues --   -3.08402  -1.83349  -1.82878  -1.82797  -1.14672
 Alpha  occ. eigenvalues --   -1.13377  -1.06145  -1.04745  -1.01910  -0.98857
 Alpha  occ. eigenvalues --   -0.98163  -0.97697  -0.96149  -0.87309  -0.86569
 Alpha  occ. eigenvalues --   -0.86341  -0.85724  -0.85293  -0.84593  -0.83935
 Alpha  occ. eigenvalues --   -0.83257  -0.82965  -0.82836  -0.81978  -0.81328
 Alpha  occ. eigenvalues --   -0.80566  -0.79412  -0.79260  -0.78539  -0.77997
 Alpha  occ. eigenvalues --   -0.77572  -0.77065  -0.75882  -0.75524  -0.73477
 Alpha  occ. eigenvalues --   -0.72673  -0.72166  -0.72124  -0.71637  -0.71561
 Alpha  occ. eigenvalues --   -0.70646  -0.70473  -0.69404  -0.68586  -0.67751
 Alpha  occ. eigenvalues --   -0.66898  -0.66315  -0.65140  -0.64682  -0.63552
 Alpha  occ. eigenvalues --   -0.62900  -0.62376  -0.61946  -0.61003  -0.60730
 Alpha  occ. eigenvalues --   -0.60261  -0.60002  -0.59370  -0.58345  -0.58034
 Alpha  occ. eigenvalues --   -0.57834  -0.56889  -0.56729  -0.56131  -0.55419
 Alpha  occ. eigenvalues --   -0.54426  -0.53967  -0.53618  -0.53053  -0.52361
 Alpha  occ. eigenvalues --   -0.52200  -0.51916  -0.51816  -0.51600  -0.51344
 Alpha  occ. eigenvalues --   -0.50909  -0.50602  -0.50407  -0.49957  -0.49856
 Alpha  occ. eigenvalues --   -0.49212  -0.48936  -0.48619  -0.48224  -0.47852
 Alpha  occ. eigenvalues --   -0.47846  -0.47693  -0.47521  -0.47398  -0.47189
 Alpha  occ. eigenvalues --   -0.46961  -0.46874  -0.46647  -0.46407  -0.46359
 Alpha  occ. eigenvalues --   -0.45831  -0.45688  -0.45456  -0.45379  -0.44862
 Alpha  occ. eigenvalues --   -0.44566  -0.44288  -0.44244  -0.44032  -0.43843
 Alpha  occ. eigenvalues --   -0.43807  -0.43491  -0.43198  -0.43078  -0.42480
 Alpha  occ. eigenvalues --   -0.42331  -0.42141  -0.41885  -0.41687  -0.41416
 Alpha  occ. eigenvalues --   -0.41367  -0.41236  -0.41120  -0.41027  -0.40789
 Alpha  occ. eigenvalues --   -0.40648  -0.40507  -0.40065  -0.39995  -0.39842
 Alpha  occ. eigenvalues --   -0.39650  -0.39434  -0.39315  -0.39083  -0.39067
 Alpha  occ. eigenvalues --   -0.38785  -0.38674  -0.38375  -0.38245  -0.38197
 Alpha  occ. eigenvalues --   -0.37864  -0.37704  -0.37393  -0.37118  -0.37038
 Alpha  occ. eigenvalues --   -0.36780  -0.36609  -0.36572  -0.36367  -0.36160
 Alpha  occ. eigenvalues --   -0.35774  -0.35185  -0.35179  -0.34964  -0.34781
 Alpha  occ. eigenvalues --   -0.34678  -0.34664  -0.34150  -0.33966  -0.33528
 Alpha  occ. eigenvalues --   -0.32855  -0.32715  -0.32527  -0.32180  -0.32131
 Alpha  occ. eigenvalues --   -0.31944  -0.31777  -0.31381  -0.31297  -0.30275
 Alpha  occ. eigenvalues --   -0.29728  -0.29367  -0.29060  -0.27934  -0.27162
 Alpha  occ. eigenvalues --   -0.26286  -0.25740  -0.25360  -0.23700  -0.21222
 Alpha  occ. eigenvalues --   -0.19540
 Alpha virt. eigenvalues --   -0.07501  -0.03956  -0.00423   0.01361   0.03776
 Alpha virt. eigenvalues --    0.04512   0.04753   0.05042   0.05383   0.05527
 Alpha virt. eigenvalues --    0.06398   0.08012   0.08950   0.09168   0.10333

 Mulliken charges:
               1
     1  Mg   0.807481
     2  C    0.102110
     3  C   -0.199002
     4  C   -0.167069
     5  C   -0.159749
     6  N   -0.595546
     7  C    0.283667
     8  C   -0.148894
     9  C   -0.070207
    10  C    0.303457
    11  C   -0.326389
    12  C   -0.173157
    13  C   -0.290222
    14  C    0.601391
    15  O   -0.411576
    16  O   -0.499703
    17  N   -0.750852
    18  C    0.329770
    19  C    0.023636
    20  C    0.024039
    21  C    0.376979
    22  C   -0.381334
    23  C   -0.104751
    24  C   -0.270561
    25  N   -0.714226
    26  C    0.330786
    27  C   -0.006551
    28  C    0.063618
    29  C    0.300820
    30  C   -0.390886
    31  C   -0.253944
    32  C   -0.255153
    33  N   -0.748508
    34  C    0.277799
    35  C    0.044166
    36  C    0.038256
    37  C    0.298145
    38  C   -0.405501
    39  C    0.351443
    40  O   -0.472492
    41  C   -0.367785
    42  C    0.626124
    43  O   -0.513924
    44  O   -0.423792
    45  C   -0.069580
    46  C   -0.002110
    47  C   -0.110135
    48  C    0.130478
    49  C   -0.383020
    50  C   -0.231593
    51  C   -0.177536
    52  C   -0.164014
    53  C   -0.072691
    54  C   -0.278600
    55  C   -0.164342
    56  C   -0.176528
    57  C   -0.159188
    58  C   -0.066743
    59  C   -0.310123
    60  C   -0.192990
    61  C   -0.142358
    62  C   -0.148707
    63  C   -0.072464
    64  C   -0.293724
    65  C   -0.296964
    66  H    0.079163
    67  H    0.089306
    68  H    0.097041
    69  H    0.127921
    70  H    0.087939
    71  H    0.106722
    72  H    0.087281
    73  H    0.148404
    74  H    0.131896
    75  H    0.116155
    76  H    0.125372
    77  H    0.119495
    78  H    0.138347
    79  H    0.144837
    80  H    0.089087
    81  H    0.082681
    82  H    0.095008
    83  H    0.082405
    84  H    0.131402
    85  H    0.105398
    86  H    0.117610
    87  H    0.115562
    88  H    0.102782
    89  H    0.064469
    90  H    0.130142
    91  H    0.075916
    92  H    0.119811
    93  H    0.148983
    94  H    0.106594
    95  H    0.146789
    96  H    0.129893
    97  H    0.108183
    98  H    0.120277
    99  H    0.129840
   100  H    0.107531
   101  H    0.090194
   102  H    0.110832
   103  H    0.112372
   104  H    0.134809
   105  H    0.113037
   106  H    0.097565
   107  H    0.082048
   108  H    0.081123
   109  H    0.093644
   110  H    0.099267
   111  H    0.083880
   112  H    0.059424
   113  H    0.115341
   114  H    0.103658
   115  H    0.075011
   116  H    0.053183
   117  H    0.093935
   118  H    0.095738
   119  H    0.108324
   120  H    0.064642
   121  H    0.089631
   122  H    0.102833
   123  H    0.096119
   124  H    0.106353
   125  H    0.072282
   126  H    0.063498
   127  H    0.103604
   128  H    0.095803
   129  H    0.065742
   130  H    0.087333
   131  H    0.054938
   132  H    0.105619
   133  H    0.110998
   134  H    0.094356
   135  H    0.107149
   136  H    0.096486
   137  H    0.070008
 Sum of Mulliken charges =  -0.00000

 Dipole moment (field-independent basis, Debye):
    X=              2.5663    Y=              4.1435    Z=             -0.1868  Tot=              4.8774
 Quadrupole moment (field-independent basis, Debye-Ang):
   XX=           -329.9393   YY=           -401.1952   ZZ=           -395.6092
   XY=            -21.7400   XZ=             -1.0557   YZ=             -2.6626

 Normal termination of Gaussian 16 at Tue Sep 10 07:13:33 2019.
