 Gaussian 09, Revision D.01,
 Gaussian 09:  ES64L-G09RevD.01 24-Apr-2013

 -------------------------------------
 # td=(NStates=1) CAM-B3LYP/6-31G(d,p)
 -------------------------------------

 --
 TD
 --
 Symbolic Z-matrix:
 Charge =  0 Multiplicity = 1

                         Standard orientation:
 ---------------------------------------------------------------------
 Center     Atomic      Atomic             Coordinates (Angstroms)
 Number     Number       Type             X           Y           Z
 ---------------------------------------------------------------------
      1         12           0       -7.085620    0.552569    0.119612
      2          6           0       -4.869563   -1.874277    0.563986
      3          6           0       -4.829975    2.815647    1.092076
      4          6           0       -9.425591    3.095774   -0.342469
      5          6           0       -9.460660   -1.744502   -1.012933
      6          7           0       -5.126201    0.369122    0.708802
      7          6           0       -4.316469   -0.675793    0.848098
      8          6           0       -2.903900   -0.399655    1.320916
      9          6           0       -3.041701    1.039367    1.735240
     10          6           0       -4.307203    1.489594    1.063920
     11          6           0       -2.967194    1.349641    3.260040
     12          6           0       -1.882719   -0.590109    0.173555
     13          6           0       -0.394347   -0.609363    0.563776
     14          6           0        0.535032   -0.694321   -0.540821
     15          8           0        0.176325   -0.927161   -1.692871
     16          8           0        1.740304   -0.529028   -0.131495
     17          7           0       -7.104066    2.603624    0.246386
     18          6           0       -6.111493    3.297288    0.738034
     19          6           0       -6.455321    4.786311    0.745507
     20          6           0       -7.723243    4.861167    0.264584
     21          6           0       -8.204921    3.474363    0.038089
     22          6           0       -5.502631    5.924477    1.167607
     23          6           0       -8.584585    6.058254    0.099339
     24          6           0       -8.539385    7.176080    0.702782
     25          7           0       -9.163387    0.617223   -0.502240
     26          6           0       -9.870009    1.835976   -0.598594
     27          6           0      -11.226671    1.472235   -1.226324
     28          6           0      -11.224197    0.068506   -1.342331
     29          6           0       -9.951081   -0.409510   -1.034916
     30          6           0      -12.279262    2.475271   -1.356252
     31          6           0      -12.414149   -0.651458   -1.846528
     32          6           0      -12.419588   -0.981243   -3.295020
     33          7           0       -7.290022   -1.401783   -0.024042
     34          6           0       -8.308980   -2.230590   -0.490774
     35          6           0       -7.787219   -3.564958   -0.607576
     36          6           0       -6.518982   -3.577269   -0.193118
     37          6           0       -6.229285   -2.196990    0.116272
     38          6           0       -8.530999   -4.777442   -0.979090
     39          6           0       -5.266533   -4.447357    0.143334
     40          8           0       -5.179914   -5.631306    0.098731
     41          6           0       -4.165470   -3.343574    0.582682
     42          6           0       -3.526832   -3.585169    1.903103
     43          8           0       -3.812456   -3.131343    2.955902
     44          8           0       -2.757501   -4.748431    1.725430
     45          6           0       -2.210011   -5.298348    2.862268
     46          6           0        2.823046   -0.692040   -1.093140
     47          6           0        4.175236   -0.513996   -0.354771
     48          6           0        5.094222    0.309565   -0.769553
     49          6           0        5.145245    1.223302   -2.003631
     50          6           0        6.396404    0.338683   -0.055760
     51          6           0        7.624375   -0.042957   -0.836941
     52          6           0        8.919420   -0.186123   -0.026987
     53          6           0       10.235464   -0.640482   -0.755033
     54          6           0       10.112801   -2.065936   -1.258883
     55          6           0       11.449213   -0.421961    0.186254
     56          6           0       12.852493   -0.471861   -0.568665
     57          6           0       14.064676   -0.055335    0.377899
     58          6           0       15.433729   -0.264687   -0.372917
     59          6           0       15.731958   -1.714814   -0.922923
     60          6           0       16.510980    0.402224    0.429370
     61          6           0       17.865035    0.659352   -0.302400
     62          6           0       18.869567    1.365431    0.521093
     63          6           0       20.242256    1.414046    0.022926
     64          6           0       20.253572    2.085494   -1.281079
     65          6           0       21.231275    2.085439    0.988956
     66          1           0       -4.172620    3.672812    1.610421
     67          1           0      -10.086338    4.022760   -0.456810
     68          1           0      -10.228734   -2.461920   -1.508792
     69          1           0       -2.653181   -0.951360    2.076521
     70          1           0       -2.192238    1.530513    1.194703
     71          1           0       -1.883500    1.294983    3.701195
     72          1           0       -3.531084    2.442779    3.408348
     73          1           0       -3.743748    0.744445    3.862362
     74          1           0       -1.893442   -1.580088   -0.324994
     75          1           0       -2.255756    0.167539   -0.539350
     76          1           0       -0.341045    0.308010    1.184502
     77          1           0       -0.103206   -1.418717    1.338543
     78          1           0       -5.766618    6.740760    0.557465
     79          1           0       -5.557995    6.048688    2.199133
     80          1           0       -4.419470    5.628827    1.092732
     81          1           0       -9.375003    5.878290   -0.599821
     82          1           0       -9.223938    8.027669    0.754634
     83          1           0       -7.766864    7.572827    1.415878
     84          1           0      -12.184269    3.317162   -1.886171
     85          1           0      -13.399412    1.834903   -1.683498
     86          1           0      -12.603605    3.024238   -0.477710
     87          1           0      -12.650751   -1.658627   -1.269974
     88          1           0      -13.172653    0.151982   -1.676139
     89          1           0      -13.472850   -1.411108   -3.726101
     90          1           0      -12.180286   -0.138016   -3.916546
     91          1           0      -11.502977   -1.800722   -3.677541
     92          1           0       -9.224212   -4.594774   -1.980174
     93          1           0       -7.858333   -5.593147   -1.125321
     94          1           0       -9.234899   -5.090267   -0.049189
     95          1           0       -3.603474   -3.576380   -0.309539
     96          1           0       -1.556743   -4.546720    3.509536
     97          1           0       -3.047846   -5.545571    3.589407
     98          1           0       -1.649398   -6.221018    2.578238
     99          1           0        2.608834   -1.652188   -1.681355
    100          1           0        2.533888    0.055052   -1.964005
    101          1           0        4.299966   -1.076164    0.384871
    102          1           0        4.140364    1.343057   -2.395397
    103          1           0        5.815127    2.082644   -1.906021
    104          1           0        5.571165    0.896072   -2.936692
    105          1           0        6.611415    1.380551    0.601511
    106          1           0        6.509124   -0.427538    0.783263
    107          1           0        7.340703   -0.954466   -1.355372
    108          1           0        8.147008    0.717587   -1.686364
    109          1           0        9.163593    0.758759    0.325936
    110          1           0        8.649620   -0.866161    0.776444
    111          1           0       10.437367    0.216122   -1.572648
    112          1           0        9.247491   -2.003087   -2.005856
    113          1           0       10.908242   -2.288577   -2.050715
    114          1           0       10.297879   -2.949804   -0.438327
    115          1           0       11.276355    0.780791    0.638643
    116          1           0       11.177858   -1.144284    1.105567
    117          1           0       12.647086   -1.515080   -1.035066
    118          1           0       12.714274    0.234507   -1.322043
    119          1           0       13.979059    0.921848    0.795558
    120          1           0       14.061166   -0.857138    1.086818
    121          1           0       15.296580    0.267133   -1.282028
    122          1           0       15.799838   -2.427991   -0.067999
    123          1           0       14.867001   -2.000659   -1.757649
    124          1           0       16.688119   -1.558832   -1.560143
    125          1           0       16.062138    1.399967    0.812255
    126          1           0       16.665783   -0.221261    1.391654
    127          1           0       18.396493   -0.233947   -0.777141
    128          1           0       17.698532    1.123175   -1.429367
    129          1           0       18.489910    2.439515    0.894308
    130          1           0       18.997486    1.081735    1.538870
    131          1           0       20.545450    0.363367   -0.080867
    132          1           0       19.827210    3.118327   -1.207585
    133          1           0       21.331281    2.232456   -1.627149
    134          1           0       19.623384    1.757621   -2.010276
    135          1           0       20.976983    1.656752    1.861375
    136          1           0       22.224296    1.936370    0.840984
    137          1           0       20.692552    3.094851    1.109135
 ---------------------------------------------------------------------

 SCF Done:  E(RCAM-B3LYP) =  -2932.61678113     A.U. after   15 cycles

 Excitation energies and oscillator strengths:

 Excited State   1:      Singlet-A      2.1700 eV  571.34 nm  f=0.1834  <S**2>=0.000
     240 -> 243        0.27463
     241 -> 242        0.64373
 This state for optimization and/or second-order correction.
 Total Energy, E(TD-HF/TD-KS) =  -2932.53703330
 Copying the excited state density for this state as the 1-particle RhoCI density.

 The electronic state is 1-A.
 Alpha  occ. eigenvalues --  -46.84193 -19.27189 -19.25382 -19.22512 -19.22496
 Alpha  occ. eigenvalues --  -19.20050 -14.41631 -14.39958 -14.39263 -14.38806
 Alpha  occ. eigenvalues --  -10.39661 -10.38659 -10.37326 -10.33950 -10.31865
 Alpha  occ. eigenvalues --  -10.31504 -10.30479 -10.30081 -10.29456 -10.29012
 Alpha  occ. eigenvalues --  -10.28932 -10.28931 -10.28458 -10.28404 -10.28347
 Alpha  occ. eigenvalues --  -10.28242 -10.28070 -10.27991 -10.27892 -10.27811
 Alpha  occ. eigenvalues --  -10.27765 -10.27625 -10.27569 -10.27392 -10.27282
 Alpha  occ. eigenvalues --  -10.27267 -10.27194 -10.27145 -10.27034 -10.27001
 Alpha  occ. eigenvalues --  -10.26958 -10.26926 -10.26861 -10.26857 -10.26745
 Alpha  occ. eigenvalues --  -10.26665 -10.26505 -10.26391 -10.26318 -10.26280
 Alpha  occ. eigenvalues --  -10.26267 -10.26267 -10.26159 -10.26108 -10.25902
 Alpha  occ. eigenvalues --  -10.25898 -10.25513 -10.25456 -10.25439 -10.25284
 Alpha  occ. eigenvalues --  -10.24767 -10.24721 -10.24689 -10.23201 -10.23100
 Alpha  occ. eigenvalues --   -3.13273  -1.87975  -1.87497  -1.87472  -1.20330
 Alpha  occ. eigenvalues --   -1.18571  -1.14053  -1.11112  -1.08747  -1.04908
 Alpha  occ. eigenvalues --   -1.03907  -1.03443  -1.00019  -0.92485  -0.91610
 Alpha  occ. eigenvalues --   -0.91126  -0.90864  -0.89884  -0.89847  -0.88845
 Alpha  occ. eigenvalues --   -0.88784  -0.88173  -0.87647  -0.87207  -0.86303
 Alpha  occ. eigenvalues --   -0.85116  -0.84411  -0.84007  -0.83103  -0.82767
 Alpha  occ. eigenvalues --   -0.81610  -0.80376  -0.80283  -0.79880  -0.78574
 Alpha  occ. eigenvalues --   -0.77936  -0.77171  -0.77093  -0.76906  -0.75356
 Alpha  occ. eigenvalues --   -0.75005  -0.74812  -0.74530  -0.74077  -0.71852
 Alpha  occ. eigenvalues --   -0.71303  -0.70374  -0.69178  -0.68379  -0.68000
 Alpha  occ. eigenvalues --   -0.67207  -0.67009  -0.65885  -0.64980  -0.64312
 Alpha  occ. eigenvalues --   -0.63940  -0.63376  -0.63293  -0.62344  -0.62222
 Alpha  occ. eigenvalues --   -0.61894  -0.61033  -0.60688  -0.60577  -0.59935
 Alpha  occ. eigenvalues --   -0.58851  -0.58454  -0.57825  -0.57310  -0.57156
 Alpha  occ. eigenvalues --   -0.56777  -0.55640  -0.55198  -0.55162  -0.54876
 Alpha  occ. eigenvalues --   -0.54680  -0.54379  -0.54230  -0.54063  -0.53748
 Alpha  occ. eigenvalues --   -0.53348  -0.53088  -0.52847  -0.52756  -0.51662
 Alpha  occ. eigenvalues --   -0.51555  -0.51325  -0.51232  -0.50801  -0.50708
 Alpha  occ. eigenvalues --   -0.50341  -0.50087  -0.50019  -0.49782  -0.49332
 Alpha  occ. eigenvalues --   -0.49183  -0.49018  -0.48909  -0.48581  -0.48402
 Alpha  occ. eigenvalues --   -0.48150  -0.47992  -0.47739  -0.47686  -0.47538
 Alpha  occ. eigenvalues --   -0.47136  -0.46904  -0.46450  -0.46077  -0.46001
 Alpha  occ. eigenvalues --   -0.45873  -0.45529  -0.45373  -0.45207  -0.45133
 Alpha  occ. eigenvalues --   -0.45055  -0.44617  -0.44374  -0.44216  -0.43736
 Alpha  occ. eigenvalues --   -0.43596  -0.43515  -0.43393  -0.43313  -0.43054
 Alpha  occ. eigenvalues --   -0.42944  -0.42655  -0.42640  -0.42310  -0.42172
 Alpha  occ. eigenvalues --   -0.42121  -0.41754  -0.41623  -0.41489  -0.41373
 Alpha  occ. eigenvalues --   -0.41231  -0.40980  -0.40618  -0.40497  -0.40326
 Alpha  occ. eigenvalues --   -0.39840  -0.39767  -0.39114  -0.39017  -0.38947
 Alpha  occ. eigenvalues --   -0.38837  -0.38434  -0.38178  -0.37807  -0.37619
 Alpha  occ. eigenvalues --   -0.37184  -0.36905  -0.36430  -0.36410  -0.36336
 Alpha  occ. eigenvalues --   -0.36189  -0.36131  -0.36057  -0.35925  -0.35781
 Alpha  occ. eigenvalues --   -0.35268  -0.35041  -0.34814  -0.34233  -0.33912
 Alpha  occ. eigenvalues --   -0.33651  -0.32833  -0.32244  -0.31510  -0.31209
 Alpha  occ. eigenvalues --   -0.30680  -0.30163  -0.28527  -0.26776  -0.23060
 Alpha  occ. eigenvalues --   -0.21031
 Alpha virt. eigenvalues --   -0.05362  -0.02843   0.02148   0.04038   0.04944
 Alpha virt. eigenvalues --    0.05352   0.06145   0.06445   0.06569   0.06928
 Alpha virt. eigenvalues --    0.08612   0.10427   0.10782   0.10849   0.11294

 Mulliken charges:
               1
     1  Mg   0.817558
     2  C   -0.026680
     3  C   -0.235404
     4  C   -0.162307
     5  C   -0.174898
     6  N   -0.644152
     7  C    0.353054
     8  C   -0.114416
     9  C   -0.140908
    10  C    0.309655
    11  C   -0.301460
    12  C   -0.171673
    13  C   -0.292675
    14  C    0.632667
    15  O   -0.507024
    16  O   -0.442311
    17  N   -0.707990
    18  C    0.354718
    19  C   -0.026249
    20  C    0.021279
    21  C    0.289236
    22  C   -0.362612
    23  C   -0.046556
    24  C   -0.260232
    25  N   -0.678300
    26  C    0.271098
    27  C    0.030662
    28  C    0.025271
    29  C    0.281390
    30  C   -0.372847
    31  C   -0.218988
    32  C   -0.274198
    33  N   -0.723438
    34  C    0.298350
    35  C   -0.020214
    36  C    0.024995
    37  C    0.291811
    38  C   -0.368758
    39  C    0.387869
    40  O   -0.409034
    41  C   -0.302878
    42  C    0.631261
    43  O   -0.437200
    44  O   -0.457823
    45  C   -0.077588
    46  C   -0.020284
    47  C   -0.104386
    48  C    0.163627
    49  C   -0.372188
    50  C   -0.235932
    51  C   -0.158739
    52  C   -0.161145
    53  C   -0.062720
    54  C   -0.311082
    55  C   -0.161299
    56  C   -0.184840
    57  C   -0.174753
    58  C   -0.065395
    59  C   -0.302739
    60  C   -0.163072
    61  C   -0.176352
    62  C   -0.151246
    63  C   -0.073978
    64  C   -0.286212
    65  C   -0.305142
    66  H    0.072947
    67  H    0.087339
    68  H    0.098158
    69  H    0.111047
    70  H    0.110549
    71  H    0.110531
    72  H    0.092964
    73  H    0.127000
    74  H    0.123071
    75  H    0.115260
    76  H    0.126280
    77  H    0.132625
    78  H    0.132644
    79  H    0.136123
    80  H    0.109297
    81  H    0.091750
    82  H    0.110312
    83  H    0.098285
    84  H    0.129377
    85  H    0.062220
    86  H    0.124101
    87  H    0.091884
    88  H    0.096247
    89  H    0.082806
    90  H    0.118766
    91  H    0.059413
    92  H    0.096469
    93  H    0.147044
    94  H    0.117329
    95  H    0.170751
    96  H    0.092445
    97  H    0.114892
    98  H    0.122524
    99  H    0.134475
   100  H    0.121775
   101  H    0.083490
   102  H    0.110614
   103  H    0.125933
   104  H    0.133022
   105  H    0.076548
   106  H    0.093855
   107  H    0.101394
   108  H    0.049261
   109  H    0.102410
   110  H    0.081813
   111  H    0.066615
   112  H    0.109567
   113  H    0.096470
   114  H    0.102746
   115  H    0.030926
   116  H    0.071734
   117  H    0.097946
   118  H    0.105175
   119  H    0.104262
   120  H    0.104411
   121  H    0.088952
   122  H    0.104230
   123  H    0.085696
   124  H    0.100940
   125  H    0.085708
   126  H    0.083412
   127  H    0.093479
   128  H    0.070143
   129  H    0.056347
   130  H    0.094148
   131  H    0.082660
   132  H    0.086451
   133  H    0.081816
   134  H    0.103733
   135  H    0.105290
   136  H    0.112126
   137  H    0.093793
 Sum of Mulliken charges =   0.00000

 Dipole moment (field-independent basis, Debye):
    X=              4.2723    Y=              3.8452    Z=              1.0164  Tot=              5.8371
 Quadrupole moment (field-independent basis, Debye-Ang):
   XX=           -373.4791   YY=           -389.7537   ZZ=           -399.2550
   XY=            -34.1066   XZ=              4.7743   YZ=              2.2993

 Normal termination of Gaussian 09 at Wed Jul  3 18:47:27 2019.
