 Gaussian 16, Revision A.03,
 Gaussian 16:  ES64L-G16RevA.03 25-Dec-2016

 ----------------------------------------------------------------------
 # td=(NStates=1) iop(3/107=0140000000,3/108=0140000000) CAM-B3LYP/6-31
 G(d,p)
 ----------------------------------------------------------------------

 --
 TD
 --
 Symbolic Z-matrix:
 Charge =  0 Multiplicity = 1

                         Standard orientation:
 ---------------------------------------------------------------------
 Center     Atomic      Atomic             Coordinates (Angstroms)
 Number     Number       Type             X           Y           Z
 ---------------------------------------------------------------------
      1         12           0       -7.065560    0.659583    0.147000
      2          6           0       -4.880490   -1.935256    0.589293
      3          6           0       -4.751825    2.789991    1.140362
      4          6           0       -9.388348    3.163663   -0.402969
      5          6           0       -9.515788   -1.543089   -0.879936
      6          7           0       -5.065262    0.385354    0.732686
      7          6           0       -4.341177   -0.807751    0.836857
      8          6           0       -2.832220   -0.521132    1.175223
      9          6           0       -3.002093    0.988797    1.603683
     10          6           0       -4.293109    1.432000    1.137815
     11          6           0       -2.728813    1.159222    3.099875
     12          6           0       -1.765055   -0.808992    0.048704
     13          6           0       -0.400524   -0.681857    0.691336
     14          6           0        0.673393   -0.884815   -0.482084
     15          8           0        0.257072   -1.334011   -1.505187
     16          8           0        1.898244   -0.390432   -0.155953
     17          7           0       -7.117811    2.626875    0.297060
     18          6           0       -6.039729    3.305225    0.804042
     19          6           0       -6.399707    4.712661    0.885738
     20          6           0       -7.608501    4.885203    0.288319
     21          6           0       -8.062357    3.455835    0.043005
     22          6           0       -5.454935    5.838014    1.339388
     23          6           0       -8.462391    6.163131    0.166492
     24          6           0       -8.428838    7.287029    0.805794
     25          7           0       -9.077486    0.784730   -0.572542
     26          6           0       -9.828093    1.925561   -0.738932
     27          6           0      -11.149878    1.490072   -1.105542
     28          6           0      -11.280244    0.186015   -1.285281
     29          6           0       -9.855169   -0.161692   -0.912614
     30          6           0      -12.211621    2.575611   -1.362031
     31          6           0      -12.314799   -0.773933   -1.768398
     32          6           0      -12.075514   -1.192753   -3.140326
     33          7           0       -7.216499   -1.396193   -0.143346
     34          6           0       -8.200937   -2.162627   -0.651692
     35          6           0       -7.840104   -3.560020   -0.668987
     36          6           0       -6.499994   -3.542461   -0.188632
     37          6           0       -6.188550   -2.180767    0.195811
     38          6           0       -8.859542   -4.748191   -0.972422
     39          6           0       -5.403372   -4.414308    0.132728
     40          8           0       -5.291935   -5.600993    0.044557
     41          6           0       -4.190511   -3.334269    0.544262
     42          6           0       -3.673221   -3.712161    1.946364
     43          8           0       -3.979200   -3.191085    3.013176
     44          8           0       -2.891136   -4.800035    1.896121
     45          6           0       -2.513943   -5.387079    3.095080
     46          6           0        2.834297   -0.602497   -1.311629
     47          6           0        4.074616   -0.455469   -0.664195
     48          6           0        5.073029    0.396969   -1.046609
     49          6           0        5.048812    1.063498   -2.365137
     50          6           0        6.302191    0.542714   -0.169724
     51          6           0        7.487767    0.099552   -0.882481
     52          6           0        8.843347    0.155963   -0.081342
     53          6           0       10.094412   -0.243287   -0.900354
     54          6           0       10.004545   -1.633229   -1.423638
     55          6           0       11.350692   -0.197264   -0.083049
     56          6           0       12.752820   -0.417834   -0.817399
     57          6           0       13.929117   -0.016172    0.122950
     58          6           0       15.271861   -0.194985   -0.572412
     59          6           0       15.570289   -1.660034   -1.045212
     60          6           0       16.410097    0.488353    0.309061
     61          6           0       17.783916    0.426795   -0.163989
     62          6           0       18.868609    1.120935    0.721239
     63          6           0       20.338983    1.094385    0.249793
     64          6           0       20.544057    2.109431   -0.820149
     65          6           0       21.067606    1.662262    1.491574
     66          1           0       -3.949933    3.303664    1.465852
     67          1           0      -10.050706    4.100582   -0.395079
     68          1           0      -10.278059   -2.164492   -1.130332
     69          1           0       -2.436520   -1.243249    2.024480
     70          1           0       -2.190774    1.801089    0.911555
     71          1           0       -1.763310    0.642087    3.395269
     72          1           0       -3.021754    2.259762    3.424910
     73          1           0       -3.464341    0.511670    3.565232
     74          1           0       -2.026170   -1.977144   -0.417235
     75          1           0       -1.889105   -0.106084   -0.798408
     76          1           0       -0.290527    0.361603    0.781445
     77          1           0       -0.252867   -1.409445    1.408132
     78          1           0       -5.943389    6.740871    0.909146
     79          1           0       -5.364268    6.002300    2.353207
     80          1           0       -4.387232    5.718261    1.014537
     81          1           0       -9.225852    5.914211   -0.549745
     82          1           0       -9.004135    8.095851    0.687901
     83          1           0       -7.607581    7.416689    1.529924
     84          1           0      -11.708418    3.405188   -2.012827
     85          1           0      -13.143193    2.273122   -1.842222
     86          1           0      -12.243572    3.253738   -0.374977
     87          1           0      -12.398255   -1.625388   -1.071720
     88          1           0      -13.271288   -0.372221   -1.483801
     89          1           0      -13.153734   -1.674154   -3.459638
     90          1           0      -12.108820   -0.436745   -3.902219
     91          1           0      -11.321555   -2.014153   -3.314018
     92          1           0       -9.104402   -4.574096   -1.949820
     93          1           0       -8.337008   -5.632699   -1.046366
     94          1           0       -9.548793   -4.790367   -0.146201
     95          1           0       -3.270449   -3.200162   -0.185590
     96          1           0       -1.782204   -4.687835    3.688882
     97          1           0       -3.354335   -5.988269    3.492766
     98          1           0       -1.828597   -6.262161    2.741079
     99          1           0        2.734282   -1.620866   -1.474740
    100          1           0        2.829482    0.035314   -2.342437
    101          1           0        4.400694   -0.983239    0.134627
    102          1           0        3.839665    1.119874   -2.604129
    103          1           0        5.139653    2.176093   -2.138522
    104          1           0        5.427806    0.617852   -3.156635
    105          1           0        6.618653    1.750235   -0.149309
    106          1           0        6.219926    0.226702    0.872952
    107          1           0        7.409842   -0.935313   -1.217040
    108          1           0        7.605169    0.488510   -1.792765
    109          1           0        9.064544    1.186359    0.156181
    110          1           0        8.990521   -0.431653    0.848972
    111          1           0       10.236391    0.351171   -1.754662
    112          1           0        9.127530   -1.769070   -2.162269
    113          1           0       10.963782   -2.008598   -1.956150
    114          1           0        9.748272   -2.416863   -0.546982
    115          1           0       11.370758    0.697397    0.566482
    116          1           0       11.093677   -0.981167    0.534922
    117          1           0       12.872361   -1.519807   -0.973208
    118          1           0       12.517199    0.220331   -1.549762
    119          1           0       13.684633    0.992059    0.621576
    120          1           0       13.885645   -0.754520    1.069035
    121          1           0       15.292433    0.490169   -1.509358
    122          1           0       15.696384   -2.181732   -0.053620
    123          1           0       14.671787   -1.776257   -1.720334
    124          1           0       16.490231   -1.702112   -1.527003
    125          1           0       16.077650    1.616409    0.459170
    126          1           0       16.409241   -0.123723    1.311260
    127          1           0       18.120540   -0.748089   -0.293092
    128          1           0       17.914086    0.961941   -1.191502
    129          1           0       18.503175    2.212273    0.915978
    130          1           0       18.902146    0.618719    1.721791
    131          1           0       21.017905    0.017583    0.026029
    132          1           0       20.441829    3.112938   -0.416402
    133          1           0       21.593487    1.916319   -1.263900
    134          1           0       19.899987    1.867265   -1.599169
    135          1           0       20.972048    0.667882    2.104419
    136          1           0       22.185064    1.655718    1.238728
    137          1           0       20.636032    2.654189    1.848280
 ---------------------------------------------------------------------

 SCF Done:  E(RCAM-B3LYP) =  -2933.43646093     A.U. after   16 cycles

 Excitation energies and oscillator strengths:

 Excited State   1:      Singlet-A      1.9657 eV  630.75 nm  f=0.2796  <S**2>=0.000
     240 -> 243        0.18995
     241 -> 242        0.68022
 This state for optimization and/or second-order correction.
 Total Energy, E(TD-HF/TD-DFT) =  -2933.36422456
 Copying the excited state density for this state as the 1-particle RhoCI density.

 The electronic state is 1-A.
 Alpha  occ. eigenvalues --  -46.80580 -19.22977 -19.21168 -19.16968 -19.15903
 Alpha  occ. eigenvalues --  -19.15447 -14.37407 -14.35759 -14.34833 -14.34596
 Alpha  occ. eigenvalues --  -10.34232 -10.33582 -10.30042 -10.27471 -10.27413
 Alpha  occ. eigenvalues --  -10.26289 -10.26010 -10.25410 -10.25268 -10.24477
 Alpha  occ. eigenvalues --  -10.24400 -10.24280 -10.24207 -10.24068 -10.23909
 Alpha  occ. eigenvalues --  -10.23622 -10.23347 -10.23338 -10.23184 -10.23008
 Alpha  occ. eigenvalues --  -10.22944 -10.22942 -10.22814 -10.22761 -10.22647
 Alpha  occ. eigenvalues --  -10.22546 -10.22507 -10.22414 -10.22410 -10.22354
 Alpha  occ. eigenvalues --  -10.22333 -10.22268 -10.22222 -10.22121 -10.21920
 Alpha  occ. eigenvalues --  -10.21844 -10.21734 -10.21725 -10.21694 -10.21595
 Alpha  occ. eigenvalues --  -10.21363 -10.21329 -10.21329 -10.21319 -10.20950
 Alpha  occ. eigenvalues --  -10.20826 -10.20794 -10.20732 -10.20502 -10.20501
 Alpha  occ. eigenvalues --  -10.20469 -10.20364 -10.20202 -10.19502 -10.19448
 Alpha  occ. eigenvalues --   -3.09131  -1.84079  -1.83592  -1.83544  -1.13058
 Alpha  occ. eigenvalues --   -1.12801  -1.06629  -1.05611  -1.03031  -1.01013
 Alpha  occ. eigenvalues --   -1.00115  -0.98924  -0.97745  -0.87553  -0.86850
 Alpha  occ. eigenvalues --   -0.86030  -0.84860  -0.84838  -0.84197  -0.83906
 Alpha  occ. eigenvalues --   -0.83432  -0.83283  -0.82478  -0.81882  -0.80869
 Alpha  occ. eigenvalues --   -0.80265  -0.79242  -0.78863  -0.78797  -0.77833
 Alpha  occ. eigenvalues --   -0.77215  -0.76427  -0.75893  -0.75399  -0.73430
 Alpha  occ. eigenvalues --   -0.72822  -0.72025  -0.71760  -0.71068  -0.70858
 Alpha  occ. eigenvalues --   -0.70177  -0.70012  -0.69345  -0.68967  -0.68421
 Alpha  occ. eigenvalues --   -0.67048  -0.66132  -0.65234  -0.64376  -0.63719
 Alpha  occ. eigenvalues --   -0.63287  -0.62417  -0.60747  -0.60397  -0.59680
 Alpha  occ. eigenvalues --   -0.59466  -0.59032  -0.58875  -0.57430  -0.56789
 Alpha  occ. eigenvalues --   -0.56405  -0.56264  -0.56170  -0.55776  -0.55280
 Alpha  occ. eigenvalues --   -0.54720  -0.53879  -0.53538  -0.53145  -0.52615
 Alpha  occ. eigenvalues --   -0.52355  -0.51799  -0.51750  -0.51426  -0.50914
 Alpha  occ. eigenvalues --   -0.50523  -0.50159  -0.49933  -0.49798  -0.49395
 Alpha  occ. eigenvalues --   -0.49275  -0.49052  -0.48901  -0.48871  -0.48662
 Alpha  occ. eigenvalues --   -0.47917  -0.47783  -0.47671  -0.47578  -0.47071
 Alpha  occ. eigenvalues --   -0.46797  -0.46703  -0.46665  -0.46428  -0.46142
 Alpha  occ. eigenvalues --   -0.45845  -0.45577  -0.45394  -0.45208  -0.45006
 Alpha  occ. eigenvalues --   -0.44685  -0.44550  -0.44333  -0.44120  -0.43711
 Alpha  occ. eigenvalues --   -0.43682  -0.43564  -0.43285  -0.43061  -0.42871
 Alpha  occ. eigenvalues --   -0.42510  -0.42297  -0.42082  -0.41973  -0.41825
 Alpha  occ. eigenvalues --   -0.41642  -0.41451  -0.41381  -0.41192  -0.40872
 Alpha  occ. eigenvalues --   -0.40690  -0.40433  -0.40166  -0.40125  -0.39766
 Alpha  occ. eigenvalues --   -0.39513  -0.39213  -0.38948  -0.38832  -0.38735
 Alpha  occ. eigenvalues --   -0.38530  -0.38383  -0.38377  -0.38221  -0.37805
 Alpha  occ. eigenvalues --   -0.37354  -0.37225  -0.36982  -0.36718  -0.36346
 Alpha  occ. eigenvalues --   -0.36202  -0.36147  -0.35964  -0.35852  -0.35759
 Alpha  occ. eigenvalues --   -0.35058  -0.35052  -0.34852  -0.34616  -0.34343
 Alpha  occ. eigenvalues --   -0.33829  -0.33707  -0.33623  -0.33594  -0.33393
 Alpha  occ. eigenvalues --   -0.33322  -0.32850  -0.32826  -0.32678  -0.32550
 Alpha  occ. eigenvalues --   -0.32447  -0.32218  -0.31964  -0.30394  -0.30355
 Alpha  occ. eigenvalues --   -0.29872  -0.29549  -0.28942  -0.28587  -0.26814
 Alpha  occ. eigenvalues --   -0.26389  -0.26336  -0.26248  -0.26197  -0.21647
 Alpha  occ. eigenvalues --   -0.19309
 Alpha virt. eigenvalues --   -0.07022  -0.02580   0.00439   0.02373   0.02921
 Alpha virt. eigenvalues --    0.04522   0.04705   0.04931   0.05326   0.05523
 Alpha virt. eigenvalues --    0.06643   0.08748   0.08956   0.09203   0.09229

 Mulliken charges:
               1
     1  Mg   0.823108
     2  C    0.110869
     3  C   -0.160354
     4  C   -0.210738
     5  C   -0.160566
     6  N   -0.662418
     7  C    0.290338
     8  C   -0.132717
     9  C   -0.147758
    10  C    0.368707
    11  C   -0.304640
    12  C   -0.153030
    13  C   -0.246403
    14  C    0.573900
    15  O   -0.435174
    16  O   -0.467338
    17  N   -0.721029
    18  C    0.314776
    19  C    0.003228
    20  C   -0.025061
    21  C    0.320213
    22  C   -0.379074
    23  C   -0.027773
    24  C   -0.243190
    25  N   -0.652588
    26  C    0.336081
    27  C   -0.004357
    28  C    0.083471
    29  C    0.292633
    30  C   -0.381607
    31  C   -0.245483
    32  C   -0.297477
    33  N   -0.694296
    34  C    0.263037
    35  C   -0.035973
    36  C   -0.002009
    37  C    0.278431
    38  C   -0.354439
    39  C    0.361200
    40  O   -0.441117
    41  C   -0.349242
    42  C    0.600732
    43  O   -0.481110
    44  O   -0.415417
    45  C   -0.082882
    46  C   -0.008894
    47  C   -0.067974
    48  C    0.100647
    49  C   -0.365208
    50  C   -0.211119
    51  C   -0.171752
    52  C   -0.171430
    53  C   -0.077398
    54  C   -0.295604
    55  C   -0.188661
    56  C   -0.177253
    57  C   -0.160986
    58  C   -0.064914
    59  C   -0.308029
    60  C   -0.148131
    61  C   -0.160019
    62  C   -0.150977
    63  C   -0.061559
    64  C   -0.281073
    65  C   -0.286294
    66  H    0.057971
    67  H    0.084949
    68  H    0.056233
    69  H    0.103281
    70  H    0.045331
    71  H    0.118017
    72  H    0.099125
    73  H    0.138099
    74  H    0.080745
    75  H    0.113157
    76  H    0.142241
    77  H    0.134144
    78  H    0.112654
    79  H    0.130396
    80  H    0.111247
    81  H    0.076973
    82  H    0.108861
    83  H    0.093985
    84  H    0.106575
    85  H    0.112239
    86  H    0.103139
    87  H    0.118314
    88  H    0.113226
    89  H    0.070447
    90  H    0.128573
    91  H    0.122050
    92  H    0.131920
    93  H    0.143677
    94  H    0.136883
    95  H    0.135643
    96  H    0.114782
    97  H    0.135405
    98  H    0.104342
    99  H    0.138468
   100  H    0.113531
   101  H    0.079350
   102  H    0.076963
   103  H    0.118047
   104  H    0.145434
   105  H    0.064559
   106  H    0.106039
   107  H    0.091957
   108  H    0.111877
   109  H    0.092277
   110  H    0.087987
   111  H    0.081692
   112  H    0.084526
   113  H    0.094584
   114  H    0.074435
   115  H    0.073770
   116  H    0.092968
   117  H    0.110875
   118  H    0.109468
   119  H    0.086312
   120  H    0.068995
   121  H    0.067394
   122  H    0.099375
   123  H    0.109330
   124  H    0.119685
   125  H    0.072404
   126  H    0.069184
   127  H    0.063689
   128  H    0.073879
   129  H    0.078747
   130  H    0.083628
   131  H    0.057562
   132  H    0.100987
   133  H    0.083607
   134  H    0.104761
   135  H    0.088844
   136  H    0.086371
   137  H    0.102974
 Sum of Mulliken charges =  -0.00000

 Dipole moment (field-independent basis, Debye):
    X=              1.7269    Y=              4.4185    Z=             -0.6208  Tot=              4.7844
 Quadrupole moment (field-independent basis, Debye-Ang):
   XX=           -347.1121   YY=           -397.5122   ZZ=           -398.1991
   XY=            -18.7137   XZ=              5.8026   YZ=             -1.2563

 Normal termination of Gaussian 16 at Thu Sep 12 23:25:15 2019.
