 Gaussian 09, Revision D.01,
 Gaussian 09:  ES64L-G09RevD.01 24-Apr-2013

 -------------------------------------
 # td=(NStates=1) CAM-B3LYP/6-31G(d,p)
 -------------------------------------

 --
 TD
 --
 Symbolic Z-matrix:
 Charge =  0 Multiplicity = 1

                         Standard orientation:
 ---------------------------------------------------------------------
 Center     Atomic      Atomic             Coordinates (Angstroms)
 Number     Number       Type             X           Y           Z
 ---------------------------------------------------------------------
      1         12           0       -7.035479    0.639046   -0.019924
      2          6           0       -4.796084   -2.020594    0.528928
      3          6           0       -4.851832    2.876004    1.111026
      4          6           0       -9.513627    3.070435   -0.317425
      5          6           0       -9.470729   -1.859066   -0.856323
      6          7           0       -5.148885    0.428268    0.676936
      7          6           0       -4.338970   -0.713532    0.765480
      8          6           0       -2.944988   -0.341532    1.244931
      9          6           0       -2.970604    1.063636    1.702364
     10          6           0       -4.449328    1.535417    1.145036
     11          6           0       -2.944250    1.416223    3.234082
     12          6           0       -1.876169   -0.622558    0.184931
     13          6           0       -0.399620   -0.341472    0.663244
     14          6           0        0.528201   -0.681915   -0.348438
     15          8           0        0.329720   -1.293300   -1.487845
     16          8           0        1.881122   -0.411411   -0.022485
     17          7           0       -7.171151    2.603146    0.307073
     18          6           0       -6.134293    3.366508    0.774672
     19          6           0       -6.503750    4.736047    0.789655
     20          6           0       -7.802981    4.846435    0.355633
     21          6           0       -8.224630    3.443477   -0.000918
     22          6           0       -5.619383    5.932533    1.192563
     23          6           0       -8.710760    5.938153    0.096965
     24          6           0       -8.569341    7.259405    0.565979
     25          7           0       -9.047838    0.634429   -0.474974
     26          6           0       -9.918733    1.731801   -0.635225
     27          6           0      -11.258703    1.390833   -1.138465
     28          6           0      -11.190631   -0.022360   -1.285608
     29          6           0       -9.895895   -0.447115   -0.870312
     30          6           0      -12.380133    2.346004   -1.400319
     31          6           0      -12.309766   -0.881825   -1.892471
     32          6           0      -12.185824   -0.965973   -3.346175
     33          7           0       -7.231539   -1.361404   -0.296596
     34          6           0       -8.175239   -2.313407   -0.645231
     35          6           0       -7.825009   -3.673860   -0.562813
     36          6           0       -6.490667   -3.510554   -0.142935
     37          6           0       -6.149153   -2.170985    0.021552
     38          6           0       -8.498298   -4.873861   -0.829157
     39          6           0       -5.211001   -4.319902    0.145066
     40          8           0       -5.069287   -5.540494    0.059962
     41          6           0       -4.156982   -3.351172    0.662207
     42          6           0       -3.468534   -3.658776    2.009631
     43          8           0       -3.717681   -3.145863    3.014155
     44          8           0       -2.630371   -4.641929    1.795653
     45          6           0       -2.044554   -5.172205    3.024599
     46          6           0        2.847719   -0.799390   -1.084411
     47          6           0        4.186385   -0.476232   -0.474360
     48          6           0        5.143083    0.320666   -0.967070
     49          6           0        5.005882    1.177708   -2.206351
     50          6           0        6.367137    0.405048   -0.128211
     51          6           0        7.585684   -0.053161   -0.908551
     52          6           0        8.885462   -0.017070   -0.039473
     53          6           0       10.096579   -0.533362   -0.794878
     54          6           0       10.127687   -1.997688   -1.196304
     55          6           0       11.347007   -0.268263   -0.051362
     56          6           0       12.712400   -0.597235   -0.684320
     57          6           0       13.953015   -0.116788    0.240342
     58          6           0       15.356391   -0.188374   -0.504000
     59          6           0       15.734564   -1.596181   -1.008685
     60          6           0       16.460325    0.343958    0.497240
     61          6           0       17.823045    0.540159   -0.241104
     62          6           0       18.735128    1.385613    0.605001
     63          6           0       20.252883    1.389475    0.109523
     64          6           0       20.335147    2.115697   -1.198591
     65          6           0       21.078662    2.062151    1.120473
     66          1           0       -4.207698    3.654072    1.644715
     67          1           0      -10.209959    3.978556   -0.508761
     68          1           0      -10.287063   -2.506809   -1.339609
     69          1           0       -2.463925   -0.959617    2.099741
     70          1           0       -2.429241    1.725970    0.998354
     71          1           0       -1.934996    1.133658    3.578082
     72          1           0       -3.194625    2.636183    3.639560
     73          1           0       -3.641810    0.830646    3.659815
     74          1           0       -1.853602   -1.584473   -0.093167
     75          1           0       -2.136166    0.084679   -0.739301
     76          1           0       -0.369408    0.837188    1.007722
     77          1           0       -0.525307   -0.893668    1.678050
     78          1           0       -5.831048    6.768888    0.348424
     79          1           0       -5.845853    6.336265    2.185988
     80          1           0       -4.577438    5.688264    1.353960
     81          1           0       -9.434373    5.787469   -0.806347
     82          1           0       -9.447780    7.955501    0.233926
     83          1           0       -7.900345    7.562677    1.325990
     84          1           0      -12.289363    2.929031   -2.284559
     85          1           0      -13.338286    1.797360   -1.354864
     86          1           0      -12.641360    3.134005   -0.524307
     87          1           0      -12.189336   -1.844320   -1.471623
     88          1           0      -13.169904   -0.545104   -1.540942
     89          1           0      -13.067441   -1.610362   -3.994961
     90          1           0      -12.328371    0.054985   -3.696757
     91          1           0      -11.270361   -1.328811   -3.907197
     92          1           0       -8.931235   -4.993985   -1.889402
     93          1           0       -7.752985   -5.637694   -0.733830
     94          1           0       -9.356343   -4.919084   -0.232931
     95          1           0       -3.302545   -3.364486   -0.180666
     96          1           0       -1.728653   -4.234393    3.865832
     97          1           0       -2.888059   -5.747761    3.361538
     98          1           0       -1.128547   -5.847346    2.797224
     99          1           0        2.502897   -1.980169   -1.244367
    100          1           0        2.492033   -0.242472   -1.960966
    101          1           0        4.470054   -0.979015    0.503301
    102          1           0        4.030138    0.977502   -2.847889
    103          1           0        5.318727    2.385680   -1.952632
    104          1           0        5.696739    0.786461   -3.024942
    105          1           0        6.523732    1.406629    0.281488
    106          1           0        6.067699   -0.141487    0.821151
    107          1           0        7.251839   -1.181227   -1.014698
    108          1           0        7.687582    0.420814   -1.778449
    109          1           0        9.114409    1.135706    0.275653
    110          1           0        8.699131   -0.629596    0.859191
    111          1           0       10.259941   -0.021392   -1.596441
    112          1           0        9.367902   -2.226475   -1.872671
    113          1           0       11.027888   -2.302596   -1.531628
    114          1           0        9.980255   -2.449085   -0.202513
    115          1           0       11.655149    0.724249    0.248396
    116          1           0       11.294306   -0.976787    0.708811
    117          1           0       12.552791   -1.612375   -1.001619
    118          1           0       12.727252   -0.033842   -1.669364
    119          1           0       13.705026    0.876400    0.530106
    120          1           0       13.915890   -0.429598    1.269682
    121          1           0       15.220453    0.519293   -1.224018
    122          1           0       15.747579   -2.137978   -0.179110
    123          1           0       15.064622   -2.167695   -1.616081
    124          1           0       16.602730   -1.556069   -1.639157
    125          1           0       16.114619    1.116935    0.922076
    126          1           0       16.560493   -0.300169    1.240279
    127          1           0       18.255723   -0.443486   -0.287739
    128          1           0       17.582949    0.999707   -1.272511
    129          1           0       18.459838    2.350387    0.547655
    130          1           0       18.563553    0.916695    1.662979
    131          1           0       20.572547    0.404229   -0.073418
    132          1           0       20.066590    3.154172   -1.132605
    133          1           0       21.409787    2.228160   -1.631166
    134          1           0       19.634623    1.665406   -2.001993
    135          1           0       21.253527    1.475302    1.894817
    136          1           0       22.085123    2.040998    0.586428
    137          1           0       20.719368    3.171787    1.610953
 ---------------------------------------------------------------------

 SCF Done:  E(RCAM-B3LYP) =  -2932.61354880     A.U. after   18 cycles

 Excitation energies and oscillator strengths:

 Excited State   1:      Singlet-A      2.0576 eV  602.56 nm  f=0.2075  <S**2>=0.000
     240 -> 243       -0.26353
     241 -> 242        0.64463
 This state for optimization and/or second-order correction.
 Total Energy, E(TD-HF/TD-KS) =  -2932.53793226
 Copying the excited state density for this state as the 1-particle RhoCI density.

 The electronic state is 1-A.
 Alpha  occ. eigenvalues --  -46.83147 -19.27167 -19.25128 -19.21661 -19.21109
 Alpha  occ. eigenvalues --  -19.20289 -14.42021 -14.39306 -14.39300 -14.39289
 Alpha  occ. eigenvalues --  -10.40253 -10.39443 -10.35371 -10.33968 -10.32413
 Alpha  occ. eigenvalues --  -10.31911 -10.31422 -10.30226 -10.30192 -10.29155
 Alpha  occ. eigenvalues --  -10.29113 -10.29074 -10.28948 -10.28896 -10.28814
 Alpha  occ. eigenvalues --  -10.28785 -10.28694 -10.28609 -10.28384 -10.28314
 Alpha  occ. eigenvalues --  -10.27794 -10.27793 -10.27652 -10.27439 -10.27354
 Alpha  occ. eigenvalues --  -10.27296 -10.27277 -10.27232 -10.27157 -10.27033
 Alpha  occ. eigenvalues --  -10.26920 -10.26526 -10.26472 -10.26370 -10.26367
 Alpha  occ. eigenvalues --  -10.26360 -10.26165 -10.25621 -10.25472 -10.25215
 Alpha  occ. eigenvalues --  -10.25207 -10.25102 -10.25032 -10.25014 -10.24952
 Alpha  occ. eigenvalues --  -10.24913 -10.24767 -10.24662 -10.24556 -10.24239
 Alpha  occ. eigenvalues --  -10.23428 -10.22910 -10.22669 -10.22532 -10.22048
 Alpha  occ. eigenvalues --   -3.12414  -1.87094  -1.86651  -1.86627  -1.21120
 Alpha  occ. eigenvalues --   -1.14152  -1.12363  -1.10031  -1.04756  -1.03681
 Alpha  occ. eigenvalues --   -1.03149  -1.02056  -0.99918  -0.92547  -0.92007
 Alpha  occ. eigenvalues --   -0.91245  -0.90769  -0.90294  -0.89014  -0.88614
 Alpha  occ. eigenvalues --   -0.88527  -0.88350  -0.87660  -0.86540  -0.85880
 Alpha  occ. eigenvalues --   -0.84868  -0.84057  -0.83396  -0.83189  -0.82152
 Alpha  occ. eigenvalues --   -0.81258  -0.80921  -0.80489  -0.79570  -0.78167
 Alpha  occ. eigenvalues --   -0.77516  -0.76788  -0.76455  -0.76363  -0.76222
 Alpha  occ. eigenvalues --   -0.75514  -0.74887  -0.74754  -0.73448  -0.72293
 Alpha  occ. eigenvalues --   -0.71576  -0.70645  -0.69600  -0.68556  -0.67934
 Alpha  occ. eigenvalues --   -0.66593  -0.66459  -0.65391  -0.64982  -0.64823
 Alpha  occ. eigenvalues --   -0.64001  -0.63781  -0.63398  -0.63349  -0.62200
 Alpha  occ. eigenvalues --   -0.61524  -0.60326  -0.60172  -0.59460  -0.58910
 Alpha  occ. eigenvalues --   -0.58503  -0.57720  -0.57425  -0.57163  -0.56717
 Alpha  occ. eigenvalues --   -0.56113  -0.55974  -0.55584  -0.55055  -0.54584
 Alpha  occ. eigenvalues --   -0.54408  -0.54287  -0.54008  -0.53897  -0.53341
 Alpha  occ. eigenvalues --   -0.52725  -0.52510  -0.52360  -0.51899  -0.51506
 Alpha  occ. eigenvalues --   -0.51280  -0.51251  -0.51013  -0.50789  -0.50700
 Alpha  occ. eigenvalues --   -0.50478  -0.50240  -0.49800  -0.49686  -0.49518
 Alpha  occ. eigenvalues --   -0.49055  -0.48890  -0.48680  -0.48259  -0.48022
 Alpha  occ. eigenvalues --   -0.47953  -0.47678  -0.47546  -0.47482  -0.47083
 Alpha  occ. eigenvalues --   -0.46976  -0.46653  -0.46376  -0.46062  -0.46016
 Alpha  occ. eigenvalues --   -0.45547  -0.45325  -0.45069  -0.44847  -0.44707
 Alpha  occ. eigenvalues --   -0.44445  -0.44436  -0.44245  -0.44074  -0.43771
 Alpha  occ. eigenvalues --   -0.43662  -0.43581  -0.43306  -0.43077  -0.42994
 Alpha  occ. eigenvalues --   -0.42585  -0.42477  -0.42383  -0.42095  -0.42049
 Alpha  occ. eigenvalues --   -0.41986  -0.41794  -0.41586  -0.41502  -0.41275
 Alpha  occ. eigenvalues --   -0.41155  -0.41033  -0.40931  -0.40482  -0.40269
 Alpha  occ. eigenvalues --   -0.40094  -0.39824  -0.39627  -0.39348  -0.39045
 Alpha  occ. eigenvalues --   -0.38902  -0.38524  -0.38493  -0.38346  -0.38188
 Alpha  occ. eigenvalues --   -0.37391  -0.37309  -0.37242  -0.37175  -0.36915
 Alpha  occ. eigenvalues --   -0.36881  -0.36717  -0.36430  -0.35686  -0.35441
 Alpha  occ. eigenvalues --   -0.35425  -0.34973  -0.34653  -0.34552  -0.33680
 Alpha  occ. eigenvalues --   -0.33457  -0.32552  -0.32011  -0.30424  -0.29880
 Alpha  occ. eigenvalues --   -0.29610  -0.28987  -0.27691  -0.27307  -0.23008
 Alpha  occ. eigenvalues --   -0.21325
 Alpha virt. eigenvalues --   -0.06275  -0.03557   0.01616   0.02072   0.03397
 Alpha virt. eigenvalues --    0.05674   0.05890   0.06005   0.07470   0.07751
 Alpha virt. eigenvalues --    0.08466   0.10308   0.10680   0.11135   0.11895

 Mulliken charges:
               1
     1  Mg   0.816024
     2  C    0.052268
     3  C   -0.204843
     4  C   -0.156348
     5  C   -0.177364
     6  N   -0.662810
     7  C    0.317415
     8  C   -0.175067
     9  C   -0.135770
    10  C    0.286815
    11  C   -0.286277
    12  C   -0.162254
    13  C   -0.281201
    14  C    0.640557
    15  O   -0.511991
    16  O   -0.509760
    17  N   -0.721207
    18  C    0.341747
    19  C    0.003774
    20  C    0.050302
    21  C    0.271644
    22  C   -0.369791
    23  C   -0.115164
    24  C   -0.246063
    25  N   -0.648128
    26  C    0.250775
    27  C    0.053094
    28  C   -0.030033
    29  C    0.265893
    30  C   -0.383693
    31  C   -0.202022
    32  C   -0.294108
    33  N   -0.707900
    34  C    0.239050
    35  C    0.113965
    36  C   -0.075265
    37  C    0.318917
    38  C   -0.401323
    39  C    0.383077
    40  O   -0.470854
    41  C   -0.315646
    42  C    0.620497
    43  O   -0.432411
    44  O   -0.433071
    45  C   -0.093720
    46  C    0.020466
    47  C   -0.130764
    48  C    0.155253
    49  C   -0.358763
    50  C   -0.237501
    51  C   -0.165298
    52  C   -0.159891
    53  C   -0.055336
    54  C   -0.318290
    55  C   -0.178084
    56  C   -0.196487
    57  C   -0.209904
    58  C   -0.066354
    59  C   -0.310166
    60  C   -0.176144
    61  C   -0.184469
    62  C   -0.159579
    63  C   -0.060502
    64  C   -0.309459
    65  C   -0.280412
    66  H    0.079830
    67  H    0.091079
    68  H    0.095525
    69  H    0.102518
    70  H    0.119525
    71  H    0.106713
    72  H    0.082227
    73  H    0.147645
    74  H    0.134720
    75  H    0.098344
    76  H    0.134916
    77  H    0.142952
    78  H    0.116173
    79  H    0.124665
    80  H    0.112159
    81  H    0.106114
    82  H    0.098363
    83  H    0.117369
    84  H    0.134447
    85  H    0.116173
    86  H    0.100084
    87  H    0.102200
    88  H    0.116267
    89  H    0.059788
    90  H    0.111797
    91  H    0.116164
    92  H    0.117623
    93  H    0.158270
    94  H    0.137273
    95  H    0.162441
    96  H    0.113493
    97  H    0.151598
    98  H    0.131081
    99  H    0.118321
   100  H    0.130351
   101  H    0.091308
   102  H    0.106293
   103  H    0.099274
   104  H    0.118310
   105  H    0.095344
   106  H    0.093251
   107  H    0.088418
   108  H    0.108657
   109  H    0.071490
   110  H    0.090256
   111  H    0.085881
   112  H    0.107285
   113  H    0.114460
   114  H    0.093022
   115  H    0.080643
   116  H    0.086450
   117  H    0.091190
   118  H    0.073093
   119  H    0.092376
   120  H    0.088244
   121  H    0.092457
   122  H    0.112908
   123  H    0.098671
   124  H    0.105726
   125  H    0.091361
   126  H    0.096940
   127  H    0.101059
   128  H    0.081387
   129  H    0.100118
   130  H    0.071304
   131  H    0.094235
   132  H    0.105181
   133  H    0.084891
   134  H    0.091008
   135  H    0.113637
   136  H    0.082187
   137  H    0.073434
 Sum of Mulliken charges =   0.00000

 Dipole moment (field-independent basis, Debye):
    X=              1.6080    Y=              4.0117    Z=              1.0591  Tot=              4.4498
 Quadrupole moment (field-independent basis, Debye-Ang):
   XX=           -355.3770   YY=           -389.5836   ZZ=           -393.1147
   XY=            -22.6242   XZ=             12.6028   YZ=             -4.6542

 Normal termination of Gaussian 09 at Sat Jul  6 09:44:57 2019.
