 Gaussian 09, Revision D.01,
 Gaussian 09:  ES64L-G09RevD.01 24-Apr-2013

 -------------------------------------
 # td=(NStates=1) CAM-B3LYP/6-31G(d,p)
 -------------------------------------

 --
 TD
 --
 Symbolic Z-matrix:
 Charge =  0 Multiplicity = 1

                         Standard orientation:
 ---------------------------------------------------------------------
 Center     Atomic      Atomic             Coordinates (Angstroms)
 Number     Number       Type             X           Y           Z
 ---------------------------------------------------------------------
      1         12           0       -7.217531    0.677230    0.109850
      2          6           0       -4.889050   -1.969600    0.463554
      3          6           0       -4.763663    2.743117    1.208149
      4          6           0       -9.478014    3.209838   -0.379464
      5          6           0       -9.607366   -1.677064   -0.858373
      6          7           0       -5.148571    0.370079    0.844861
      7          6           0       -4.317147   -0.755391    0.804230
      8          6           0       -2.890420   -0.433129    1.244653
      9          6           0       -3.015872    1.026406    1.702589
     10          6           0       -4.387897    1.400648    1.233766
     11          6           0       -3.063237    1.253215    3.232454
     12          6           0       -1.854356   -0.765827    0.109991
     13          6           0       -0.490807   -0.467211    0.581239
     14          6           0        0.541641   -0.734035   -0.539592
     15          8           0        0.290669   -1.007653   -1.674939
     16          8           0        1.742214   -0.477065   -0.035411
     17          7           0       -7.144474    2.612605    0.340847
     18          6           0       -6.017617    3.294321    0.805289
     19          6           0       -6.437482    4.737278    0.765023
     20          6           0       -7.745188    4.807834    0.344123
     21          6           0       -8.152074    3.494368    0.035636
     22          6           0       -5.466707    5.822479    1.154880
     23          6           0       -8.536369    6.039045    0.121372
     24          6           0       -8.438278    7.123057    0.842791
     25          7           0       -9.081998    0.773100   -0.569579
     26          6           0       -9.937216    1.887001   -0.754172
     27          6           0      -11.194836    1.503466   -1.227798
     28          6           0      -11.123153    0.220200   -1.366402
     29          6           0       -9.869606   -0.281504   -0.933261
     30          6           0      -12.318502    2.515278   -1.534084
     31          6           0      -12.318340   -0.659944   -1.785879
     32          6           0      -12.257242   -1.108893   -3.231926
     33          7           0       -7.191014   -1.391139   -0.209495
     34          6           0       -8.331487   -2.237106   -0.464409
     35          6           0       -7.798843   -3.576922   -0.500365
     36          6           0       -6.486246   -3.541535   -0.109983
     37          6           0       -6.186597   -2.187858    0.085297
     38          6           0       -8.466502   -4.807866   -0.913842
     39          6           0       -5.379882   -4.330011    0.087323
     40          8           0       -5.150762   -5.513473   -0.020986
     41          6           0       -4.246755   -3.372703    0.515746
     42          6           0       -3.532425   -3.658069    1.861401
     43          8           0       -3.850267   -3.217453    2.916170
     44          8           0       -2.734416   -4.762008    1.718229
     45          6           0       -2.158819   -5.402805    2.879282
     46          6           0        2.849072   -0.685068   -1.095403
     47          6           0        4.157327   -0.432725   -0.423721
     48          6           0        5.180088    0.262698   -0.874161
     49          6           0        5.209837    0.997896   -2.176510
     50          6           0        6.420304    0.526794   -0.112361
     51          6           0        7.585877   -0.138595   -0.845264
     52          6           0        8.883411    0.016494   -0.073534
     53          6           0       10.177021   -0.581106   -0.770291
     54          6           0       10.035776   -2.053218   -1.134750
     55          6           0       11.528005   -0.474109    0.125157
     56          6           0       12.757779   -0.432254   -0.719188
     57          6           0       14.031777   -0.046559    0.159575
     58          6           0       15.401259   -0.255658   -0.477727
     59          6           0       15.650933   -1.712043   -0.899369
     60          6           0       16.353529    0.447238    0.447057
     61          6           0       17.727305    0.646989   -0.220801
     62          6           0       18.723848    1.407016    0.590529
     63          6           0       20.181926    1.351968    0.147584
     64          6           0       20.435239    2.145544   -1.210665
     65          6           0       21.132853    1.964790    1.117555
     66          1           0       -4.144056    3.345304    1.721211
     67          1           0      -10.031959    4.133731   -0.524895
     68          1           0      -10.485241   -2.357565   -0.958378
     69          1           0       -2.367869   -1.130791    2.082661
     70          1           0       -2.300177    1.761747    1.152194
     71          1           0       -2.210664    0.947803    3.651053
     72          1           0       -3.296340    2.448039    3.484808
     73          1           0       -3.797898    0.952810    3.851869
     74          1           0       -2.217355   -1.735264   -0.214250
     75          1           0       -2.039034   -0.017847   -0.599798
     76          1           0       -0.194882    0.517182    0.914815
     77          1           0       -0.434463   -1.196115    1.477210
     78          1           0       -5.608284    6.710535    0.737375
     79          1           0       -5.155108    6.057512    2.223643
     80          1           0       -4.401263    5.471503    0.737928
     81          1           0       -9.083245    5.964057   -0.866509
     82          1           0       -8.861710    7.999561    0.278034
     83          1           0       -7.742866    7.572144    1.764774
     84          1           0      -12.050694    3.121361   -2.373479
     85          1           0      -13.193966    2.165470   -1.780236
     86          1           0      -12.522534    3.157551   -0.677532
     87          1           0      -12.542224   -1.459543   -1.018303
     88          1           0      -13.166264    0.024921   -1.576005
     89          1           0      -13.010880   -1.999924   -3.264169
     90          1           0      -12.271753   -0.343755   -4.024107
     91          1           0      -11.111271   -1.491954   -3.604085
     92          1           0       -8.950956   -4.811762   -1.808660
     93          1           0       -7.757267   -5.612734   -0.916857
     94          1           0       -9.213704   -5.063012   -0.199519
     95          1           0       -3.388291   -3.719914   -0.138155
     96          1           0       -1.616410   -4.609105    3.620227
     97          1           0       -2.853520   -5.816176    3.526106
     98          1           0       -1.483446   -6.076898    2.583073
     99          1           0        2.741713   -1.494530   -1.652058
    100          1           0        2.293794   -0.037388   -1.783385
    101          1           0        4.253322   -1.125572    0.336141
    102          1           0        4.022257    0.933691   -2.600957
    103          1           0        5.542745    2.096840   -2.109475
    104          1           0        5.938823    0.777482   -3.034091
    105          1           0        6.384434    1.602868    0.214752
    106          1           0        6.205548    0.068358    0.735134
    107          1           0        7.445644   -1.156535   -0.995058
    108          1           0        7.745034    0.433159   -1.921963
    109          1           0        9.080847    1.229985    0.133461
    110          1           0        8.734221   -0.579891    1.016445
    111          1           0       10.431293    0.011508   -1.589819
    112          1           0        9.339358   -2.155842   -1.948873
    113          1           0       10.948399   -2.402010   -1.539453
    114          1           0        9.440734   -2.681354   -0.319284
    115          1           0       11.501319    0.577777    0.603206
    116          1           0       11.382809   -1.314484    0.730208
    117          1           0       13.281997   -1.472465   -1.140773
    118          1           0       12.697458    0.261116   -1.640022
    119          1           0       13.977237    1.058629    0.457526
    120          1           0       14.232107   -0.649682    1.028435
    121          1           0       15.293976    0.377770   -1.579072
    122          1           0       15.517556   -2.364742   -0.140984
    123          1           0       14.759733   -1.934451   -1.481464
    124          1           0       16.621039   -2.057551   -1.421369
    125          1           0       16.066110    1.404999    0.789233
    126          1           0       16.485147    0.042269    1.466819
    127          1           0       17.903377   -0.315572   -0.496337
    128          1           0       17.541259    1.009864   -1.078845
    129          1           0       18.290075    2.444668    0.449246
    130          1           0       18.726680    1.295689    1.803133
    131          1           0       20.346570    0.235738    0.262353
    132          1           0       20.292171    3.294259   -1.175108
    133          1           0       21.506741    2.223489   -1.677646
    134          1           0       19.860279    1.550925   -1.911590
    135          1           0       21.044212    1.579012    2.228041
    136          1           0       22.122792    2.024373    0.740723
    137          1           0       20.859163    3.043640    1.393885
 ---------------------------------------------------------------------

 SCF Done:  E(RCAM-B3LYP) =  -2932.59315622     A.U. after   18 cycles

 Excitation energies and oscillator strengths:

 Excited State   1:      Singlet-A      2.0318 eV  610.22 nm  f=0.2267  <S**2>=0.000
     240 -> 243       -0.25589
     241 -> 242        0.65510
 This state for optimization and/or second-order correction.
 Total Energy, E(TD-HF/TD-KS) =  -2932.51848859
 Copying the excited state density for this state as the 1-particle RhoCI density.

 The electronic state is 1-A.
 Alpha  occ. eigenvalues --  -46.83479 -19.25876 -19.25383 -19.20889 -19.20533
 Alpha  occ. eigenvalues --  -19.18764 -14.41551 -14.39305 -14.39049 -14.38981
 Alpha  occ. eigenvalues --  -10.38537 -10.38502 -10.33234 -10.31000 -10.30826
 Alpha  occ. eigenvalues --  -10.30698 -10.30522 -10.30511 -10.29335 -10.29254
 Alpha  occ. eigenvalues --  -10.28981 -10.28944 -10.28579 -10.28546 -10.28358
 Alpha  occ. eigenvalues --  -10.28341 -10.27905 -10.27767 -10.27676 -10.27635
 Alpha  occ. eigenvalues --  -10.27633 -10.27543 -10.27507 -10.27487 -10.27470
 Alpha  occ. eigenvalues --  -10.27457 -10.27444 -10.27345 -10.27276 -10.27028
 Alpha  occ. eigenvalues --  -10.26792 -10.26536 -10.26217 -10.26177 -10.26173
 Alpha  occ. eigenvalues --  -10.25983 -10.25955 -10.25946 -10.25873 -10.25562
 Alpha  occ. eigenvalues --  -10.25522 -10.25478 -10.25306 -10.25228 -10.25154
 Alpha  occ. eigenvalues --  -10.24987 -10.24980 -10.24914 -10.24843 -10.24684
 Alpha  occ. eigenvalues --  -10.24487 -10.24120 -10.23478 -10.23368 -10.21922
 Alpha  occ. eigenvalues --   -3.12661  -1.87357  -1.86926  -1.86823  -1.18110
 Alpha  occ. eigenvalues --   -1.17230  -1.10300  -1.09295  -1.09088  -1.04380
 Alpha  occ. eigenvalues --   -1.03429  -1.03075  -1.02122  -0.92673  -0.92374
 Alpha  occ. eigenvalues --   -0.91318  -0.90541  -0.89377  -0.89226  -0.88882
 Alpha  occ. eigenvalues --   -0.88419  -0.88354  -0.87455  -0.87210  -0.86254
 Alpha  occ. eigenvalues --   -0.85313  -0.84227  -0.83628  -0.83049  -0.82573
 Alpha  occ. eigenvalues --   -0.81938  -0.81359  -0.80641  -0.80055  -0.78781
 Alpha  occ. eigenvalues --   -0.78419  -0.77691  -0.76864  -0.76346  -0.76032
 Alpha  occ. eigenvalues --   -0.75512  -0.74526  -0.74421  -0.74098  -0.72649
 Alpha  occ. eigenvalues --   -0.72328  -0.70665  -0.70049  -0.68977  -0.68468
 Alpha  occ. eigenvalues --   -0.67728  -0.66520  -0.65509  -0.64917  -0.64706
 Alpha  occ. eigenvalues --   -0.63622  -0.63353  -0.63288  -0.62400  -0.61893
 Alpha  occ. eigenvalues --   -0.61434  -0.61220  -0.60602  -0.59697  -0.59447
 Alpha  occ. eigenvalues --   -0.58748  -0.57969  -0.57682  -0.57120  -0.56151
 Alpha  occ. eigenvalues --   -0.55898  -0.55367  -0.55071  -0.54881  -0.54759
 Alpha  occ. eigenvalues --   -0.54493  -0.54273  -0.53978  -0.53649  -0.53406
 Alpha  occ. eigenvalues --   -0.52857  -0.52480  -0.51995  -0.51720  -0.51557
 Alpha  occ. eigenvalues --   -0.51357  -0.51291  -0.51075  -0.50798  -0.50616
 Alpha  occ. eigenvalues --   -0.50404  -0.50284  -0.50180  -0.49852  -0.49485
 Alpha  occ. eigenvalues --   -0.49313  -0.49087  -0.48903  -0.48726  -0.48434
 Alpha  occ. eigenvalues --   -0.48304  -0.48123  -0.47939  -0.47737  -0.47589
 Alpha  occ. eigenvalues --   -0.47343  -0.46953  -0.46343  -0.46126  -0.45778
 Alpha  occ. eigenvalues --   -0.45687  -0.45577  -0.45523  -0.45460  -0.45348
 Alpha  occ. eigenvalues --   -0.45231  -0.44896  -0.44871  -0.44596  -0.44329
 Alpha  occ. eigenvalues --   -0.44064  -0.43920  -0.43856  -0.43639  -0.43522
 Alpha  occ. eigenvalues --   -0.43202  -0.42891  -0.42834  -0.42545  -0.42441
 Alpha  occ. eigenvalues --   -0.42147  -0.42041  -0.42017  -0.41759  -0.41220
 Alpha  occ. eigenvalues --   -0.41090  -0.40983  -0.40868  -0.40400  -0.40171
 Alpha  occ. eigenvalues --   -0.40090  -0.39864  -0.39190  -0.38806  -0.38581
 Alpha  occ. eigenvalues --   -0.38197  -0.38165  -0.38080  -0.37796  -0.37400
 Alpha  occ. eigenvalues --   -0.37330  -0.36984  -0.36570  -0.36408  -0.36286
 Alpha  occ. eigenvalues --   -0.36063  -0.36027  -0.35800  -0.35757  -0.35240
 Alpha  occ. eigenvalues --   -0.35191  -0.35121  -0.34824  -0.33672  -0.33212
 Alpha  occ. eigenvalues --   -0.32875  -0.32466  -0.31897  -0.30645  -0.30459
 Alpha  occ. eigenvalues --   -0.29709  -0.29299  -0.28942  -0.27874  -0.22995
 Alpha  occ. eigenvalues --   -0.21124
 Alpha virt. eigenvalues --   -0.06420  -0.02967   0.01763   0.04499   0.05326
 Alpha virt. eigenvalues --    0.05819   0.06294   0.07018   0.07309   0.07672
 Alpha virt. eigenvalues --    0.08318   0.10652   0.11384   0.11517   0.11569

 Mulliken charges:
               1
     1  Mg   0.834133
     2  C    0.053308
     3  C   -0.179225
     4  C   -0.168763
     5  C   -0.163586
     6  N   -0.625348
     7  C    0.293002
     8  C   -0.160660
     9  C   -0.149297
    10  C    0.355105
    11  C   -0.297317
    12  C   -0.150746
    13  C   -0.274500
    14  C    0.619447
    15  O   -0.476716
    16  O   -0.497938
    17  N   -0.766794
    18  C    0.323851
    19  C    0.001065
    20  C    0.018295
    21  C    0.314826
    22  C   -0.374595
    23  C   -0.086364
    24  C   -0.236829
    25  N   -0.712160
    26  C    0.242258
    27  C    0.062823
    28  C   -0.021340
    29  C    0.324275
    30  C   -0.355345
    31  C   -0.237191
    32  C   -0.291369
    33  N   -0.725799
    34  C    0.224841
    35  C    0.012717
    36  C    0.079543
    37  C    0.319053
    38  C   -0.390917
    39  C    0.331379
    40  O   -0.472841
    41  C   -0.328331
    42  C    0.599642
    43  O   -0.441199
    44  O   -0.467278
    45  C   -0.069829
    46  C   -0.019801
    47  C   -0.140548
    48  C    0.135168
    49  C   -0.356635
    50  C   -0.212792
    51  C   -0.155831
    52  C   -0.156231
    53  C   -0.062973
    54  C   -0.327015
    55  C   -0.159834
    56  C   -0.175311
    57  C   -0.174012
    58  C   -0.060799
    59  C   -0.317790
    60  C   -0.190266
    61  C   -0.163924
    62  C   -0.172653
    63  C   -0.041135
    64  C   -0.318910
    65  C   -0.302234
    66  H    0.072524
    67  H    0.088043
    68  H    0.110650
    69  H    0.101639
    70  H    0.110298
    71  H    0.117794
    72  H    0.072120
    73  H    0.146053
    74  H    0.131518
    75  H    0.115422
    76  H    0.144202
    77  H    0.114505
    78  H    0.126853
    79  H    0.113393
    80  H    0.090339
    81  H    0.113095
    82  H    0.092188
    83  H    0.112298
    84  H    0.125307
    85  H    0.120397
    86  H    0.120711
    87  H    0.104441
    88  H    0.102875
    89  H    0.099972
    90  H    0.121976
    91  H    0.077352
    92  H    0.129797
    93  H    0.148759
    94  H    0.125849
    95  H    0.152301
    96  H    0.091758
    97  H    0.139666
    98  H    0.133553
    99  H    0.152688
   100  H    0.136708
   101  H    0.103731
   102  H    0.077703
   103  H    0.104763
   104  H    0.125768
   105  H    0.114189
   106  H    0.106241
   107  H    0.116387
   108  H    0.072374
   109  H    0.061807
   110  H    0.056287
   111  H    0.089098
   112  H    0.104276
   113  H    0.117753
   114  H    0.088478
   115  H    0.086862
   116  H    0.108958
   117  H    0.060803
   118  H    0.091604
   119  H    0.086162
   120  H    0.098449
   121  H    0.038390
   122  H    0.114599
   123  H    0.107278
   124  H    0.104256
   125  H    0.094087
   126  H    0.087062
   127  H    0.088037
   128  H    0.106648
   129  H    0.084009
   130  H    0.067779
   131  H    0.093555
   132  H    0.106542
   133  H    0.088053
   134  H    0.110640
   135  H    0.074038
   136  H    0.108966
   137  H    0.083564
 Sum of Mulliken charges =   0.00000

 Dipole moment (field-independent basis, Debye):
    X=              1.7011    Y=              4.5613    Z=              0.2324  Tot=              4.8737
 Quadrupole moment (field-independent basis, Debye-Ang):
   XX=           -342.8805   YY=           -390.5163   ZZ=           -396.3404
   XY=            -27.1785   XZ=              6.2284   YZ=             -5.1320

 Normal termination of Gaussian 09 at Sat Jul  6 10:50:03 2019.
