 Gaussian 16, Revision A.03,
 Gaussian 16:  ES64L-G16RevA.03 25-Dec-2016

 ----------------------------------------------------------------------
 # td=(NStates=1) iop(3/107=0140000000,3/108=0140000000) CAM-B3LYP/6-31
 G(d,p)
 ----------------------------------------------------------------------

 --
 TD
 --
 Symbolic Z-matrix:
 Charge =  0 Multiplicity = 1

                         Standard orientation:
 ---------------------------------------------------------------------
 Center     Atomic      Atomic             Coordinates (Angstroms)
 Number     Number       Type             X           Y           Z
 ---------------------------------------------------------------------
      1         12           0       -7.110819    0.548037    0.140081
      2          6           0       -4.837578   -1.969269    0.582536
      3          6           0       -4.840949    2.857914    1.331228
      4          6           0       -9.326436    3.109558   -0.524720
      5          6           0       -9.547224   -1.766812   -0.935692
      6          7           0       -5.193600    0.384372    0.840316
      7          6           0       -4.357074   -0.730423    0.871726
      8          6           0       -2.945951   -0.461634    1.265253
      9          6           0       -3.010301    1.049482    1.759746
     10          6           0       -4.437029    1.515828    1.232367
     11          6           0       -2.846010    1.346341    3.259518
     12          6           0       -1.979322   -0.447879    0.104284
     13          6           0       -0.526832   -0.335014    0.590371
     14          6           0        0.480771   -0.674885   -0.515840
     15          8           0        0.112805   -1.014217   -1.613174
     16          8           0        1.781378   -0.467101   -0.111963
     17          7           0       -7.150937    2.625879    0.538414
     18          6           0       -6.068367    3.427927    0.905032
     19          6           0       -6.433004    4.750638    0.922262
     20          6           0       -7.616472    4.868400    0.335460
     21          6           0       -8.112506    3.476061    0.135362
     22          6           0       -5.468835    5.908831    1.236811
     23          6           0       -8.537543    6.070823    0.035208
     24          6           0       -8.449058    7.193819    0.796563
     25          7           0       -8.964319    0.671106   -0.607433
     26          6           0       -9.824552    1.859903   -0.789591
     27          6           0      -11.011679    1.515844   -1.329726
     28          6           0      -11.138148    0.174223   -1.382628
     29          6           0       -9.827481   -0.340466   -0.954024
     30          6           0      -12.188821    2.489564   -1.628322
     31          6           0      -12.253842   -0.672220   -1.881533
     32          6           0      -12.063720   -1.178514   -3.331985
     33          7           0       -7.270001   -1.417228   -0.079047
     34          6           0       -8.314693   -2.263127   -0.422104
     35          6           0       -7.814970   -3.667488   -0.619719
     36          6           0       -6.499457   -3.549271   -0.173765
     37          6           0       -6.153928   -2.245911    0.183870
     38          6           0       -8.760443   -4.815590   -0.879477
     39          6           0       -5.405405   -4.386715    0.163773
     40          8           0       -5.220647   -5.563339    0.160175
     41          6           0       -4.169847   -3.315728    0.626095
     42          6           0       -3.662509   -3.808013    1.901931
     43          8           0       -3.729804   -3.283387    2.958282
     44          8           0       -2.848745   -4.835775    1.784941
     45          6           0       -2.099352   -5.224807    3.009052
     46          6           0        2.711068   -0.622812   -1.106814
     47          6           0        4.025265   -0.433448   -0.506539
     48          6           0        5.062235    0.302589   -0.907226
     49          6           0        5.037685    1.205456   -2.146136
     50          6           0        6.402678    0.395756   -0.266277
     51          6           0        7.544029   -0.100757   -1.016490
     52          6           0        8.908648   -0.137204   -0.318594
     53          6           0       10.283445   -0.596794   -0.893730
     54          6           0       10.113893   -2.056950   -1.282074
     55          6           0       11.451009   -0.291412   -0.070581
     56          6           0       12.725085   -0.419958   -0.744709
     57          6           0       13.901777   -0.081804    0.152976
     58          6           0       15.349990   -0.278317   -0.523577
     59          6           0       15.661300   -1.681318   -0.743532
     60          6           0       16.422859    0.399935    0.346780
     61          6           0       17.842324    0.452603   -0.223504
     62          6           0       18.775030    1.314527    0.679820
     63          6           0       20.249121    1.342507    0.250786
     64          6           0       20.379378    2.102703   -1.159080
     65          6           0       21.121276    1.999474    1.306125
     66          1           0       -4.331292    3.743502    1.680188
     67          1           0       -9.970085    3.953663   -0.803374
     68          1           0      -10.259158   -2.380426   -1.307387
     69          1           0       -2.629710   -1.119812    1.982972
     70          1           0       -2.052652    1.550873    1.246451
     71          1           0       -1.951688    1.019919    3.444218
     72          1           0       -2.802811    2.395811    3.369991
     73          1           0       -3.567494    0.782743    3.833675
     74          1           0       -2.126231   -1.347090   -0.481670
     75          1           0       -2.269233    0.359152   -0.728278
     76          1           0       -0.411049    0.658748    0.928139
     77          1           0       -0.430673   -0.915298    1.529939
     78          1           0       -5.511590    6.707377    0.557590
     79          1           0       -5.726507    6.128503    2.330386
     80          1           0       -4.279698    5.434793    1.439248
     81          1           0       -9.091134    5.903949   -0.879142
     82          1           0       -9.104126    8.191621    0.535852
     83          1           0       -7.802972    7.261719    1.598717
     84          1           0      -12.000447    3.096617   -2.569404
     85          1           0      -13.162527    2.040719   -1.843724
     86          1           0      -12.193382    3.243773   -0.783947
     87          1           0      -12.513726   -1.492717   -1.167127
     88          1           0      -13.220849   -0.116206   -1.854990
     89          1           0      -12.874457   -1.938307   -3.620846
     90          1           0      -12.161413   -0.126252   -3.986847
     91          1           0      -10.951213   -1.663658   -3.503287
     92          1           0       -9.110391   -4.714302   -1.840821
     93          1           0       -8.043951   -5.811225   -0.907289
     94          1           0       -9.663855   -5.043181   -0.190076
     95          1           0       -3.416631   -3.554404   -0.097084
     96          1           0       -1.451280   -4.283362    3.236989
     97          1           0       -2.882637   -5.425697    3.812940
     98          1           0       -1.691175   -6.084893    2.848646
     99          1           0        2.500299   -1.438289   -1.770520
    100          1           0        2.634989   -0.018405   -2.025245
    101          1           0        4.395114   -1.080192    0.391807
    102          1           0        3.978742    1.291550   -2.564576
    103          1           0        5.517936    2.263780   -1.986326
    104          1           0        5.508329    0.758459   -2.977275
    105          1           0        6.572616    1.503753    0.007155
    106          1           0        6.335333   -0.137322    0.758341
    107          1           0        7.353942   -1.172778   -1.272354
    108          1           0        7.657016    0.547482   -2.100432
    109          1           0        9.065844    0.908156    0.189494
    110          1           0        8.795979   -0.884815    0.538310
    111          1           0       10.368027    0.172155   -1.859522
    112          1           0        9.427176   -2.024462   -2.334247
    113          1           0       11.135252   -2.485259   -1.704314
    114          1           0        9.870271   -2.470273   -0.181223
    115          1           0       11.370071    0.953731    0.010280
    116          1           0       11.516998   -0.815232    0.890272
    117          1           0       12.674495   -1.507983   -1.163692
    118          1           0       12.747693   -0.001235   -1.658464
    119          1           0       13.769222    0.895691    0.537825
    120          1           0       13.769368   -0.779822    0.864516
    121          1           0       15.540138    0.393233   -1.388860
    122          1           0       15.735279   -2.167874    0.350211
    123          1           0       14.877006   -2.285145   -1.256052
    124          1           0       16.708437   -1.825447   -1.266267
    125          1           0       16.123425    1.539231    0.543159
    126          1           0       16.363417   -0.058174    1.484139
    127          1           0       18.267582   -0.539268   -0.361878
    128          1           0       17.771271    0.863249   -1.154234
    129          1           0       18.324202    2.498148    0.700820
    130          1           0       18.604902    0.954440    1.725800
    131          1           0       20.582739    0.220244   -0.004634
    132          1           0       20.226272    3.228764   -1.104556
    133          1           0       21.477078    1.958479   -1.231732
    134          1           0       19.726325    1.560253   -2.038467
    135          1           0       20.908212    1.303055    2.043366
    136          1           0       22.189929    2.000123    0.782609
    137          1           0       20.369873    2.849567    1.581654
 ---------------------------------------------------------------------

 SCF Done:  E(RCAM-B3LYP) =  -2933.47656577     A.U. after   16 cycles

 Excitation energies and oscillator strengths:

 Excited State   1:      Singlet-A      1.9358 eV  640.49 nm  f=0.2528  <S**2>=0.000
     240 -> 243       -0.21874
     241 -> 242        0.67094
 This state for optimization and/or second-order correction.
 Total Energy, E(TD-HF/TD-DFT) =  -2933.40542741
 Copying the excited state density for this state as the 1-particle RhoCI density.

 The electronic state is 1-A.
 Alpha  occ. eigenvalues --  -46.78753 -19.23141 -19.19852 -19.18157 -19.16597
 Alpha  occ. eigenvalues --  -19.14083 -14.38183 -14.35200 -14.35053 -14.34605
 Alpha  occ. eigenvalues --  -10.35589 -10.31983 -10.30226 -10.27251 -10.26937
 Alpha  occ. eigenvalues --  -10.26319 -10.26080 -10.25328 -10.24917 -10.24722
 Alpha  occ. eigenvalues --  -10.24691 -10.24659 -10.24379 -10.24239 -10.24119
 Alpha  occ. eigenvalues --  -10.24024 -10.23981 -10.23875 -10.23816 -10.23409
 Alpha  occ. eigenvalues --  -10.23246 -10.23092 -10.23026 -10.22947 -10.22934
 Alpha  occ. eigenvalues --  -10.22806 -10.22797 -10.22774 -10.22710 -10.22682
 Alpha  occ. eigenvalues --  -10.22624 -10.22527 -10.22481 -10.22458 -10.22373
 Alpha  occ. eigenvalues --  -10.22285 -10.22275 -10.22134 -10.22069 -10.21978
 Alpha  occ. eigenvalues --  -10.21901 -10.21875 -10.21752 -10.21730 -10.21687
 Alpha  occ. eigenvalues --  -10.21608 -10.21608 -10.21514 -10.21446 -10.21306
 Alpha  occ. eigenvalues --  -10.21296 -10.20205 -10.19924 -10.19535 -10.19324
 Alpha  occ. eigenvalues --   -3.07539  -1.82464  -1.82015  -1.81963  -1.14534
 Alpha  occ. eigenvalues --   -1.13106  -1.07607  -1.06621  -1.02643  -0.98523
 Alpha  occ. eigenvalues --   -0.97722  -0.96714  -0.95994  -0.87316  -0.87059
 Alpha  occ. eigenvalues --   -0.86244  -0.85395  -0.84766  -0.83900  -0.83274
 Alpha  occ. eigenvalues --   -0.83252  -0.83086  -0.82361  -0.81818  -0.81498
 Alpha  occ. eigenvalues --   -0.80386  -0.79536  -0.78775  -0.78632  -0.77296
 Alpha  occ. eigenvalues --   -0.77081  -0.76484  -0.76193  -0.75607  -0.74213
 Alpha  occ. eigenvalues --   -0.72365  -0.72135  -0.71623  -0.71019  -0.70582
 Alpha  occ. eigenvalues --   -0.70210  -0.70202  -0.69121  -0.68801  -0.68165
 Alpha  occ. eigenvalues --   -0.67220  -0.65923  -0.64637  -0.64445  -0.63674
 Alpha  occ. eigenvalues --   -0.62564  -0.62464  -0.62252  -0.61240  -0.60541
 Alpha  occ. eigenvalues --   -0.60251  -0.59621  -0.58079  -0.57251  -0.56770
 Alpha  occ. eigenvalues --   -0.56595  -0.56233  -0.55826  -0.55462  -0.54946
 Alpha  occ. eigenvalues --   -0.54439  -0.53690  -0.53174  -0.53104  -0.52955
 Alpha  occ. eigenvalues --   -0.52467  -0.51527  -0.51267  -0.51016  -0.50969
 Alpha  occ. eigenvalues --   -0.50619  -0.50151  -0.49892  -0.49497  -0.49400
 Alpha  occ. eigenvalues --   -0.48964  -0.48633  -0.48469  -0.48299  -0.48037
 Alpha  occ. eigenvalues --   -0.47957  -0.47629  -0.47175  -0.46950  -0.46708
 Alpha  occ. eigenvalues --   -0.46652  -0.46580  -0.46324  -0.46110  -0.45867
 Alpha  occ. eigenvalues --   -0.45745  -0.45571  -0.45416  -0.45246  -0.45110
 Alpha  occ. eigenvalues --   -0.44712  -0.44491  -0.44441  -0.44046  -0.44001
 Alpha  occ. eigenvalues --   -0.43515  -0.43405  -0.42822  -0.42601  -0.42477
 Alpha  occ. eigenvalues --   -0.42089  -0.41910  -0.41790  -0.41661  -0.41508
 Alpha  occ. eigenvalues --   -0.41278  -0.41053  -0.40955  -0.40833  -0.40755
 Alpha  occ. eigenvalues --   -0.40667  -0.40499  -0.40430  -0.40195  -0.39906
 Alpha  occ. eigenvalues --   -0.39444  -0.39363  -0.39083  -0.38964  -0.38912
 Alpha  occ. eigenvalues --   -0.38752  -0.38221  -0.38066  -0.37961  -0.37912
 Alpha  occ. eigenvalues --   -0.37700  -0.37556  -0.37401  -0.37223  -0.36950
 Alpha  occ. eigenvalues --   -0.36646  -0.36525  -0.36447  -0.36058  -0.35927
 Alpha  occ. eigenvalues --   -0.35681  -0.35409  -0.35073  -0.34400  -0.34017
 Alpha  occ. eigenvalues --   -0.33952  -0.33853  -0.33670  -0.33575  -0.33377
 Alpha  occ. eigenvalues --   -0.32984  -0.32880  -0.32454  -0.32383  -0.32100
 Alpha  occ. eigenvalues --   -0.31827  -0.31792  -0.31572  -0.31298  -0.30810
 Alpha  occ. eigenvalues --   -0.30622  -0.29948  -0.28997  -0.28443  -0.27494
 Alpha  occ. eigenvalues --   -0.27052  -0.26295  -0.26248  -0.25491  -0.21858
 Alpha  occ. eigenvalues --   -0.19853
 Alpha virt. eigenvalues --   -0.07498  -0.04029   0.00105   0.02445   0.03053
 Alpha virt. eigenvalues --    0.04336   0.05020   0.05283   0.05466   0.06079
 Alpha virt. eigenvalues --    0.06632   0.07834   0.08712   0.09203   0.09217

 Mulliken charges:
               1
     1  Mg   0.803025
     2  C    0.102634
     3  C   -0.143444
     4  C   -0.193194
     5  C   -0.143126
     6  N   -0.648057
     7  C    0.323041
     8  C   -0.133701
     9  C   -0.155846
    10  C    0.315759
    11  C   -0.293382
    12  C   -0.178934
    13  C   -0.276535
    14  C    0.620526
    15  O   -0.449187
    16  O   -0.446657
    17  N   -0.681978
    18  C    0.271202
    19  C    0.023364
    20  C   -0.019641
    21  C    0.304385
    22  C   -0.361223
    23  C   -0.054031
    24  C   -0.240890
    25  N   -0.686654
    26  C    0.282635
    27  C    0.068130
    28  C    0.036765
    29  C    0.302787
    30  C   -0.379850
    31  C   -0.262562
    32  C   -0.278750
    33  N   -0.719176
    34  C    0.253525
    35  C    0.024517
    36  C    0.043997
    37  C    0.290149
    38  C   -0.376583
    39  C    0.319189
    40  O   -0.432140
    41  C   -0.378132
    42  C    0.622633
    43  O   -0.484299
    44  O   -0.460537
    45  C   -0.062866
    46  C    0.005511
    47  C   -0.128636
    48  C    0.145897
    49  C   -0.374057
    50  C   -0.217528
    51  C   -0.145038
    52  C   -0.147723
    53  C   -0.063513
    54  C   -0.284441
    55  C   -0.132922
    56  C   -0.171005
    57  C   -0.161185
    58  C   -0.044430
    59  C   -0.292996
    60  C   -0.168482
    61  C   -0.172125
    62  C   -0.157292
    63  C   -0.070899
    64  C   -0.292200
    65  C   -0.290290
    66  H    0.052638
    67  H    0.074953
    68  H    0.077825
    69  H    0.119603
    70  H    0.079139
    71  H    0.112731
    72  H    0.113773
    73  H    0.126928
    74  H    0.120851
    75  H    0.100649
    76  H    0.140399
    77  H    0.132982
    78  H    0.140522
    79  H    0.126434
    80  H    0.076737
    81  H    0.102703
    82  H    0.086994
    83  H    0.110363
    84  H    0.112229
    85  H    0.118176
    86  H    0.119256
    87  H    0.105747
    88  H    0.101293
    89  H    0.105264
    90  H    0.087429
    91  H    0.095606
    92  H    0.140188
    93  H    0.121063
    94  H    0.132303
    95  H    0.159479
    96  H    0.117498
    97  H    0.129050
    98  H    0.130836
    99  H    0.132206
   100  H    0.101299
   101  H    0.070370
   102  H    0.096778
   103  H    0.101562
   104  H    0.135967
   105  H    0.095869
   106  H    0.083263
   107  H    0.100050
   108  H    0.056811
   109  H    0.067902
   110  H    0.066781
   111  H    0.050739
   112  H    0.099474
   113  H    0.092500
   114  H    0.096093
   115  H    0.058198
   116  H    0.084305
   117  H    0.057312
   118  H    0.099574
   119  H    0.096105
   120  H    0.101045
   121  H    0.080792
   122  H    0.079683
   123  H    0.106000
   124  H    0.090225
   125  H    0.067063
   126  H    0.050903
   127  H    0.097605
   128  H    0.104442
   129  H    0.050224
   130  H    0.086656
   131  H    0.064013
   132  H    0.099547
   133  H    0.093199
   134  H    0.085700
   135  H    0.121384
   136  H    0.099879
   137  H    0.103306
 Sum of Mulliken charges =  -0.00000

 Dipole moment (field-independent basis, Debye):
    X=              0.7677    Y=              3.5388    Z=             -0.7996  Tot=              3.7083
 Quadrupole moment (field-independent basis, Debye-Ang):
   XX=           -340.0846   YY=           -394.2893   ZZ=           -398.6418
   XY=            -21.4727   XZ=             13.6743   YZ=             -1.7739

 Normal termination of Gaussian 16 at Thu Sep  5 21:16:46 2019.
