 Gaussian 09, Revision D.01,
 Gaussian 09:  ES64L-G09RevD.01 24-Apr-2013

 -------------------------------------
 # td=(NStates=1) CAM-B3LYP/6-31G(d,p)
 -------------------------------------

 --
 TD
 --
 Symbolic Z-matrix:
 Charge =  0 Multiplicity = 1

                         Standard orientation:
 ---------------------------------------------------------------------
 Center     Atomic      Atomic             Coordinates (Angstroms)
 Number     Number       Type             X           Y           Z
 ---------------------------------------------------------------------
      1         12           0       -7.143228    0.630586    0.075961
      2          6           0       -4.866913   -1.912028    0.590531
      3          6           0       -4.864242    2.952868    0.971923
      4          6           0       -9.402854    3.052432   -0.462341
      5          6           0       -9.375230   -1.711456   -0.958109
      6          7           0       -5.082029    0.498946    0.733377
      7          6           0       -4.342661   -0.658708    0.866714
      8          6           0       -2.883907   -0.254212    1.267542
      9          6           0       -2.971946    1.238392    1.566051
     10          6           0       -4.406976    1.633960    1.010114
     11          6           0       -2.977720    1.447626    3.189904
     12          6           0       -1.950430   -0.602236    0.157748
     13          6           0       -0.425357   -0.398486    0.496866
     14          6           0        0.473020   -0.725745   -0.625456
     15          8           0        0.185630   -1.107286   -1.671349
     16          8           0        1.743635   -0.374448   -0.161855
     17          7           0       -7.063006    2.622189    0.206795
     18          6           0       -6.134784    3.420232    0.691456
     19          6           0       -6.561174    4.827086    0.726232
     20          6           0       -7.839640    4.817645    0.327733
     21          6           0       -8.233765    3.438037   -0.005868
     22          6           0       -5.678777    5.935465    1.108314
     23          6           0       -8.763332    5.972913    0.266831
     24          6           0       -8.617147    7.276895    0.780076
     25          7           0       -9.079173    0.634917   -0.673294
     26          6           0       -9.960209    1.731804   -0.770575
     27          6           0      -11.218300    1.347327   -1.173684
     28          6           0      -11.242956   -0.031366   -1.217500
     29          6           0       -9.799795   -0.333496   -0.931600
     30          6           0      -12.410426    2.338419   -1.438405
     31          6           0      -12.310872   -0.987507   -1.636758
     32          6           0      -12.161176   -1.174430   -3.205449
     33          7           0       -7.206127   -1.366029   -0.142229
     34          6           0       -8.222648   -2.310421   -0.599009
     35          6           0       -7.739249   -3.598334   -0.548125
     36          6           0       -6.416217   -3.551343    0.010475
     37          6           0       -6.208305   -2.206423    0.113523
     38          6           0       -8.563147   -4.888053   -0.804939
     39          6           0       -5.247768   -4.301239    0.315167
     40          8           0       -5.158035   -5.557393    0.311808
     41          6           0       -4.047806   -3.281884    0.542417
     42          6           0       -3.512278   -3.570317    1.929162
     43          8           0       -3.919385   -3.188984    3.025489
     44          8           0       -2.625347   -4.641083    1.776883
     45          6           0       -2.190554   -5.198510    2.978519
     46          6           0        2.829158   -0.724031   -1.140841
     47          6           0        4.110297   -0.470573   -0.436912
     48          6           0        5.109478    0.326496   -0.882178
     49          6           0        5.150338    0.992167   -2.213927
     50          6           0        6.416986    0.348116   -0.086892
     51          6           0        7.662687   -0.145589   -0.881873
     52          6           0        8.903350   -0.166640   -0.041936
     53          6           0       10.138349   -0.496018   -0.931028
     54          6           0       10.131895   -1.926722   -1.449910
     55          6           0       11.385589   -0.258388    0.045744
     56          6           0       12.788562   -0.643978   -0.640665
     57          6           0       14.022172   -0.234733    0.223102
     58          6           0       15.353489   -0.257712   -0.501055
     59          6           0       15.822200   -1.645950   -1.086159
     60          6           0       16.428937    0.273971    0.415735
     61          6           0       17.842144    0.539609   -0.183380
     62          6           0       18.774375    1.324044    0.712579
     63          6           0       20.205110    1.450737    0.160839
     64          6           0       20.329799    2.453629   -1.013573
     65          6           0       21.150667    1.946448    1.263848
     66          1           0       -4.244211    3.592421    1.447472
     67          1           0      -10.204539    3.787352   -0.704631
     68          1           0      -10.292553   -2.277330   -0.979967
     69          1           0       -2.436236   -0.825951    2.229595
     70          1           0       -2.068632    1.656229    1.155320
     71          1           0       -1.890806    1.278756    3.557472
     72          1           0       -3.111254    2.617178    3.403322
     73          1           0       -3.763087    0.852162    3.804105
     74          1           0       -1.941432   -1.692527   -0.054101
     75          1           0       -2.405725   -0.137171   -0.885787
     76          1           0       -0.267419    0.460033    0.815268
     77          1           0       -0.253755   -1.046443    1.272144
     78          1           0       -6.189197    6.712653    0.617647
     79          1           0       -5.509840    6.201299    2.256244
     80          1           0       -4.652780    5.655080    0.636871
     81          1           0       -9.323061    6.033662   -0.552090
     82          1           0       -9.291727    8.057355    0.405909
     83          1           0       -7.798545    7.221473    1.437566
     84          1           0      -12.067408    2.792309   -2.382407
     85          1           0      -13.262547    1.595046   -1.582341
     86          1           0      -12.631933    3.112596   -0.639346
     87          1           0      -12.507204   -2.052865   -0.962125
     88          1           0      -13.168072   -0.584857   -1.495246
     89          1           0      -12.854231   -2.140991   -3.499976
     90          1           0      -12.379414   -0.246485   -3.809282
     91          1           0      -11.116254   -1.593043   -3.390762
     92          1           0       -8.732515   -4.980188   -1.793063
     93          1           0       -7.881215   -5.761204   -0.411451
     94          1           0       -9.480815   -4.701165   -0.363861
     95          1           0       -3.542339   -3.268640   -0.318487
     96          1           0       -1.781876   -4.402970    3.695985
     97          1           0       -3.038670   -5.627725    3.380716
     98          1           0       -1.343142   -5.902329    2.780029
     99          1           0        2.741228   -1.838608   -1.515372
    100          1           0        2.851273   -0.164219   -2.062892
    101          1           0        4.336668   -1.119521    0.587221
    102          1           0        4.025840    1.047322   -2.695482
    103          1           0        5.488141    2.098279   -2.067967
    104          1           0        5.751484    0.451257   -2.959207
    105          1           0        6.677229    1.269059    0.371724
    106          1           0        6.319453   -0.372121    0.710394
    107          1           0        7.491876   -1.103733   -1.207144
    108          1           0        7.798424    0.478687   -1.846722
    109          1           0        8.858453    0.831976    0.611980
    110          1           0        8.705527   -0.910054    0.740335
    111          1           0       10.161814    0.141174   -1.714292
    112          1           0        9.275123   -2.080888   -2.101910
    113          1           0       11.073612   -2.285083   -2.018806
    114          1           0        9.956895   -2.595630   -0.568664
    115          1           0       11.372336    0.918248    0.228680
    116          1           0       11.142034   -0.794918    0.921233
    117          1           0       12.750214   -1.815129   -0.711579
    118          1           0       12.870894   -0.039330   -1.518351
    119          1           0       13.746612    0.565416    0.759577
    120          1           0       14.416634   -1.049572    1.077008
    121          1           0       15.596795    0.544643   -1.299698
    122          1           0       16.184717   -2.494060   -0.377930
    123          1           0       15.313072   -2.063917   -1.803744
    124          1           0       16.820143   -1.377373   -1.579343
    125          1           0       16.246757    1.463842    0.607013
    126          1           0       16.470934   -0.351649    1.473902
    127          1           0       18.342295   -0.578641   -0.354526
    128          1           0       17.604674    1.071695   -1.149659
    129          1           0       18.464165    2.252781    0.889188
    130          1           0       18.939864    0.784057    1.680081
    131          1           0       20.571658    0.486378    0.009772
    132          1           0       20.055371    3.560467   -0.788028
    133          1           0       21.301372    2.298400   -1.531291
    134          1           0       19.588793    2.032254   -1.919251
    135          1           0       21.071709    1.605637    2.245126
    136          1           0       22.050839    1.784373    1.066941
    137          1           0       21.036361    3.102389    1.543070
 ---------------------------------------------------------------------

 SCF Done:  E(RCAM-B3LYP) =  -2932.60401330     A.U. after   17 cycles

 Excitation energies and oscillator strengths:

 Excited State   1:      Singlet-A      2.2069 eV  561.80 nm  f=0.2029  <S**2>=0.000
     240 -> 243       -0.26959
     241 -> 242        0.64138
 This state for optimization and/or second-order correction.
 Total Energy, E(TD-HF/TD-KS) =  -2932.52291050
 Copying the excited state density for this state as the 1-particle RhoCI density.

 The electronic state is 1-A.
 Alpha  occ. eigenvalues --  -46.84446 -19.25338 -19.25171 -19.22010 -19.21622
 Alpha  occ. eigenvalues --  -19.19945 -14.41023 -14.39525 -14.39094 -14.39000
 Alpha  occ. eigenvalues --  -10.39833 -10.38504 -10.35149 -10.32132 -10.31623
 Alpha  occ. eigenvalues --  -10.30642 -10.29835 -10.29802 -10.29314 -10.28974
 Alpha  occ. eigenvalues --  -10.28665 -10.28584 -10.28496 -10.28395 -10.28290
 Alpha  occ. eigenvalues --  -10.28228 -10.28148 -10.27945 -10.27844 -10.27790
 Alpha  occ. eigenvalues --  -10.27647 -10.27602 -10.27600 -10.27595 -10.27539
 Alpha  occ. eigenvalues --  -10.27341 -10.27312 -10.27277 -10.27122 -10.26997
 Alpha  occ. eigenvalues --  -10.26889 -10.26861 -10.26805 -10.26750 -10.26704
 Alpha  occ. eigenvalues --  -10.26645 -10.26515 -10.26501 -10.26305 -10.26013
 Alpha  occ. eigenvalues --  -10.25955 -10.25837 -10.25617 -10.25487 -10.25336
 Alpha  occ. eigenvalues --  -10.25330 -10.25312 -10.25216 -10.24910 -10.24878
 Alpha  occ. eigenvalues --  -10.24862 -10.24331 -10.23921 -10.23812 -10.22555
 Alpha  occ. eigenvalues --   -3.13497  -1.88202  -1.87735  -1.87684  -1.18624
 Alpha  occ. eigenvalues --   -1.16848  -1.09964  -1.08704  -1.08448  -1.06049
 Alpha  occ. eigenvalues --   -1.03972  -1.03687  -1.02379  -0.92174  -0.91282
 Alpha  occ. eigenvalues --   -0.90439  -0.90285  -0.90088  -0.89259  -0.89188
 Alpha  occ. eigenvalues --   -0.89023  -0.88435  -0.87406  -0.87043  -0.85700
 Alpha  occ. eigenvalues --   -0.84719  -0.84297  -0.84039  -0.83170  -0.82776
 Alpha  occ. eigenvalues --   -0.81118  -0.80773  -0.80407  -0.79620  -0.78464
 Alpha  occ. eigenvalues --   -0.77644  -0.76825  -0.75878  -0.75821  -0.75784
 Alpha  occ. eigenvalues --   -0.75635  -0.75265  -0.74292  -0.73014  -0.71935
 Alpha  occ. eigenvalues --   -0.71256  -0.70238  -0.69777  -0.69008  -0.68392
 Alpha  occ. eigenvalues --   -0.67635  -0.66164  -0.65378  -0.64656  -0.63965
 Alpha  occ. eigenvalues --   -0.63774  -0.63565  -0.63138  -0.62645  -0.62507
 Alpha  occ. eigenvalues --   -0.61325  -0.60986  -0.60705  -0.59963  -0.58999
 Alpha  occ. eigenvalues --   -0.58836  -0.58691  -0.58111  -0.57376  -0.56938
 Alpha  occ. eigenvalues --   -0.56281  -0.55779  -0.55383  -0.55266  -0.54919
 Alpha  occ. eigenvalues --   -0.54651  -0.54043  -0.53756  -0.53410  -0.53280
 Alpha  occ. eigenvalues --   -0.53192  -0.52439  -0.52220  -0.51919  -0.51595
 Alpha  occ. eigenvalues --   -0.51357  -0.51237  -0.50725  -0.50580  -0.50325
 Alpha  occ. eigenvalues --   -0.49984  -0.49931  -0.49897  -0.49594  -0.49536
 Alpha  occ. eigenvalues --   -0.49215  -0.49161  -0.48958  -0.48600  -0.48373
 Alpha  occ. eigenvalues --   -0.48078  -0.47784  -0.47592  -0.47333  -0.46982
 Alpha  occ. eigenvalues --   -0.46746  -0.46604  -0.46456  -0.46195  -0.46139
 Alpha  occ. eigenvalues --   -0.45632  -0.45400  -0.45298  -0.45007  -0.44906
 Alpha  occ. eigenvalues --   -0.44671  -0.44480  -0.44235  -0.44108  -0.43925
 Alpha  occ. eigenvalues --   -0.43738  -0.43553  -0.43414  -0.43365  -0.43164
 Alpha  occ. eigenvalues --   -0.43058  -0.42566  -0.42457  -0.42323  -0.42151
 Alpha  occ. eigenvalues --   -0.41920  -0.41641  -0.41376  -0.41164  -0.40989
 Alpha  occ. eigenvalues --   -0.40662  -0.40593  -0.40534  -0.40138  -0.40114
 Alpha  occ. eigenvalues --   -0.40045  -0.39827  -0.39816  -0.39447  -0.39378
 Alpha  occ. eigenvalues --   -0.39016  -0.38868  -0.38510  -0.38244  -0.38057
 Alpha  occ. eigenvalues --   -0.37752  -0.37676  -0.37107  -0.37049  -0.36710
 Alpha  occ. eigenvalues --   -0.36321  -0.36038  -0.35903  -0.35766  -0.35284
 Alpha  occ. eigenvalues --   -0.35078  -0.35017  -0.34782  -0.34340  -0.34168
 Alpha  occ. eigenvalues --   -0.33506  -0.33164  -0.32850  -0.31133  -0.30085
 Alpha  occ. eigenvalues --   -0.29646  -0.29315  -0.28934  -0.28330  -0.23009
 Alpha  occ. eigenvalues --   -0.21858
 Alpha virt. eigenvalues --   -0.06316  -0.03104   0.01197   0.03346   0.05396
 Alpha virt. eigenvalues --    0.05748   0.05827   0.06718   0.07288   0.07921
 Alpha virt. eigenvalues --    0.08787   0.10542   0.11244   0.11612   0.11947

 Mulliken charges:
               1
     1  Mg   0.813660
     2  C   -0.021660
     3  C   -0.207784
     4  C   -0.220595
     5  C   -0.201062
     6  N   -0.645869
     7  C    0.308526
     8  C   -0.143267
     9  C   -0.135228
    10  C    0.340057
    11  C   -0.307950
    12  C   -0.192169
    13  C   -0.254323
    14  C    0.613667
    15  O   -0.420360
    16  O   -0.511757
    17  N   -0.720584
    18  C    0.356913
    19  C    0.021935
    20  C    0.014816
    21  C    0.333405
    22  C   -0.370113
    23  C   -0.090013
    24  C   -0.241806
    25  N   -0.649315
    26  C    0.232705
    27  C    0.001930
    28  C    0.009177
    29  C    0.304881
    30  C   -0.351880
    31  C   -0.231807
    32  C   -0.298135
    33  N   -0.728215
    34  C    0.314385
    35  C   -0.025569
    36  C    0.063141
    37  C    0.338800
    38  C   -0.355960
    39  C    0.327130
    40  O   -0.490047
    41  C   -0.269188
    42  C    0.638546
    43  O   -0.469762
    44  O   -0.459489
    45  C   -0.075413
    46  C    0.009052
    47  C   -0.122823
    48  C    0.131096
    49  C   -0.360300
    50  C   -0.230829
    51  C   -0.181785
    52  C   -0.175727
    53  C   -0.057903
    54  C   -0.316878
    55  C   -0.181880
    56  C   -0.182952
    57  C   -0.143265
    58  C   -0.054483
    59  C   -0.311577
    60  C   -0.152530
    61  C   -0.172709
    62  C   -0.148758
    63  C   -0.059158
    64  C   -0.298599
    65  C   -0.305845
    66  H    0.064682
    67  H    0.085263
    68  H    0.087323
    69  H    0.100343
    70  H    0.109255
    71  H    0.100017
    72  H    0.088113
    73  H    0.133083
    74  H    0.113759
    75  H    0.095090
    76  H    0.134466
    77  H    0.144495
    78  H    0.125773
    79  H    0.115313
    80  H    0.114970
    81  H    0.097573
    82  H    0.123362
    83  H    0.108230
    84  H    0.130626
    85  H    0.107969
    86  H    0.124242
    87  H    0.083870
    88  H    0.115941
    89  H    0.078027
    90  H    0.119630
    91  H    0.115125
    92  H    0.136752
    93  H    0.146820
    94  H    0.129051
    95  H    0.174680
    96  H    0.105381
    97  H    0.138344
    98  H    0.114711
    99  H    0.115055
   100  H    0.116477
   101  H    0.077172
   102  H    0.087825
   103  H    0.110024
   104  H    0.136994
   105  H    0.105325
   106  H    0.098517
   107  H    0.109998
   108  H    0.076068
   109  H    0.073242
   110  H    0.092906
   111  H    0.095931
   112  H    0.102906
   113  H    0.104696
   114  H    0.096368
   115  H    0.070284
   116  H    0.101813
   117  H    0.095947
   118  H    0.105095
   119  H    0.103611
   120  H    0.056936
   121  H    0.068843
   122  H    0.088373
   123  H    0.115326
   124  H    0.095939
   125  H    0.060854
   126  H    0.059936
   127  H    0.061444
   128  H    0.090590
   129  H    0.097154
   130  H    0.088407
   131  H    0.097015
   132  H    0.105802
   133  H    0.108089
   134  H    0.065963
   135  H    0.098889
   136  H    0.109647
   137  H    0.065762
 Sum of Mulliken charges =   0.00000

 Dipole moment (field-independent basis, Debye):
    X=              0.7650    Y=              5.0019    Z=             -0.8171  Tot=              5.1256
 Quadrupole moment (field-independent basis, Debye-Ang):
   XX=           -325.7151   YY=           -396.2518   ZZ=           -398.6168
   XY=            -30.1010   XZ=             11.2191   YZ=              0.8477

 Normal termination of Gaussian 09 at Wed Jul  3 20:22:55 2019.
