 Gaussian 09, Revision D.01,
 Gaussian 09:  ES64L-G09RevD.01 24-Apr-2013

 -------------------------------------
 # td=(NStates=1) CAM-B3LYP/6-31G(d,p)
 -------------------------------------

 --
 TD
 --
 Symbolic Z-matrix:
 Charge =  0 Multiplicity = 1

                         Standard orientation:
 ---------------------------------------------------------------------
 Center     Atomic      Atomic             Coordinates (Angstroms)
 Number     Number       Type             X           Y           Z
 ---------------------------------------------------------------------
      1         12           0       -7.178949    0.643352    0.084704
      2          6           0       -4.850097   -2.033642    0.518758
      3          6           0       -4.743447    2.824131    1.240732
      4          6           0       -9.326460    3.112605   -0.333367
      5          6           0       -9.609326   -1.662128   -0.881806
      6          7           0       -5.112864    0.425987    0.838211
      7          6           0       -4.380637   -0.715700    0.799496
      8          6           0       -2.894006   -0.497294    1.184931
      9          6           0       -3.001985    0.939341    1.673779
     10          6           0       -4.367929    1.453019    1.220186
     11          6           0       -2.875906    1.123521    3.264831
     12          6           0       -1.866143   -0.601614    0.072925
     13          6           0       -0.434690   -0.415416    0.463677
     14          6           0        0.584982   -0.661152   -0.554694
     15          8           0        0.211302   -0.953905   -1.701694
     16          8           0        1.810057   -0.459236   -0.176056
     17          7           0       -7.083508    2.609582    0.404637
     18          6           0       -6.051832    3.352578    0.889598
     19          6           0       -6.322469    4.742679    0.770196
     20          6           0       -7.618545    4.765943    0.309759
     21          6           0       -8.104622    3.405167    0.139056
     22          6           0       -5.426415    5.846629    1.244969
     23          6           0       -8.468790    6.040643    0.000899
     24          6           0       -8.346510    7.179321    0.767588
     25          7           0       -9.191877    0.664975   -0.490147
     26          6           0       -9.917283    1.812671   -0.580481
     27          6           0      -11.196798    1.553608   -1.170149
     28          6           0      -11.251330    0.177789   -1.382540
     29          6           0       -9.996243   -0.362866   -0.959853
     30          6           0      -12.245197    2.522041   -1.490379
     31          6           0      -12.310164   -0.628726   -1.857616
     32          6           0      -12.312734   -1.063183   -3.231882
     33          7           0       -7.216681   -1.405489   -0.118447
     34          6           0       -8.327963   -2.199107   -0.488620
     35          6           0       -7.961108   -3.597453   -0.397321
     36          6           0       -6.612751   -3.547144   -0.117910
     37          6           0       -6.205318   -2.222236    0.166489
     38          6           0       -8.707268   -4.680742   -1.025509
     39          6           0       -5.445532   -4.378147    0.205155
     40          8           0       -5.194280   -5.573001    0.194818
     41          6           0       -4.266652   -3.369539    0.502460
     42          6           0       -3.572284   -3.747774    1.725672
     43          8           0       -3.691880   -3.203727    2.906875
     44          8           0       -2.699720   -4.764314    1.630009
     45          6           0       -2.136477   -5.216971    2.849295
     46          6           0        2.838631   -0.735149   -1.220454
     47          6           0        4.077560   -0.440910   -0.468345
     48          6           0        5.134878    0.311662   -0.915239
     49          6           0        4.995583    1.013863   -2.234289
     50          6           0        6.417889    0.375258   -0.163251
     51          6           0        7.644129   -0.009157   -0.935476
     52          6           0        8.905947    0.071719   -0.095170
     53          6           0       10.120552   -0.445472   -0.754524
     54          6           0        9.997601   -1.991099   -1.162189
     55          6           0       11.336045   -0.106361    0.132225
     56          6           0       12.765855   -0.390079   -0.505257
     57          6           0       13.916769   -0.159401    0.433005
     58          6           0       15.409939   -0.194207   -0.381224
     59          6           0       15.616542   -1.613393   -0.842324
     60          6           0       16.473920    0.376162    0.550186
     61          6           0       17.816158    0.553019   -0.178594
     62          6           0       18.932014    1.108971    0.629354
     63          6           0       20.340140    1.246906   -0.012177
     64          6           0       20.273292    1.915899   -1.363219
     65          6           0       21.196715    2.118815    1.003121
     66          1           0       -4.215040    3.430611    1.444331
     67          1           0      -10.011247    3.908849   -0.291054
     68          1           0      -10.455821   -2.275941   -1.103711
     69          1           0       -2.550554   -1.237317    1.844752
     70          1           0       -2.406673    1.673188    1.231920
     71          1           0       -1.768454    0.852894    3.537661
     72          1           0       -2.985610    2.186394    3.567623
     73          1           0       -3.692491    0.839653    4.116594
     74          1           0       -1.976764   -1.559068   -0.491364
     75          1           0       -2.179757   -0.047556   -0.710975
     76          1           0       -0.341473    0.581522    0.786209
     77          1           0       -0.391764   -0.857751    1.457659
     78          1           0       -5.735784    6.722216    0.555111
     79          1           0       -5.571670    6.256353    2.151536
     80          1           0       -4.307619    5.553012    0.985911
     81          1           0       -9.506526    5.945991   -0.593360
     82          1           0       -8.899305    8.049551    0.516864
     83          1           0       -7.580912    7.296705    1.725898
     84          1           0      -12.097503    2.990270   -2.341697
     85          1           0      -13.292143    1.933382   -1.264991
     86          1           0      -12.278364    3.166289   -0.751537
     87          1           0      -12.263341   -1.676024   -1.276252
     88          1           0      -13.278593   -0.160914   -1.733838
     89          1           0      -13.198446   -1.493837   -3.520988
     90          1           0      -12.368946   -0.028855   -3.815965
     91          1           0      -11.360034   -1.634935   -3.411155
     92          1           0       -9.343420   -4.476680   -2.015477
     93          1           0       -7.844531   -5.692464   -1.218971
     94          1           0       -9.349258   -5.106511   -0.200537
     95          1           0       -3.478296   -3.559376   -0.242066
     96          1           0       -1.938459   -4.289429    3.379153
     97          1           0       -2.869813   -5.740573    3.343113
     98          1           0       -1.251758   -5.822311    2.400724
     99          1           0        2.529057   -1.759753   -1.451703
    100          1           0        2.692597    0.011913   -2.069299
    101          1           0        4.123055   -0.893606    0.610910
    102          1           0        4.015533    0.959626   -2.695915
    103          1           0        5.351854    1.971343   -2.181444
    104          1           0        5.846049    0.750578   -2.992220
    105          1           0        6.501188    1.527592    0.184149
    106          1           0        6.470977   -0.221817    0.744979
    107          1           0        7.527571   -0.964454   -1.443245
    108          1           0        7.684810    0.796490   -1.758594
    109          1           0        9.039693    1.094717    0.240688
    110          1           0        8.895121   -0.614016    0.806457
    111          1           0       10.120178    0.045935   -1.685813
    112          1           0        9.104781   -2.204207   -1.708903
    113          1           0       10.811969   -2.226666   -2.098025
    114          1           0       10.337216   -2.742104   -0.282729
    115          1           0       11.303624    0.961384    0.271552
    116          1           0       11.397282   -0.679314    0.984544
    117          1           0       12.732564   -1.451149   -0.697293
    118          1           0       12.930171    0.102667   -1.435850
    119          1           0       13.858481    0.890414    0.996912
    120          1           0       13.961977   -0.908940    1.225053
    121          1           0       15.425792    0.518266   -1.354952
    122          1           0       15.568344   -2.319283    0.066905
    123          1           0       14.782607   -2.102643   -1.348494
    124          1           0       16.458622   -1.619040   -1.431195
    125          1           0       16.068819    1.343655    0.968377
    126          1           0       16.528967   -0.285711    1.383994
    127          1           0       18.167013   -0.373223   -0.189199
    128          1           0       17.880446    1.112637   -1.047893
    129          1           0       18.682316    2.089306    1.025246
    130          1           0       19.201858    0.312758    1.540828
    131          1           0       20.943005    0.293469   -0.160962
    132          1           0       19.901637    3.065937   -1.256853
    133          1           0       21.332565    2.124629   -1.882087
    134          1           0       19.668368    1.269242   -2.104768
    135          1           0       20.840270    1.660682    1.882908
    136          1           0       22.219307    1.747948    0.687607
    137          1           0       20.941380    3.287905    0.980465
 ---------------------------------------------------------------------

 SCF Done:  E(RCAM-B3LYP) =  -2932.60299027     A.U. after   17 cycles

 Excitation energies and oscillator strengths:

 Excited State   1:      Singlet-A      2.1092 eV  587.82 nm  f=0.2136  <S**2>=0.000
     240 -> 242       -0.20289
     240 -> 243        0.24710
     241 -> 242        0.60711
     241 -> 243        0.14610
 This state for optimization and/or second-order correction.
 Total Energy, E(TD-HF/TD-KS) =  -2932.52547775
 Copying the excited state density for this state as the 1-particle RhoCI density.

 The electronic state is 1-A.
 Alpha  occ. eigenvalues --  -46.84747 -19.26430 -19.25224 -19.19922 -19.19311
 Alpha  occ. eigenvalues --  -19.18689 -14.41707 -14.39231 -14.39160 -14.39051
 Alpha  occ. eigenvalues --  -10.38389 -10.38356 -10.34958 -10.32797 -10.31233
 Alpha  occ. eigenvalues --  -10.31061 -10.30473 -10.29864 -10.29582 -10.29343
 Alpha  occ. eigenvalues --  -10.29296 -10.29031 -10.28650 -10.28513 -10.28350
 Alpha  occ. eigenvalues --  -10.28095 -10.28067 -10.27804 -10.27759 -10.27722
 Alpha  occ. eigenvalues --  -10.27663 -10.27544 -10.27458 -10.27413 -10.27180
 Alpha  occ. eigenvalues --  -10.27144 -10.27114 -10.27075 -10.26850 -10.26798
 Alpha  occ. eigenvalues --  -10.26655 -10.26571 -10.26470 -10.26258 -10.26194
 Alpha  occ. eigenvalues --  -10.26182 -10.26114 -10.25982 -10.25924 -10.25923
 Alpha  occ. eigenvalues --  -10.25741 -10.25723 -10.25587 -10.25307 -10.25205
 Alpha  occ. eigenvalues --  -10.25183 -10.24914 -10.24869 -10.24729 -10.24624
 Alpha  occ. eigenvalues --  -10.24360 -10.24212 -10.24085 -10.24028 -10.22906
 Alpha  occ. eigenvalues --   -3.13674  -1.88393  -1.87920  -1.87830  -1.18769
 Alpha  occ. eigenvalues --   -1.17019  -1.10382  -1.07512  -1.05645  -1.04719
 Alpha  occ. eigenvalues --   -1.03719  -1.03393  -1.02573  -0.92838  -0.92225
 Alpha  occ. eigenvalues --   -0.90815  -0.90746  -0.90573  -0.90109  -0.89439
 Alpha  occ. eigenvalues --   -0.88573  -0.87963  -0.87852  -0.87303  -0.86374
 Alpha  occ. eigenvalues --   -0.85542  -0.84906  -0.84515  -0.83493  -0.83043
 Alpha  occ. eigenvalues --   -0.82122  -0.81903  -0.80919  -0.80483  -0.78719
 Alpha  occ. eigenvalues --   -0.77972  -0.77719  -0.76477  -0.76256  -0.75374
 Alpha  occ. eigenvalues --   -0.75115  -0.74732  -0.74665  -0.73316  -0.72424
 Alpha  occ. eigenvalues --   -0.71852  -0.70765  -0.69522  -0.68454  -0.68234
 Alpha  occ. eigenvalues --   -0.66996  -0.66680  -0.66016  -0.65489  -0.64514
 Alpha  occ. eigenvalues --   -0.63949  -0.63456  -0.63316  -0.62086  -0.62057
 Alpha  occ. eigenvalues --   -0.61164  -0.61084  -0.60791  -0.60332  -0.59350
 Alpha  occ. eigenvalues --   -0.59127  -0.58346  -0.57993  -0.57441  -0.57101
 Alpha  occ. eigenvalues --   -0.56719  -0.55888  -0.55758  -0.55602  -0.55454
 Alpha  occ. eigenvalues --   -0.54779  -0.54509  -0.54090  -0.53765  -0.53338
 Alpha  occ. eigenvalues --   -0.53150  -0.53109  -0.52768  -0.52306  -0.52129
 Alpha  occ. eigenvalues --   -0.51863  -0.51582  -0.51535  -0.51093  -0.50839
 Alpha  occ. eigenvalues --   -0.50650  -0.50380  -0.50088  -0.49699  -0.49482
 Alpha  occ. eigenvalues --   -0.49378  -0.49103  -0.48955  -0.48891  -0.48539
 Alpha  occ. eigenvalues --   -0.48370  -0.48198  -0.47750  -0.47727  -0.47420
 Alpha  occ. eigenvalues --   -0.47331  -0.46949  -0.46698  -0.46306  -0.46065
 Alpha  occ. eigenvalues --   -0.46007  -0.45873  -0.45655  -0.45178  -0.45117
 Alpha  occ. eigenvalues --   -0.44696  -0.44594  -0.44445  -0.44305  -0.44252
 Alpha  occ. eigenvalues --   -0.43894  -0.43883  -0.43598  -0.43493  -0.43024
 Alpha  occ. eigenvalues --   -0.42719  -0.42673  -0.42554  -0.42480  -0.42345
 Alpha  occ. eigenvalues --   -0.41976  -0.41598  -0.41373  -0.41223  -0.41002
 Alpha  occ. eigenvalues --   -0.40767  -0.40686  -0.40516  -0.40425  -0.40131
 Alpha  occ. eigenvalues --   -0.40026  -0.39772  -0.39660  -0.39161  -0.38976
 Alpha  occ. eigenvalues --   -0.38580  -0.38257  -0.38179  -0.38105  -0.37728
 Alpha  occ. eigenvalues --   -0.37311  -0.36987  -0.36849  -0.36785  -0.36443
 Alpha  occ. eigenvalues --   -0.36346  -0.36224  -0.35869  -0.35592  -0.35495
 Alpha  occ. eigenvalues --   -0.34967  -0.34926  -0.34004  -0.33087  -0.32750
 Alpha  occ. eigenvalues --   -0.32602  -0.32509  -0.31454  -0.30700  -0.29593
 Alpha  occ. eigenvalues --   -0.29258  -0.29138  -0.28506  -0.27928  -0.23115
 Alpha  occ. eigenvalues --   -0.21445
 Alpha virt. eigenvalues --   -0.06443  -0.03455   0.01658   0.03647   0.05007
 Alpha virt. eigenvalues --    0.05396   0.05417   0.06732   0.07108   0.07372
 Alpha virt. eigenvalues --    0.08493   0.10474   0.11155   0.11433   0.11684

 Mulliken charges:
               1
     1  Mg   0.825844
     2  C    0.140959
     3  C   -0.045649
     4  C   -0.173519
     5  C   -0.149477
     6  N   -0.626945
     7  C    0.293564
     8  C   -0.148378
     9  C   -0.138902
    10  C    0.332502
    11  C   -0.308188
    12  C   -0.173857
    13  C   -0.278572
    14  C    0.625037
    15  O   -0.513104
    16  O   -0.468547
    17  N   -0.747053
    18  C    0.276131
    19  C    0.036556
    20  C   -0.030157
    21  C    0.385182
    22  C   -0.369703
    23  C   -0.097974
    24  C   -0.228549
    25  N   -0.696760
    26  C    0.286985
    27  C   -0.018252
    28  C    0.110420
    29  C    0.277515
    30  C   -0.353907
    31  C   -0.277829
    32  C   -0.273852
    33  N   -0.727120
    34  C    0.249793
    35  C    0.041489
    36  C   -0.009916
    37  C    0.283204
    38  C   -0.370306
    39  C    0.383005
    40  O   -0.467616
    41  C   -0.351711
    42  C    0.616236
    43  O   -0.543703
    44  O   -0.444749
    45  C   -0.077777
    46  C    0.007597
    47  C   -0.141205
    48  C    0.147926
    49  C   -0.377256
    50  C   -0.222846
    51  C   -0.180170
    52  C   -0.153249
    53  C   -0.057550
    54  C   -0.313645
    55  C   -0.175433
    56  C   -0.186336
    57  C   -0.186903
    58  C   -0.057050
    59  C   -0.303678
    60  C   -0.169325
    61  C   -0.167063
    62  C   -0.182646
    63  C   -0.064593
    64  C   -0.289032
    65  C   -0.294194
    66  H   -0.057566
    67  H    0.081249
    68  H    0.082341
    69  H    0.131827
    70  H    0.113996
    71  H    0.096371
    72  H    0.102250
    73  H    0.116085
    74  H    0.105723
    75  H    0.112919
    76  H    0.137144
    77  H    0.129180
    78  H    0.117618
    79  H    0.143964
    80  H    0.105913
    81  H    0.099751
    82  H    0.113389
    83  H    0.096475
    84  H    0.137401
    85  H    0.091774
    86  H    0.129068
    87  H    0.081753
    88  H    0.099201
    89  H    0.119021
    90  H    0.077523
    91  H    0.101477
    92  H    0.120340
    93  H    0.105720
    94  H    0.129559
    95  H    0.172553
    96  H    0.143610
    97  H    0.141237
    98  H    0.112479
    99  H    0.147162
   100  H    0.130749
   101  H    0.094087
   102  H    0.115083
   103  H    0.129272
   104  H    0.105057
   105  H    0.080061
   106  H    0.108755
   107  H    0.106660
   108  H    0.079091
   109  H    0.095419
   110  H    0.080995
   111  H    0.088772
   112  H    0.116224
   113  H    0.068179
   114  H    0.091885
   115  H    0.094506
   116  H    0.099094
   117  H    0.097360
   118  H    0.097286
   119  H    0.063997
   120  H    0.090013
   121  H    0.058641
   122  H    0.082898
   123  H    0.108145
   124  H    0.112209
   125  H    0.083459
   126  H    0.093357
   127  H    0.114686
   128  H    0.103284
   129  H    0.091169
   130  H    0.053190
   131  H    0.085394
   132  H    0.077771
   133  H    0.080187
   134  H    0.096686
   135  H    0.112673
   136  H    0.097888
   137  H    0.091615
 Sum of Mulliken charges =   0.00000

 Dipole moment (field-independent basis, Debye):
    X=              1.5818    Y=              6.1321    Z=             -0.6328  Tot=              6.3643
 Quadrupole moment (field-independent basis, Debye-Ang):
   XX=           -327.9797   YY=           -392.2564   ZZ=           -401.7119
   XY=            -40.1016   XZ=              7.9964   YZ=              2.5271

 Normal termination of Gaussian 09 at Fri Jul  5 12:30:28 2019.
