 Gaussian 09, Revision D.01,
 Gaussian 09:  ES64L-G09RevD.01 24-Apr-2013

 -------------------------------------
 # td=(NStates=1) CAM-B3LYP/6-31G(d,p)
 -------------------------------------

 --
 TD
 --
 Symbolic Z-matrix:
 Charge =  0 Multiplicity = 1

                         Standard orientation:
 ---------------------------------------------------------------------
 Center     Atomic      Atomic             Coordinates (Angstroms)
 Number     Number       Type             X           Y           Z
 ---------------------------------------------------------------------
      1         12           0       -7.116155    0.618996    0.046674
      2          6           0       -4.809676   -1.981725    0.565614
      3          6           0       -4.907270    2.833098    1.268135
      4          6           0       -9.363120    3.127008   -0.556690
      5          6           0       -9.499398   -1.795858   -0.941012
      6          7           0       -5.141492    0.417786    0.827025
      7          6           0       -4.325516   -0.673597    0.941520
      8          6           0       -2.928072   -0.448170    1.454433
      9          6           0       -3.088995    1.147975    1.849019
     10          6           0       -4.418245    1.531402    1.206057
     11          6           0       -3.094540    1.258949    3.447236
     12          6           0       -1.892703   -0.631461    0.226769
     13          6           0       -0.429257   -0.464313    0.707886
     14          6           0        0.481498   -0.651552   -0.513715
     15          8           0        0.111711   -0.949430   -1.601067
     16          8           0        1.771931   -0.489665   -0.202480
     17          7           0       -7.015259    2.560157    0.362051
     18          6           0       -6.069030    3.298744    0.909352
     19          6           0       -6.387717    4.723497    0.874805
     20          6           0       -7.654003    4.852419    0.275527
     21          6           0       -8.105209    3.403355    0.085359
     22          6           0       -5.430428    5.769999    1.239934
     23          6           0       -8.470441    5.949830    0.107869
     24          6           0       -8.396670    7.088288    0.865374
     25          7           0       -9.122315    0.646157   -0.584438
     26          6           0       -9.830031    1.809392   -0.753292
     27          6           0      -11.214239    1.417077   -1.257825
     28          6           0      -11.199838    0.100214   -1.300609
     29          6           0       -9.895291   -0.426570   -0.905504
     30          6           0      -12.294434    2.367731   -1.561891
     31          6           0      -12.359065   -0.769531   -1.739700
     32          6           0      -12.362720   -1.003532   -3.318658
     33          7           0       -7.230432   -1.419518   -0.189462
     34          6           0       -8.202441   -2.348660   -0.564781
     35          6           0       -7.772266   -3.661096   -0.530493
     36          6           0       -6.469963   -3.570254   -0.090598
     37          6           0       -6.147905   -2.184480    0.135133
     38          6           0       -8.566157   -4.808803   -0.954873
     39          6           0       -5.292784   -4.350255    0.215808
     40          8           0       -5.041019   -5.563046    0.184549
     41          6           0       -4.077286   -3.321793    0.521787
     42          6           0       -3.493505   -3.754466    1.908998
     43          8           0       -3.719791   -3.200506    3.027860
     44          8           0       -2.694390   -4.786230    1.742460
     45          6           0       -1.991085   -5.249541    2.856519
     46          6           0        2.715511   -0.484764   -1.184691
     47          6           0        4.161140   -0.264604   -0.572430
     48          6           0        5.100362    0.566709   -1.061422
     49          6           0        5.055153    1.312085   -2.422803
     50          6           0        6.415123    0.558280   -0.322446
     51          6           0        7.509408    0.075194   -1.048751
     52          6           0        8.872517    0.134385   -0.184402
     53          6           0       10.044066   -0.442941   -0.862973
     54          6           0       10.053574   -1.995014   -1.306985
     55          6           0       11.400223   -0.206187    0.001082
     56          6           0       12.691774   -0.451829   -0.777303
     57          6           0       13.956680   -0.155613    0.174333
     58          6           0       15.406549   -0.138658   -0.501578
     59          6           0       15.659042   -1.637687   -0.998783
     60          6           0       16.304987    0.468312    0.423551
     61          6           0       17.766312    0.478089   -0.158307
     62          6           0       18.803210    1.170608    0.748985
     63          6           0       20.182377    1.210365    0.169194
     64          6           0       20.318407    1.921723   -1.067160
     65          6           0       21.177514    1.787771    1.330331
     66          1           0       -4.122104    3.457896    1.705838
     67          1           0      -10.000351    4.001932   -0.883964
     68          1           0      -10.416563   -2.362784   -1.226486
     69          1           0       -2.709617   -1.103845    2.279155
     70          1           0       -2.430642    1.664635    1.373501
     71          1           0       -2.157580    0.924881    3.649106
     72          1           0       -3.043466    2.185151    3.896816
     73          1           0       -3.931378    0.667757    3.913988
     74          1           0       -2.062397   -1.667722   -0.460803
     75          1           0       -2.131223    0.078071   -0.403195
     76          1           0       -0.392596    0.663253    1.113579
     77          1           0       -0.131304   -1.137902    1.679757
     78          1           0       -5.524193    6.670452    0.571802
     79          1           0       -5.561793    6.002635    2.219615
     80          1           0       -4.405013    5.466153    1.018438
     81          1           0       -9.169129    6.080759   -0.590251
     82          1           0       -9.054180    7.936964    0.617453
     83          1           0       -7.835420    7.348286    1.658320
     84          1           0      -11.976534    3.405525   -2.184234
     85          1           0      -13.186910    1.754049   -2.121006
     86          1           0      -12.516737    2.860549   -0.471276
     87          1           0      -12.292510   -1.740932   -1.253293
     88          1           0      -13.379950   -0.403540   -1.458929
     89          1           0      -13.195104   -1.720023   -3.449029
     90          1           0      -12.397333   -0.087046   -3.759570
     91          1           0      -11.325445   -1.464265   -3.755228
     92          1           0       -8.701220   -4.797224   -2.115609
     93          1           0       -8.112444   -5.861861   -0.631253
     94          1           0       -9.596152   -4.816617   -0.596727
     95          1           0       -3.628344   -3.497744   -0.485539
     96          1           0       -1.407493   -4.296364    3.181595
     97          1           0       -2.651679   -5.470304    3.660169
     98          1           0       -1.281804   -5.982112    2.500665
     99          1           0        2.807637   -1.504343   -1.672387
    100          1           0        2.477556    0.167551   -2.045374
    101          1           0        4.282113   -0.778929    0.331159
    102          1           0        3.897101    1.529357   -2.814308
    103          1           0        5.355964    2.450856   -2.347780
    104          1           0        5.770330    0.736811   -3.111794
    105          1           0        6.691404    1.502778   -0.020693
    106          1           0        6.176300   -0.093507    0.570298
    107          1           0        7.326439   -0.988380   -1.084183
    108          1           0        7.706713    0.449544   -2.224171
    109          1           0        8.867944    1.199985   -0.192888
    110          1           0        8.555912   -0.108727    0.935568
    111          1           0       10.172753    0.084592   -1.874375
    112          1           0        9.168970   -2.100498   -1.852583
    113          1           0       10.953424   -2.313841   -1.597714
    114          1           0        9.727898   -2.525105   -0.424679
    115          1           0       11.326615    0.782456    0.480015
    116          1           0       11.396132   -0.917435    0.976657
    117          1           0       12.720196   -1.664616   -1.200210
    118          1           0       12.748045    0.202002   -1.548725
    119          1           0       13.693005    0.875363    0.553907
    120          1           0       14.111110   -0.836118    0.948408
    121          1           0       15.303386    0.499899   -1.590800
    122          1           0       15.882244   -2.211485   -0.144735
    123          1           0       14.778716   -2.054180   -1.459177
    124          1           0       16.637385   -1.518506   -1.587730
    125          1           0       15.863500    1.470840    0.434104
    126          1           0       16.434034    0.067592    1.270186
    127          1           0       18.006839   -0.649780   -0.220892
    128          1           0       17.938503    0.896358   -1.176787
    129          1           0       18.359953    2.077333    0.925339
    130          1           0       18.877880    0.647288    1.709755
    131          1           0       20.583373    0.104718    0.344701
    132          1           0       20.011087    2.991066   -0.826115
    133          1           0       21.312616    2.038043   -1.558647
    134          1           0       19.866724    1.563710   -1.904173
    135          1           0       21.204763    0.915807    2.191496
    136          1           0       22.346747    1.545214    1.057122
    137          1           0       21.103348    2.821345    1.576291
 ---------------------------------------------------------------------

 SCF Done:  E(RCAM-B3LYP) =  -2932.62713394     A.U. after   18 cycles

 Excitation energies and oscillator strengths:

 Excited State   1:      Singlet-A      1.9796 eV  626.32 nm  f=0.2759  <S**2>=0.000
     240 -> 243        0.23637
     241 -> 242        0.65731
 This state for optimization and/or second-order correction.
 Total Energy, E(TD-HF/TD-KS) =  -2932.55438653
 Copying the excited state density for this state as the 1-particle RhoCI density.

 The electronic state is 1-A.
 Alpha  occ. eigenvalues --  -46.84298 -19.26653 -19.26511 -19.21523 -19.20421
 Alpha  occ. eigenvalues --  -19.19181 -14.42227 -14.39903 -14.39337 -14.38999
 Alpha  occ. eigenvalues --  -10.39909 -10.39678 -10.34285 -10.32023 -10.31174
 Alpha  occ. eigenvalues --  -10.30919 -10.30870 -10.30455 -10.30210 -10.29692
 Alpha  occ. eigenvalues --  -10.29598 -10.29005 -10.28955 -10.28719 -10.28618
 Alpha  occ. eigenvalues --  -10.28582 -10.28205 -10.28026 -10.27876 -10.27758
 Alpha  occ. eigenvalues --  -10.27647 -10.27596 -10.27294 -10.27206 -10.27094
 Alpha  occ. eigenvalues --  -10.27082 -10.26995 -10.26798 -10.26797 -10.26753
 Alpha  occ. eigenvalues --  -10.26689 -10.26601 -10.26596 -10.26516 -10.26457
 Alpha  occ. eigenvalues --  -10.26214 -10.26091 -10.26064 -10.26055 -10.25985
 Alpha  occ. eigenvalues --  -10.25837 -10.25716 -10.25425 -10.25334 -10.25330
 Alpha  occ. eigenvalues --  -10.25192 -10.25013 -10.24988 -10.24810 -10.24512
 Alpha  occ. eigenvalues --  -10.24163 -10.24092 -10.23620 -10.23347 -10.22957
 Alpha  occ. eigenvalues --   -3.13344  -1.88049  -1.87603  -1.87508  -1.20550
 Alpha  occ. eigenvalues --   -1.19177  -1.11467  -1.08740  -1.06887  -1.04495
 Alpha  occ. eigenvalues --   -1.03255  -1.02863  -1.02045  -0.92118  -0.91300
 Alpha  occ. eigenvalues --   -0.90964  -0.90357  -0.89118  -0.89079  -0.88951
 Alpha  occ. eigenvalues --   -0.88240  -0.88200  -0.87214  -0.86677  -0.85909
 Alpha  occ. eigenvalues --   -0.85136  -0.84324  -0.83287  -0.82964  -0.82313
 Alpha  occ. eigenvalues --   -0.81297  -0.81118  -0.80222  -0.79618  -0.78003
 Alpha  occ. eigenvalues --   -0.77467  -0.76605  -0.76446  -0.76397  -0.76003
 Alpha  occ. eigenvalues --   -0.75285  -0.74854  -0.74606  -0.73452  -0.72147
 Alpha  occ. eigenvalues --   -0.71652  -0.70016  -0.69493  -0.69079  -0.68408
 Alpha  occ. eigenvalues --   -0.67396  -0.66564  -0.66154  -0.64702  -0.64577
 Alpha  occ. eigenvalues --   -0.63959  -0.63695  -0.62876  -0.62595  -0.62484
 Alpha  occ. eigenvalues --   -0.61715  -0.61614  -0.60207  -0.59442  -0.59127
 Alpha  occ. eigenvalues --   -0.58744  -0.58043  -0.57553  -0.57337  -0.56717
 Alpha  occ. eigenvalues --   -0.56378  -0.55893  -0.55734  -0.55558  -0.55311
 Alpha  occ. eigenvalues --   -0.54681  -0.54173  -0.54092  -0.54047  -0.53302
 Alpha  occ. eigenvalues --   -0.53087  -0.52469  -0.52372  -0.52077  -0.51820
 Alpha  occ. eigenvalues --   -0.51299  -0.51092  -0.50811  -0.50567  -0.50485
 Alpha  occ. eigenvalues --   -0.50397  -0.50260  -0.50099  -0.49767  -0.49267
 Alpha  occ. eigenvalues --   -0.49054  -0.48679  -0.48550  -0.48285  -0.48150
 Alpha  occ. eigenvalues --   -0.48097  -0.48050  -0.47665  -0.47628  -0.47141
 Alpha  occ. eigenvalues --   -0.46983  -0.46688  -0.46445  -0.46272  -0.45861
 Alpha  occ. eigenvalues --   -0.45717  -0.45641  -0.45223  -0.45038  -0.44872
 Alpha  occ. eigenvalues --   -0.44652  -0.44409  -0.44166  -0.44072  -0.43922
 Alpha  occ. eigenvalues --   -0.43797  -0.43628  -0.43568  -0.43005  -0.42956
 Alpha  occ. eigenvalues --   -0.42915  -0.42769  -0.42597  -0.42444  -0.42323
 Alpha  occ. eigenvalues --   -0.42213  -0.42112  -0.41877  -0.41624  -0.41318
 Alpha  occ. eigenvalues --   -0.41213  -0.41030  -0.40801  -0.40408  -0.40321
 Alpha  occ. eigenvalues --   -0.40161  -0.39907  -0.39672  -0.39544  -0.38893
 Alpha  occ. eigenvalues --   -0.38842  -0.38507  -0.38181  -0.37753  -0.37674
 Alpha  occ. eigenvalues --   -0.37447  -0.37179  -0.37025  -0.36546  -0.36400
 Alpha  occ. eigenvalues --   -0.36290  -0.35965  -0.35755  -0.35288  -0.35254
 Alpha  occ. eigenvalues --   -0.35067  -0.34558  -0.34475  -0.33872  -0.33307
 Alpha  occ. eigenvalues --   -0.33098  -0.32057  -0.31870  -0.30692  -0.29914
 Alpha  occ. eigenvalues --   -0.29082  -0.28675  -0.28165  -0.27466  -0.22755
 Alpha  occ. eigenvalues --   -0.20558
 Alpha virt. eigenvalues --   -0.06382  -0.02637   0.01541   0.03610   0.05561
 Alpha virt. eigenvalues --    0.05681   0.05893   0.06629   0.06889   0.07495
 Alpha virt. eigenvalues --    0.08806   0.10401   0.11028   0.11272   0.11570

 Mulliken charges:
               1
     1  Mg   0.820998
     2  C    0.039148
     3  C   -0.231115
     4  C   -0.191299
     5  C   -0.170066
     6  N   -0.621286
     7  C    0.305609
     8  C   -0.173396
     9  C   -0.137316
    10  C    0.297391
    11  C   -0.308138
    12  C   -0.153255
    13  C   -0.275280
    14  C    0.615716
    15  O   -0.446680
    16  O   -0.445177
    17  N   -0.726408
    18  C    0.415279
    19  C    0.001225
    20  C    0.032934
    21  C    0.273506
    22  C   -0.374570
    23  C   -0.095125
    24  C   -0.234370
    25  N   -0.697715
    26  C    0.285501
    27  C    0.062373
    28  C    0.022467
    29  C    0.304791
    30  C   -0.368296
    31  C   -0.265927
    32  C   -0.298423
    33  N   -0.722611
    34  C    0.242255
    35  C    0.096589
    36  C    0.003439
    37  C    0.319882
    38  C   -0.389058
    39  C    0.309872
    40  O   -0.482222
    41  C   -0.317277
    42  C    0.632479
    43  O   -0.517042
    44  O   -0.403707
    45  C   -0.080541
    46  C    0.013182
    47  C   -0.147670
    48  C    0.124105
    49  C   -0.353901
    50  C   -0.216564
    51  C   -0.177338
    52  C   -0.187158
    53  C   -0.060381
    54  C   -0.313844
    55  C   -0.173324
    56  C   -0.162167
    57  C   -0.180318
    58  C   -0.067380
    59  C   -0.317881
    60  C   -0.124601
    61  C   -0.210401
    62  C   -0.149425
    63  C   -0.044239
    64  C   -0.306944
    65  C   -0.310965
    66  H    0.079724
    67  H    0.099463
    68  H    0.088381
    69  H    0.136964
    70  H    0.097545
    71  H    0.121105
    72  H    0.112268
    73  H    0.132668
    74  H    0.105594
    75  H    0.125701
    76  H    0.117457
    77  H    0.124729
    78  H    0.120844
    79  H    0.136112
    80  H    0.115209
    81  H    0.092916
    82  H    0.090777
    83  H    0.105136
    84  H    0.095784
    85  H    0.105289
    86  H    0.113250
    87  H    0.104101
    88  H    0.103849
    89  H    0.107268
    90  H    0.124188
    91  H    0.088528
    92  H    0.118369
    93  H    0.131481
    94  H    0.124184
    95  H    0.176720
    96  H    0.101244
    97  H    0.146657
    98  H    0.131737
    99  H    0.108749
   100  H    0.110332
   101  H    0.095746
   102  H    0.093908
   103  H    0.104668
   104  H    0.130371
   105  H    0.097943
   106  H    0.097954
   107  H    0.099898
   108  H    0.069500
   109  H    0.107366
   110  H    0.082530
   111  H    0.077925
   112  H    0.108029
   113  H    0.112735
   114  H    0.098992
   115  H    0.089616
   116  H    0.067704
   117  H    0.055766
   118  H    0.111565
   119  H    0.077930
   120  H    0.098442
   121  H    0.040460
   122  H    0.100354
   123  H    0.108961
   124  H    0.099607
   125  H    0.097095
   126  H    0.098644
   127  H    0.077752
   128  H    0.091059
   129  H    0.094579
   130  H    0.083265
   131  H    0.073016
   132  H    0.095054
   133  H    0.098783
   134  H    0.117165
   135  H    0.079775
   136  H    0.070991
   137  H    0.112594
 Sum of Mulliken charges =   0.00000

 Dipole moment (field-independent basis, Debye):
    X=              2.0446    Y=              6.1867    Z=              0.4531  Tot=              6.5315
 Quadrupole moment (field-independent basis, Debye-Ang):
   XX=           -358.2951   YY=           -391.9090   ZZ=           -397.3722
   XY=            -25.3322   XZ=             12.9162   YZ=             -1.3960

 Normal termination of Gaussian 09 at Wed Jul  3 17:58:53 2019.
