 Gaussian 16, Revision A.03,
 Gaussian 16:  ES64L-G16RevA.03 25-Dec-2016

 ----------------------------------------------------------------------
 # td=(NStates=1) iop(3/107=0140000000,3/108=0140000000) CAM-B3LYP/6-31
 G(d,p)
 ----------------------------------------------------------------------

 --
 TD
 --
 Symbolic Z-matrix:
 Charge =  0 Multiplicity = 1

                         Standard orientation:
 ---------------------------------------------------------------------
 Center     Atomic      Atomic             Coordinates (Angstroms)
 Number     Number       Type             X           Y           Z
 ---------------------------------------------------------------------
      1         12           0       -7.077088    0.631204    0.172883
      2          6           0       -4.868530   -1.971295    0.475376
      3          6           0       -4.777429    2.799154    1.249494
      4          6           0       -9.349776    3.096068   -0.346608
      5          6           0       -9.456314   -1.732304   -0.787513
      6          7           0       -5.153795    0.358156    0.915721
      7          6           0       -4.268878   -0.738380    0.913860
      8          6           0       -2.891406   -0.401072    1.212579
      9          6           0       -3.023440    0.990676    1.749710
     10          6           0       -4.418881    1.504262    1.241604
     11          6           0       -2.928539    1.136377    3.293979
     12          6           0       -1.843889   -0.602274    0.060271
     13          6           0       -0.402494   -0.510455    0.661413
     14          6           0        0.549482   -0.640485   -0.567604
     15          8           0        0.259409   -1.127544   -1.589096
     16          8           0        1.791112   -0.294115   -0.138434
     17          7           0       -7.068165    2.559574    0.303722
     18          6           0       -5.996507    3.292095    0.785703
     19          6           0       -6.350958    4.689154    0.795563
     20          6           0       -7.687168    4.773683    0.405127
     21          6           0       -8.076645    3.435439    0.083535
     22          6           0       -5.461608    5.735854    1.277213
     23          6           0       -8.482041    5.955442    0.109133
     24          6           0       -8.338752    7.214526    0.580071
     25          7           0       -9.034479    0.732380   -0.580848
     26          6           0       -9.847342    1.803432   -0.679023
     27          6           0      -11.174817    1.453588   -1.176063
     28          6           0      -11.159291    0.036944   -1.319346
     29          6           0       -9.826520   -0.349950   -0.980436
     30          6           0      -12.266929    2.492972   -1.438387
     31          6           0      -12.241118   -0.821716   -1.825004
     32          6           0      -12.153697   -0.982756   -3.283795
     33          7           0       -7.200142   -1.359335   -0.115114
     34          6           0       -8.249606   -2.166013   -0.402857
     35          6           0       -7.849290   -3.605937   -0.523425
     36          6           0       -6.540417   -3.561017   -0.145223
     37          6           0       -6.168012   -2.136694    0.088172
     38          6           0       -8.718011   -4.669275   -0.859849
     39          6           0       -5.272747   -4.360913    0.233562
     40          8           0       -5.257646   -5.581562    0.283612
     41          6           0       -4.151713   -3.244447    0.572161
     42          6           0       -3.407543   -3.714934    1.771968
     43          8           0       -3.718973   -3.183626    2.886771
     44          8           0       -2.626633   -4.760875    1.707782
     45          6           0       -2.071806   -5.203315    2.884541
     46          6           0        2.805987   -0.469920   -1.225691
     47          6           0        4.143962   -0.404437   -0.517197
     48          6           0        5.126902    0.413055   -0.908012
     49          6           0        5.024894    1.216730   -2.229945
     50          6           0        6.437164    0.476617   -0.196372
     51          6           0        7.610925   -0.065906   -1.079067
     52          6           0        8.885220    0.000458   -0.270316
     53          6           0       10.180731   -0.425556   -1.030979
     54          6           0        9.896659   -1.918604   -1.546318
     55          6           0       11.351901   -0.285482   -0.140142
     56          6           0       12.698810   -0.589667   -0.717501
     57          6           0       13.865258   -0.110809    0.097656
     58          6           0       15.293365   -0.213966   -0.446133
     59          6           0       15.546578   -1.649371   -0.854584
     60          6           0       16.278308    0.427079    0.485482
     61          6           0       17.609475    0.604628   -0.179717
     62          6           0       18.643656    1.293868    0.732893
     63          6           0       20.116633    1.329525    0.280666
     64          6           0       20.270175    2.003202   -1.112114
     65          6           0       21.009384    1.840614    1.434394
     66          1           0       -4.022875    3.351118    1.823841
     67          1           0      -10.146143    3.890824   -0.324263
     68          1           0      -10.272564   -2.359794   -1.177891
     69          1           0       -2.536819   -0.990638    1.961474
     70          1           0       -2.215152    1.731812    1.452366
     71          1           0       -1.966459    1.034370    3.696520
     72          1           0       -3.145383    2.161989    3.554058
     73          1           0       -3.689597    0.606639    3.550230
     74          1           0       -2.189163   -1.538666   -0.374926
     75          1           0       -1.978582    0.218001   -0.555081
     76          1           0       -0.366717    0.613303    1.109342
     77          1           0       -0.290026   -1.391675    1.313025
     78          1           0       -5.564290    6.759745    0.859725
     79          1           0       -5.546032    5.762247    2.417737
     80          1           0       -4.565822    5.446898    1.057204
     81          1           0       -9.191743    6.042577   -0.788286
     82          1           0       -8.883749    8.026008    0.247199
     83          1           0       -7.558494    7.438434    1.303346
     84          1           0      -12.283767    3.079208   -2.468068
     85          1           0      -13.097946    1.829146   -1.686129
     86          1           0      -12.352675    3.236930   -0.667719
     87          1           0      -12.223885   -1.854412   -1.385996
     88          1           0      -13.405679   -0.497461   -1.541073
     89          1           0      -13.014441   -1.764178   -3.616746
     90          1           0      -12.249567   -0.193494   -3.974200
     91          1           0      -11.219273   -1.375547   -3.487630
     92          1           0       -8.684250   -4.465875   -1.997215
     93          1           0       -7.910312   -5.650211   -0.936058
     94          1           0       -9.605097   -4.949778   -0.323138
     95          1           0       -3.555497   -3.278097   -0.381044
     96          1           0       -1.574093   -4.340482    3.364688
     97          1           0       -2.914823   -5.675658    3.532578
     98          1           0       -1.340426   -5.953481    2.647482
     99          1           0        2.482941   -1.476521   -1.610410
    100          1           0        2.617984    0.297935   -1.773236
    101          1           0        4.178713   -1.237089    0.218916
    102          1           0        4.112354    1.061111   -2.845605
    103          1           0        5.284312    2.202797   -2.059047
    104          1           0        5.976008    0.761037   -2.840589
    105          1           0        6.687070    1.532592    0.353227
    106          1           0        6.262659   -0.148010    0.844139
    107          1           0        7.044519   -1.156611   -1.293222
    108          1           0        7.696459    0.657308   -2.102509
    109          1           0        8.931470    1.201225    0.011568
    110          1           0        8.752107   -0.562334    0.653806
    111          1           0       10.285742    0.082509   -1.870244
    112          1           0        9.163630   -2.014274   -2.268878
    113          1           0       10.874990   -2.567669   -2.082447
    114          1           0        9.724735   -2.649889   -0.719312
    115          1           0       11.191581    0.875000    0.035356
    116          1           0       11.091913   -0.829511    0.742745
    117          1           0       12.933731   -1.638595   -0.931852
    118          1           0       12.792229   -0.095088   -1.718022
    119          1           0       13.743192    0.983021    0.528819
    120          1           0       13.680001   -0.699495    1.159713
    121          1           0       15.471349    0.282809   -1.417970
    122          1           0       15.306822   -2.482275    0.215691
    123          1           0       14.899262   -2.038840   -1.531739
    124          1           0       16.752358   -1.921964   -1.086244
    125          1           0       16.021950    1.462752    0.907777
    126          1           0       16.601118   -0.237771    1.280306
    127          1           0       18.185497   -0.440234   -0.366585
    128          1           0       17.561559    1.111043   -1.026449
    129          1           0       18.200781    2.276161    0.814482
    130          1           0       18.444690    0.614497    1.664759
    131          1           0       20.531367    0.441486   -0.098493
    132          1           0       19.898630    3.126571   -1.111386
    133          1           0       21.266926    2.154582   -1.448734
    134          1           0       19.785919    1.496050   -1.828353
    135          1           0       21.000102    1.239476    2.308171
    136          1           0       22.159836    1.849281    1.177334
    137          1           0       20.767694    2.698089    1.843721
 ---------------------------------------------------------------------

 SCF Done:  E(RCAM-B3LYP) =  -2933.45867134     A.U. after   16 cycles

 Excitation energies and oscillator strengths:

 Excited State   1:      Singlet-A      2.1158 eV  585.99 nm  f=0.1838  <S**2>=0.000
     240 -> 243        0.27713
     241 -> 242        0.64611
 This state for optimization and/or second-order correction.
 Total Energy, E(TD-HF/TD-DFT) =  -2933.38091646
 Copying the excited state density for this state as the 1-particle RhoCI density.

 The electronic state is 1-A.
 Alpha  occ. eigenvalues --  -46.78540 -19.23668 -19.21102 -19.17543 -19.17280
 Alpha  occ. eigenvalues --  -19.15490 -14.37168 -14.34935 -14.34816 -14.34060
 Alpha  occ. eigenvalues --  -10.35081 -10.34194 -10.31900 -10.27525 -10.26704
 Alpha  occ. eigenvalues --  -10.26107 -10.25376 -10.25177 -10.25176 -10.24902
 Alpha  occ. eigenvalues --  -10.24579 -10.24387 -10.24243 -10.23984 -10.23878
 Alpha  occ. eigenvalues --  -10.23853 -10.23766 -10.23709 -10.23500 -10.23211
 Alpha  occ. eigenvalues --  -10.23190 -10.23184 -10.23053 -10.22944 -10.22873
 Alpha  occ. eigenvalues --  -10.22591 -10.22436 -10.22330 -10.22246 -10.22198
 Alpha  occ. eigenvalues --  -10.22147 -10.21952 -10.21946 -10.21846 -10.21795
 Alpha  occ. eigenvalues --  -10.21770 -10.21674 -10.21611 -10.21579 -10.21485
 Alpha  occ. eigenvalues --  -10.21461 -10.21429 -10.21346 -10.21323 -10.21095
 Alpha  occ. eigenvalues --  -10.21086 -10.21045 -10.20927 -10.20409 -10.20216
 Alpha  occ. eigenvalues --  -10.20134 -10.19909 -10.19692 -10.19304 -10.19174
 Alpha  occ. eigenvalues --   -3.07428  -1.82351  -1.81899  -1.81860  -1.15892
 Alpha  occ. eigenvalues --   -1.13615  -1.06454  -1.05661  -1.02007  -0.99968
 Alpha  occ. eigenvalues --   -0.98419  -0.97148  -0.96325  -0.87877  -0.86762
 Alpha  occ. eigenvalues --   -0.86186  -0.85393  -0.85143  -0.84422  -0.83793
 Alpha  occ. eigenvalues --   -0.83464  -0.83337  -0.83238  -0.81661  -0.81171
 Alpha  occ. eigenvalues --   -0.80604  -0.79723  -0.78954  -0.78620  -0.77862
 Alpha  occ. eigenvalues --   -0.77372  -0.76989  -0.75719  -0.74905  -0.73850
 Alpha  occ. eigenvalues --   -0.73666  -0.72726  -0.72472  -0.71885  -0.71401
 Alpha  occ. eigenvalues --   -0.70357  -0.70154  -0.70026  -0.68494  -0.67468
 Alpha  occ. eigenvalues --   -0.66852  -0.65964  -0.64911  -0.64676  -0.63408
 Alpha  occ. eigenvalues --   -0.62436  -0.62032  -0.60876  -0.60432  -0.60278
 Alpha  occ. eigenvalues --   -0.60266  -0.59963  -0.59439  -0.58714  -0.58357
 Alpha  occ. eigenvalues --   -0.57911  -0.56578  -0.56300  -0.55640  -0.55199
 Alpha  occ. eigenvalues --   -0.54946  -0.54238  -0.53986  -0.53727  -0.53236
 Alpha  occ. eigenvalues --   -0.52685  -0.51952  -0.51737  -0.51545  -0.51331
 Alpha  occ. eigenvalues --   -0.51245  -0.51154  -0.50932  -0.50339  -0.49586
 Alpha  occ. eigenvalues --   -0.49432  -0.49062  -0.48690  -0.48411  -0.48223
 Alpha  occ. eigenvalues --   -0.47919  -0.47814  -0.47539  -0.47418  -0.47190
 Alpha  occ. eigenvalues --   -0.46752  -0.46684  -0.46433  -0.46277  -0.46129
 Alpha  occ. eigenvalues --   -0.45982  -0.45544  -0.45411  -0.45232  -0.44878
 Alpha  occ. eigenvalues --   -0.44772  -0.44493  -0.44397  -0.44218  -0.43915
 Alpha  occ. eigenvalues --   -0.43601  -0.43473  -0.43461  -0.42941  -0.42764
 Alpha  occ. eigenvalues --   -0.42461  -0.42050  -0.42016  -0.41858  -0.41609
 Alpha  occ. eigenvalues --   -0.41143  -0.41039  -0.40890  -0.40804  -0.40694
 Alpha  occ. eigenvalues --   -0.40457  -0.40331  -0.40211  -0.39898  -0.39823
 Alpha  occ. eigenvalues --   -0.39612  -0.39513  -0.39407  -0.39142  -0.38890
 Alpha  occ. eigenvalues --   -0.38805  -0.38451  -0.38117  -0.38055  -0.37847
 Alpha  occ. eigenvalues --   -0.37644  -0.37560  -0.37482  -0.37263  -0.37075
 Alpha  occ. eigenvalues --   -0.36749  -0.36218  -0.36176  -0.35929  -0.35916
 Alpha  occ. eigenvalues --   -0.35754  -0.35623  -0.35565  -0.34876  -0.34537
 Alpha  occ. eigenvalues --   -0.34463  -0.33865  -0.33432  -0.33398  -0.33363
 Alpha  occ. eigenvalues --   -0.33127  -0.32995  -0.32872  -0.32841  -0.32532
 Alpha  occ. eigenvalues --   -0.32457  -0.32278  -0.31829  -0.31593  -0.31232
 Alpha  occ. eigenvalues --   -0.30094  -0.29605  -0.29091  -0.27936  -0.27368
 Alpha  occ. eigenvalues --   -0.27328  -0.26749  -0.24823  -0.24364  -0.21266
 Alpha  occ. eigenvalues --   -0.19510
 Alpha virt. eigenvalues --   -0.05884  -0.03968  -0.00217   0.02465   0.03115
 Alpha virt. eigenvalues --    0.03293   0.04544   0.05258   0.05633   0.05841
 Alpha virt. eigenvalues --    0.06442   0.08520   0.08889   0.09190   0.09902

 Mulliken charges:
               1
     1  Mg   0.801573
     2  C    0.040429
     3  C   -0.188801
     4  C   -0.176472
     5  C   -0.180951
     6  N   -0.658591
     7  C    0.332718
     8  C   -0.133322
     9  C   -0.184218
    10  C    0.338664
    11  C   -0.296365
    12  C   -0.157119
    13  C   -0.266443
    14  C    0.603924
    15  O   -0.436247
    16  O   -0.495954
    17  N   -0.747573
    18  C    0.322348
    19  C    0.012619
    20  C    0.024566
    21  C    0.324780
    22  C   -0.369024
    23  C   -0.093123
    24  C   -0.243795
    25  N   -0.667121
    26  C    0.296981
    27  C    0.021748
    28  C    0.043627
    29  C    0.254844
    30  C   -0.372372
    31  C   -0.260684
    32  C   -0.285501
    33  N   -0.720019
    34  C    0.296629
    35  C    0.032084
    36  C    0.008082
    37  C    0.339329
    38  C   -0.404275
    39  C    0.372383
    40  O   -0.447733
    41  C   -0.326586
    42  C    0.611571
    43  O   -0.511821
    44  O   -0.397461
    45  C   -0.083033
    46  C    0.016176
    47  C   -0.111726
    48  C    0.116906
    49  C   -0.358076
    50  C   -0.228285
    51  C   -0.149722
    52  C   -0.157630
    53  C   -0.052950
    54  C   -0.317864
    55  C   -0.141715
    56  C   -0.175566
    57  C   -0.156015
    58  C   -0.030936
    59  C   -0.281159
    60  C   -0.156971
    61  C   -0.198268
    62  C   -0.162997
    63  C   -0.041752
    64  C   -0.327996
    65  C   -0.316978
    66  H    0.085080
    67  H    0.083825
    68  H    0.079295
    69  H    0.121452
    70  H    0.077922
    71  H    0.113636
    72  H    0.098716
    73  H    0.136789
    74  H    0.112305
    75  H    0.120576
    76  H    0.118054
    77  H    0.138472
    78  H    0.114460
    79  H    0.115871
    80  H    0.121823
    81  H    0.090864
    82  H    0.099932
    83  H    0.090282
    84  H    0.100830
    85  H    0.115360
    86  H    0.126611
    87  H    0.105248
    88  H    0.079108
    89  H    0.069317
    90  H    0.119336
    91  H    0.116292
    92  H    0.140336
    93  H    0.116337
    94  H    0.146394
    95  H    0.158843
    96  H    0.124125
    97  H    0.128011
    98  H    0.124821
    99  H    0.132055
   100  H    0.114030
   101  H    0.091725
   102  H    0.115954
   103  H    0.131691
   104  H    0.100934
   105  H    0.081953
   106  H    0.083773
   107  H    0.088686
   108  H    0.077194
   109  H    0.067786
   110  H    0.104054
   111  H    0.095418
   112  H    0.121411
   113  H    0.047599
   114  H    0.097794
   115  H    0.076033
   116  H    0.093100
   117  H    0.104533
   118  H    0.082030
   119  H    0.066656
   120  H    0.061899
   121  H    0.091322
   122  H    0.022811
   123  H    0.128474
   124  H    0.081531
   125  H    0.086259
   126  H    0.100592
   127  H    0.065110
   128  H    0.101085
   129  H    0.091486
   130  H    0.073047
   131  H    0.097579
   132  H    0.069290
   133  H    0.106272
   134  H    0.119653
   135  H    0.106381
   136  H    0.075588
   137  H    0.116118
 Sum of Mulliken charges =  -0.00000

 Dipole moment (field-independent basis, Debye):
    X=              4.0685    Y=              2.7799    Z=             -0.8993  Tot=              5.0089
 Quadrupole moment (field-independent basis, Debye-Ang):
   XX=           -375.2131   YY=           -393.9519   ZZ=           -398.1806
   XY=             -5.3813   XZ=              6.9583   YZ=             -0.5955

 Normal termination of Gaussian 16 at Sat Sep  7 14:02:12 2019.
