 Gaussian 16, Revision A.03,
 Gaussian 16:  ES64L-G16RevA.03 25-Dec-2016

 ----------------------------------------------------------------------
 # td=(NStates=1) iop(3/107=0140000000,3/108=0140000000) CAM-B3LYP/6-31
 G(d,p)
 ----------------------------------------------------------------------

 --
 TD
 --
 Symbolic Z-matrix:
 Charge =  0 Multiplicity = 1

                         Standard orientation:
 ---------------------------------------------------------------------
 Center     Atomic      Atomic             Coordinates (Angstroms)
 Number     Number       Type             X           Y           Z
 ---------------------------------------------------------------------
      1         12           0       -7.120489    0.530228    0.127513
      2          6           0       -4.868497   -1.970711    0.723309
      3          6           0       -4.780867    2.845278    1.240907
      4          6           0       -9.419254    3.159402   -0.403092
      5          6           0       -9.526143   -1.678324   -0.933837
      6          7           0       -5.146871    0.380863    0.820380
      7          6           0       -4.417757   -0.691041    0.920690
      8          6           0       -2.965036   -0.518967    1.368600
      9          6           0       -2.963292    1.010795    1.773493
     10          6           0       -4.373420    1.446739    1.202760
     11          6           0       -2.878352    1.348397    3.337199
     12          6           0       -1.937599   -0.758417    0.188542
     13          6           0       -0.474650   -0.537065    0.693677
     14          6           0        0.555064   -0.786718   -0.425642
     15          8           0        0.170820   -1.135773   -1.565431
     16          8           0        1.812890   -0.544779   -0.137463
     17          7           0       -7.074937    2.661617    0.245511
     18          6           0       -6.017664    3.380547    0.804418
     19          6           0       -6.305377    4.822643    0.695160
     20          6           0       -7.615091    4.931257    0.227282
     21          6           0       -8.126418    3.570176    0.111312
     22          6           0       -5.472558    5.902706    1.238617
     23          6           0       -8.453835    6.045135    0.099974
     24          6           0       -8.337448    7.298956    0.562460
     25          7           0       -9.134083    0.625514   -0.502916
     26          6           0       -9.840777    1.849131   -0.678609
     27          6           0      -11.220778    1.536913   -1.165500
     28          6           0      -11.206541    0.199268   -1.269595
     29          6           0       -9.854634   -0.354164   -0.967195
     30          6           0      -12.330834    2.539856   -1.390880
     31          6           0      -12.425495   -0.574472   -1.683135
     32          6           0      -12.408201   -0.926308   -3.138760
     33          7           0       -7.315533   -1.415510   -0.233734
     34          6           0       -8.311643   -2.278856   -0.535676
     35          6           0       -7.883770   -3.685713   -0.684495
     36          6           0       -6.472849   -3.543022   -0.206865
     37          6           0       -6.211949   -2.194583    0.064961
     38          6           0       -8.609708   -4.915695   -0.849090
     39          6           0       -5.395573   -4.331304    0.094251
     40          8           0       -5.244238   -5.566560   -0.004783
     41          6           0       -4.303419   -3.308239    0.579676
     42          6           0       -3.669693   -3.737845    1.930785
     43          8           0       -3.762516   -3.105210    3.066283
     44          8           0       -2.927968   -4.792586    1.800886
     45          6           0       -2.374613   -5.216715    3.083634
     46          6           0        2.825433   -0.791616   -1.202510
     47          6           0        4.195760   -0.555851   -0.603660
     48          6           0        5.202231    0.249204   -1.127218
     49          6           0        5.084201    1.053730   -2.499493
     50          6           0        6.389835    0.351289   -0.324186
     51          6           0        7.629642   -0.188974   -1.142606
     52          6           0        8.992260   -0.122090   -0.306111
     53          6           0       10.238924   -0.640701   -0.994614
     54          6           0       10.265222   -2.251626   -1.145549
     55          6           0       11.490234   -0.226894   -0.114572
     56          6           0       12.751105   -0.517715   -0.831269
     57          6           0       13.969303    0.054546    0.023359
     58          6           0       15.405032   -0.037373   -0.598306
     59          6           0       15.659559   -1.579732   -0.932513
     60          6           0       16.454335    0.405645    0.405099
     61          6           0       17.854291    0.610213   -0.129114
     62          6           0       18.743899    1.318588    0.767422
     63          6           0       20.203502    1.330679    0.429507
     64          6           0       20.413245    2.078998   -0.941402
     65          6           0       21.067309    2.091000    1.543516
     66          1           0       -3.906944    3.622091    1.529569
     67          1           0      -10.072907    4.029887   -0.586358
     68          1           0      -10.240893   -2.395131   -1.461620
     69          1           0       -2.720845   -1.088862    2.295381
     70          1           0       -2.209391    1.454359    0.954428
     71          1           0       -1.903615    1.258859    3.782244
     72          1           0       -3.199520    2.577672    3.374387
     73          1           0       -3.723607    0.814355    3.634024
     74          1           0       -1.906593   -1.811235   -0.341656
     75          1           0       -2.023762   -0.024325   -0.717983
     76          1           0       -0.246653    0.531810    0.887822
     77          1           0       -0.129535   -1.146849    1.559778
     78          1           0       -5.649877    6.893092    0.794990
     79          1           0       -5.601955    6.036358    2.350628
     80          1           0       -4.377077    5.686030    1.077944
     81          1           0       -9.172354    5.957961   -0.693523
     82          1           0       -8.982983    8.226971    0.530180
     83          1           0       -7.686080    7.769365    1.330282
     84          1           0      -12.017816    3.308233   -2.059841
     85          1           0      -13.312611    2.287596   -1.804061
     86          1           0      -12.521307    3.186585   -0.534428
     87          1           0      -12.615735   -1.429733   -1.060036
     88          1           0      -13.270700    0.161885   -1.541252
     89          1           0      -13.522578   -1.192582   -3.650660
     90          1           0      -12.017173    0.001890   -3.814164
     91          1           0      -11.461955   -1.828577   -3.393183
     92          1           0       -9.244435   -4.801514   -1.811809
     93          1           0       -7.687740   -5.685402   -1.144102
     94          1           0       -9.179992   -5.288439    0.250519
     95          1           0       -3.339294   -3.506020    0.035333
     96          1           0       -2.007444   -4.468290    3.677476
     97          1           0       -3.277957   -5.503104    3.744934
     98          1           0       -1.864408   -6.158387    2.901466
     99          1           0        2.717042   -1.766366   -1.527664
    100          1           0        2.418095   -0.163180   -1.998324
    101          1           0        4.540110   -1.250474    0.197004
    102          1           0        4.077443    1.153115   -3.045185
    103          1           0        5.344435    2.166280   -2.325885
    104          1           0        5.992726    0.535380   -3.129068
    105          1           0        6.642046    1.431453   -0.082795
    106          1           0        6.446742   -0.179876    0.619746
    107          1           0        7.475871   -1.015669   -1.506390
    108          1           0        7.620867    0.477220   -1.972167
    109          1           0        9.283758    0.931804   -0.055004
    110          1           0        8.760350   -0.716933    0.550540
    111          1           0       10.430285   -0.043286   -1.946330
    112          1           0        9.336683   -2.727512   -1.570167
    113          1           0       10.882594   -2.497727   -2.012664
    114          1           0       10.278739   -2.771435   -0.222581
    115          1           0       11.374908    0.884265    0.021408
    116          1           0       11.417067   -0.808703    0.915928
    117          1           0       12.834584   -1.468568   -1.143393
    118          1           0       12.671545    0.138664   -1.769095
    119          1           0       13.871713    1.119021    0.293819
    120          1           0       14.109664   -0.495605    1.029529
    121          1           0       15.470269    0.510676   -1.476102
    122          1           0       15.931183   -2.199516    0.024145
    123          1           0       14.964617   -1.962178   -1.722018
    124          1           0       16.762616   -1.803715   -1.508423
    125          1           0       16.211813    1.306213    0.907288
    126          1           0       16.465352   -0.299590    1.303966
    127          1           0       18.398559   -0.272410   -0.422668
    128          1           0       17.771771    1.135572   -1.078365
    129          1           0       18.160646    2.281541    1.058469
    130          1           0       18.643656    0.973626    1.728515
    131          1           0       20.687581    0.274693    0.242821
    132          1           0       20.113504    3.068570   -1.046684
    133          1           0       21.572272    1.887441   -1.196320
    134          1           0       19.833986    1.845298   -1.757853
    135          1           0       21.135920    1.462080    2.442841
    136          1           0       22.038932    2.136325    1.070002
    137          1           0       20.539814    3.213917    1.590951
 ---------------------------------------------------------------------

 SCF Done:  E(RCAM-B3LYP) =  -2933.47879295     A.U. after   16 cycles

 Excitation energies and oscillator strengths:

 Excited State   1:      Singlet-A      1.9167 eV  646.87 nm  f=0.2942  <S**2>=0.000
     240 -> 243       -0.20562
     241 -> 242        0.67376
 This state for optimization and/or second-order correction.
 Total Energy, E(TD-HF/TD-DFT) =  -2933.40835668
 Copying the excited state density for this state as the 1-particle RhoCI density.

 The electronic state is 1-A.
 Alpha  occ. eigenvalues --  -46.81048 -19.23285 -19.21852 -19.15071 -19.14855
 Alpha  occ. eigenvalues --  -19.14622 -14.38710 -14.35700 -14.35394 -14.35202
 Alpha  occ. eigenvalues --  -10.34105 -10.33685 -10.28797 -10.27700 -10.27284
 Alpha  occ. eigenvalues --  -10.26426 -10.25948 -10.25842 -10.25762 -10.25658
 Alpha  occ. eigenvalues --  -10.25108 -10.24897 -10.24883 -10.24778 -10.24631
 Alpha  occ. eigenvalues --  -10.24503 -10.24488 -10.24296 -10.24178 -10.23986
 Alpha  occ. eigenvalues --  -10.23924 -10.23821 -10.23451 -10.23371 -10.23328
 Alpha  occ. eigenvalues --  -10.23217 -10.22967 -10.22875 -10.22842 -10.22775
 Alpha  occ. eigenvalues --  -10.22747 -10.22706 -10.22582 -10.22526 -10.22457
 Alpha  occ. eigenvalues --  -10.22383 -10.22320 -10.22155 -10.21968 -10.21935
 Alpha  occ. eigenvalues --  -10.21702 -10.21691 -10.21652 -10.21607 -10.21536
 Alpha  occ. eigenvalues --  -10.21403 -10.21279 -10.21046 -10.20717 -10.20361
 Alpha  occ. eigenvalues --  -10.20124 -10.19583 -10.19517 -10.19352 -10.19231
 Alpha  occ. eigenvalues --   -3.09481  -1.84429  -1.83956  -1.83876  -1.14107
 Alpha  occ. eigenvalues --   -1.12473  -1.03158  -1.01513  -1.00808  -0.99529
 Alpha  occ. eigenvalues --   -0.98820  -0.97622  -0.96811  -0.87782  -0.86244
 Alpha  occ. eigenvalues --   -0.85656  -0.84510  -0.84436  -0.83974  -0.83705
 Alpha  occ. eigenvalues --   -0.83092  -0.82445  -0.81952  -0.81270  -0.80760
 Alpha  occ. eigenvalues --   -0.79743  -0.78994  -0.78806  -0.77881  -0.77403
 Alpha  occ. eigenvalues --   -0.76762  -0.76394  -0.75708  -0.74644  -0.73053
 Alpha  occ. eigenvalues --   -0.72749  -0.72631  -0.71712  -0.71500  -0.70985
 Alpha  occ. eigenvalues --   -0.70253  -0.70096  -0.69395  -0.68395  -0.67287
 Alpha  occ. eigenvalues --   -0.66380  -0.65918  -0.64703  -0.64315  -0.63587
 Alpha  occ. eigenvalues --   -0.63192  -0.62630  -0.61402  -0.60811  -0.60540
 Alpha  occ. eigenvalues --   -0.59646  -0.59481  -0.58810  -0.58422  -0.58353
 Alpha  occ. eigenvalues --   -0.58146  -0.56500  -0.56086  -0.55860  -0.55033
 Alpha  occ. eigenvalues --   -0.54355  -0.53953  -0.53772  -0.52501  -0.52188
 Alpha  occ. eigenvalues --   -0.51888  -0.51650  -0.51199  -0.50964  -0.50806
 Alpha  occ. eigenvalues --   -0.50256  -0.50031  -0.49436  -0.49254  -0.49001
 Alpha  occ. eigenvalues --   -0.48802  -0.48553  -0.48404  -0.48285  -0.47693
 Alpha  occ. eigenvalues --   -0.47358  -0.47169  -0.46773  -0.46700  -0.46325
 Alpha  occ. eigenvalues --   -0.46164  -0.45985  -0.45727  -0.45629  -0.45549
 Alpha  occ. eigenvalues --   -0.45313  -0.45130  -0.44918  -0.44859  -0.44494
 Alpha  occ. eigenvalues --   -0.44399  -0.44318  -0.43896  -0.43648  -0.43476
 Alpha  occ. eigenvalues --   -0.42684  -0.42643  -0.42423  -0.42410  -0.42112
 Alpha  occ. eigenvalues --   -0.41916  -0.41858  -0.41585  -0.41436  -0.41286
 Alpha  occ. eigenvalues --   -0.41229  -0.40878  -0.40611  -0.40569  -0.40445
 Alpha  occ. eigenvalues --   -0.40147  -0.40115  -0.39960  -0.39491  -0.39355
 Alpha  occ. eigenvalues --   -0.39294  -0.39162  -0.39044  -0.38933  -0.38761
 Alpha  occ. eigenvalues --   -0.38588  -0.38416  -0.38254  -0.38136  -0.37619
 Alpha  occ. eigenvalues --   -0.37513  -0.37412  -0.37198  -0.37042  -0.36825
 Alpha  occ. eigenvalues --   -0.36710  -0.36318  -0.36144  -0.35902  -0.35407
 Alpha  occ. eigenvalues --   -0.35357  -0.35114  -0.35074  -0.34947  -0.34790
 Alpha  occ. eigenvalues --   -0.34785  -0.34455  -0.34044  -0.33932  -0.33778
 Alpha  occ. eigenvalues --   -0.33277  -0.33130  -0.32944  -0.32553  -0.32100
 Alpha  occ. eigenvalues --   -0.32027  -0.31633  -0.31504  -0.30757  -0.30193
 Alpha  occ. eigenvalues --   -0.29312  -0.28718  -0.28582  -0.28072  -0.26406
 Alpha  occ. eigenvalues --   -0.26326  -0.26033  -0.25730  -0.24868  -0.21512
 Alpha  occ. eigenvalues --   -0.19955
 Alpha virt. eigenvalues --   -0.07921  -0.03425  -0.00513   0.01575   0.02685
 Alpha virt. eigenvalues --    0.03624   0.04252   0.04548   0.05140   0.05477
 Alpha virt. eigenvalues --    0.06587   0.08262   0.08390   0.09390   0.09754

 Mulliken charges:
               1
     1  Mg   0.831039
     2  C    0.125288
     3  C   -0.210632
     4  C   -0.189852
     5  C   -0.202715
     6  N   -0.611361
     7  C    0.339727
     8  C   -0.150329
     9  C   -0.153243
    10  C    0.284372
    11  C   -0.288890
    12  C   -0.179589
    13  C   -0.257919
    14  C    0.580283
    15  O   -0.509554
    16  O   -0.460932
    17  N   -0.669439
    18  C    0.314781
    19  C    0.027954
    20  C    0.046458
    21  C    0.270455
    22  C   -0.384890
    23  C   -0.092779
    24  C   -0.259931
    25  N   -0.683187
    26  C    0.274596
    27  C    0.089006
    28  C   -0.026553
    29  C    0.378367
    30  C   -0.400045
    31  C   -0.226827
    32  C   -0.265125
    33  N   -0.726423
    34  C    0.267684
    35  C    0.069285
    36  C    0.037364
    37  C    0.247907
    38  C   -0.372889
    39  C    0.338400
    40  O   -0.504595
    41  C   -0.365141
    42  C    0.613457
    43  O   -0.539685
    44  O   -0.405403
    45  C   -0.099467
    46  C    0.013289
    47  C   -0.154383
    48  C    0.145735
    49  C   -0.356101
    50  C   -0.237778
    51  C   -0.179957
    52  C   -0.162774
    53  C   -0.064748
    54  C   -0.333920
    55  C   -0.156056
    56  C   -0.167885
    57  C   -0.166748
    58  C   -0.055973
    59  C   -0.301197
    60  C   -0.178013
    61  C   -0.158933
    62  C   -0.153910
    63  C   -0.068812
    64  C   -0.306719
    65  C   -0.294547
    66  H    0.086750
    67  H    0.083603
    68  H    0.081940
    69  H    0.139435
    70  H    0.094223
    71  H    0.127877
    72  H    0.077934
    73  H    0.145815
    74  H    0.120448
    75  H    0.114261
    76  H    0.130442
    77  H    0.128486
    78  H    0.124677
    79  H    0.127880
    80  H    0.103227
    81  H    0.097571
    82  H    0.101644
    83  H    0.097144
    84  H    0.128504
    85  H    0.124256
    86  H    0.126989
    87  H    0.113857
    88  H    0.097713
    89  H    0.081450
    90  H    0.094323
    91  H    0.060661
    92  H    0.115419
    93  H    0.140907
    94  H    0.116913
    95  H    0.161569
    96  H    0.155003
    97  H    0.123097
    98  H    0.127516
    99  H    0.139678
   100  H    0.128089
   101  H    0.091348
   102  H    0.122770
   103  H    0.112227
   104  H    0.112877
   105  H    0.100410
   106  H    0.105372
   107  H    0.102303
   108  H    0.091381
   109  H    0.080356
   110  H    0.091763
   111  H    0.074901
   112  H    0.086950
   113  H    0.113743
   114  H    0.118097
   115  H    0.083034
   116  H    0.072552
   117  H    0.112492
   118  H    0.076007
   119  H    0.086768
   120  H    0.078333
   121  H    0.089765
   122  H    0.099968
   123  H    0.105706
   124  H    0.054540
   125  H    0.084838
   126  H    0.077655
   127  H    0.092702
   128  H    0.086678
   129  H    0.064956
   130  H    0.092563
   131  H    0.078529
   132  H    0.103541
   133  H    0.071961
   134  H    0.104987
   135  H    0.106376
   136  H    0.105780
   137  H    0.086871
 Sum of Mulliken charges =  -0.00000

 Dipole moment (field-independent basis, Debye):
    X=              2.8256    Y=              5.2461    Z=              0.6569  Tot=              5.9948
 Quadrupole moment (field-independent basis, Debye-Ang):
   XX=           -354.7743   YY=           -394.5717   ZZ=           -397.5372
   XY=            -36.2120   XZ=              2.9778   YZ=             -5.4084

 Normal termination of Gaussian 16 at Wed Sep 11 04:05:12 2019.
