 Gaussian 09, Revision D.01,
 Gaussian 09:  ES64L-G09RevD.01 24-Apr-2013

 -------------------------------------
 # td=(NStates=1) CAM-B3LYP/6-31G(d,p)
 -------------------------------------

 --
 TD
 --
 Symbolic Z-matrix:
 Charge =  0 Multiplicity = 1

                         Standard orientation:
 ---------------------------------------------------------------------
 Center     Atomic      Atomic             Coordinates (Angstroms)
 Number     Number       Type             X           Y           Z
 ---------------------------------------------------------------------
      1         12           0       -7.189672    0.617024    0.084938
      2          6           0       -4.833881   -1.907018    0.470000
      3          6           0       -4.795699    2.856382    1.025835
      4          6           0       -9.445792    3.093879   -0.339599
      5          6           0       -9.577365   -1.709583   -0.817421
      6          7           0       -5.103473    0.563710    0.703457
      7          6           0       -4.369950   -0.627648    0.767283
      8          6           0       -2.911685   -0.410278    1.090090
      9          6           0       -2.988250    1.083231    1.527994
     10          6           0       -4.353470    1.535827    1.126538
     11          6           0       -2.976290    1.351309    3.056290
     12          6           0       -1.895011   -0.573462   -0.017804
     13          6           0       -0.409996   -0.385884    0.623923
     14          6           0        0.551718   -0.794545   -0.483464
     15          8           0        0.232050   -1.073239   -1.522132
     16          8           0        1.875646   -0.762687   -0.061340
     17          7           0       -7.135965    2.666545    0.283331
     18          6           0       -6.009907    3.388766    0.673197
     19          6           0       -6.419723    4.821321    0.743647
     20          6           0       -7.690037    4.895152    0.281724
     21          6           0       -8.151186    3.558421    0.085280
     22          6           0       -5.443584    5.825998    1.068168
     23          6           0       -8.551817    6.053639   -0.009055
     24          6           0       -8.522271    7.221039    0.665872
     25          7           0       -9.083916    0.691350   -0.616579
     26          6           0       -9.877415    1.876221   -0.630730
     27          6           0      -11.185755    1.446565   -1.137476
     28          6           0      -11.240214    0.109165   -1.226371
     29          6           0       -9.896884   -0.359107   -0.895592
     30          6           0      -12.245354    2.400392   -1.218542
     31          6           0      -12.393059   -0.732384   -1.673134
     32          6           0      -12.258431   -1.096482   -3.206697
     33          7           0       -7.282649   -1.368808   -0.065674
     34          6           0       -8.299981   -2.265883   -0.421422
     35          6           0       -7.868244   -3.640376   -0.460332
     36          6           0       -6.464717   -3.564415   -0.127221
     37          6           0       -6.186244   -2.172568    0.162316
     38          6           0       -8.619060   -4.885964   -0.871481
     39          6           0       -5.279229   -4.381534    0.280247
     40          8           0       -5.108953   -5.593898    0.198142
     41          6           0       -4.160993   -3.286913    0.541509
     42          6           0       -3.586269   -3.554927    1.954612
     43          8           0       -3.830649   -2.965224    3.008333
     44          8           0       -2.749957   -4.590468    1.823989
     45          6           0       -2.214657   -5.050580    3.087174
     46          6           0        2.748770   -0.941419   -1.170875
     47          6           0        4.135330   -0.702883   -0.549906
     48          6           0        5.050285    0.176427   -0.996569
     49          6           0        4.957234    0.997546   -2.322595
     50          6           0        6.384805    0.168334   -0.256045
     51          6           0        7.600667   -0.416403   -0.988748
     52          6           0        8.859798   -0.279731   -0.109841
     53          6           0       10.254049   -0.624433   -0.938803
     54          6           0       10.224395   -2.139694   -1.325296
     55          6           0       11.410617   -0.178931   -0.129555
     56          6           0       12.860110   -0.478408   -0.829839
     57          6           0       13.956115    0.024260    0.041520
     58          6           0       15.368865   -0.083813   -0.542041
     59          6           0       15.702427   -1.622068   -0.822373
     60          6           0       16.418752    0.455860    0.471522
     61          6           0       17.816141    0.549621   -0.097537
     62          6           0       18.838448    1.321270    0.799919
     63          6           0       20.225183    1.409653    0.191268
     64          6           0       20.237685    2.340632   -0.963091
     65          6           0       21.137066    2.103769    1.361507
     66          1           0       -4.076443    3.665883    1.214758
     67          1           0      -10.198211    3.840350   -0.293987
     68          1           0      -10.262984   -2.492512   -1.299653
     69          1           0       -2.637465   -1.001469    1.959118
     70          1           0       -2.214759    1.626213    1.157197
     71          1           0       -1.935442    1.029482    3.368581
     72          1           0       -3.142513    2.444384    3.309199
     73          1           0       -3.427408    0.679047    3.686645
     74          1           0       -1.901862   -1.519629   -0.440897
     75          1           0       -1.969791    0.186002   -0.882923
     76          1           0       -0.286885    0.648060    1.115284
     77          1           0       -0.256849   -0.888686    1.517113
     78          1           0       -6.071174    6.757139    0.694716
     79          1           0       -5.396564    6.032842    2.158081
     80          1           0       -4.442387    5.711013    0.616678
     81          1           0       -9.112432    6.115911   -0.873400
     82          1           0       -9.105623    8.119245    0.255214
     83          1           0       -7.884773    7.290568    1.599264
     84          1           0      -11.940782    3.194414   -2.043243
     85          1           0      -13.105116    1.935250   -1.420625
     86          1           0      -12.575269    2.851612   -0.327047
     87          1           0      -12.376345   -1.828958   -1.071307
     88          1           0      -13.203940   -0.307720   -1.359356
     89          1           0      -13.094643   -1.671893   -3.537684
     90          1           0      -12.161777   -0.241801   -3.744298
     91          1           0      -11.255037   -1.657760   -3.276856
     92          1           0       -8.728573   -5.260518   -2.045567
     93          1           0       -8.028937   -5.802064   -0.550208
     94          1           0       -9.510737   -4.866061   -0.338054
     95          1           0       -3.442500   -3.492723   -0.292854
     96          1           0       -1.497385   -4.206782    3.463596
     97          1           0       -2.933527   -5.230044    3.848068
     98          1           0       -1.530719   -5.757876    2.756172
     99          1           0        2.484128   -1.983817   -1.435934
    100          1           0        2.475604   -0.447360   -2.227729
    101          1           0        4.524194   -1.078314    0.378499
    102          1           0        3.941910    0.970513   -2.684758
    103          1           0        5.462104    2.131084   -2.381077
    104          1           0        5.481499    0.638801   -3.145960
    105          1           0        6.631329    1.188695    0.033352
    106          1           0        6.213587   -0.426987    0.658335
    107          1           0        7.265403   -1.448978   -0.968577
    108          1           0        7.816423    0.173096   -1.974405
    109          1           0        8.988795    0.689945    0.599517
    110          1           0        8.856182   -0.907947    0.724664
    111          1           0       10.091364    0.076473   -1.775275
    112          1           0        9.113571   -2.468046   -1.592288
    113          1           0       10.937517   -2.424304   -2.252098
    114          1           0       10.451921   -2.845519   -0.335756
    115          1           0       11.252672    0.994862    0.074446
    116          1           0       11.203740   -0.629210    0.777013
    117          1           0       12.979335   -1.624578   -1.028265
    118          1           0       12.958923   -0.042372   -1.910521
    119          1           0       13.782234    1.114917    0.390525
    120          1           0       13.971198   -0.611965    0.835987
    121          1           0       15.599415    0.210439   -1.719964
    122          1           0       15.826776   -2.192173    0.123019
    123          1           0       15.033382   -2.106768   -1.535195
    124          1           0       16.634672   -1.711343   -1.237736
    125          1           0       16.056809    1.505055    0.649524
    126          1           0       16.372813    0.031240    1.460975
    127          1           0       18.185214   -0.418991   -0.309767
    128          1           0       17.850836    1.105616   -1.024143
    129          1           0       18.578929    2.488323    1.020295
    130          1           0       18.596802    1.063002    1.861184
    131          1           0       20.558571    0.382096    0.010822
    132          1           0       20.046079    3.278529   -0.561956
    133          1           0       21.322346    2.394740   -1.223069
    134          1           0       19.856817    1.830571   -1.904577
    135          1           0       21.065907    1.300993    2.240839
    136          1           0       22.119434    2.181865    0.997514
    137          1           0       20.597153    3.143116    1.635994
 ---------------------------------------------------------------------

 SCF Done:  E(RCAM-B3LYP) =  -2932.71466015     A.U. after   17 cycles

 Excitation energies and oscillator strengths:

 Excited State   1:      Singlet-A      1.9053 eV  650.73 nm  f=0.3209  <S**2>=0.000
     240 -> 243        0.20714
     241 -> 242        0.67496
 This state for optimization and/or second-order correction.
 Total Energy, E(TD-HF/TD-KS) =  -2932.64464102
 Copying the excited state density for this state as the 1-particle RhoCI density.

 The electronic state is 1-A.
 Alpha  occ. eigenvalues --  -46.83729 -19.26852 -19.25285 -19.22636 -19.21289
 Alpha  occ. eigenvalues --  -19.20372 -14.42299 -14.39168 -14.38995 -14.38473
 Alpha  occ. eigenvalues --  -10.39644 -10.39041 -10.35370 -10.32722 -10.31169
 Alpha  occ. eigenvalues --  -10.30748 -10.30301 -10.29598 -10.29513 -10.29232
 Alpha  occ. eigenvalues --  -10.29017 -10.28477 -10.28386 -10.28263 -10.27987
 Alpha  occ. eigenvalues --  -10.27965 -10.27959 -10.27587 -10.27427 -10.27266
 Alpha  occ. eigenvalues --  -10.27240 -10.27216 -10.27198 -10.27116 -10.27090
 Alpha  occ. eigenvalues --  -10.26960 -10.26917 -10.26875 -10.26742 -10.26655
 Alpha  occ. eigenvalues --  -10.26556 -10.26508 -10.26497 -10.26440 -10.26337
 Alpha  occ. eigenvalues --  -10.26205 -10.26035 -10.25972 -10.25899 -10.25895
 Alpha  occ. eigenvalues --  -10.25848 -10.25621 -10.25593 -10.25519 -10.25497
 Alpha  occ. eigenvalues --  -10.25420 -10.25254 -10.25197 -10.24893 -10.24791
 Alpha  occ. eigenvalues --  -10.24441 -10.24403 -10.24383 -10.24075 -10.23317
 Alpha  occ. eigenvalues --   -3.12816  -1.87520  -1.87061  -1.86987  -1.21590
 Alpha  occ. eigenvalues --   -1.18458  -1.12071  -1.10130  -1.08811  -1.05474
 Alpha  occ. eigenvalues --   -1.02990  -1.02129  -1.01146  -0.92016  -0.90639
 Alpha  occ. eigenvalues --   -0.90360  -0.90098  -0.89647  -0.89037  -0.89007
 Alpha  occ. eigenvalues --   -0.88806  -0.87840  -0.87362  -0.86062  -0.85539
 Alpha  occ. eigenvalues --   -0.84766  -0.84254  -0.83275  -0.83180  -0.82899
 Alpha  occ. eigenvalues --   -0.81456  -0.81006  -0.79822  -0.79052  -0.78075
 Alpha  occ. eigenvalues --   -0.77686  -0.77352  -0.76097  -0.75929  -0.75213
 Alpha  occ. eigenvalues --   -0.74849  -0.74484  -0.73741  -0.72896  -0.72098
 Alpha  occ. eigenvalues --   -0.71764  -0.70914  -0.70166  -0.69015  -0.67486
 Alpha  occ. eigenvalues --   -0.66441  -0.66252  -0.65932  -0.64797  -0.64525
 Alpha  occ. eigenvalues --   -0.63817  -0.63296  -0.63016  -0.62498  -0.61899
 Alpha  occ. eigenvalues --   -0.61726  -0.61466  -0.60658  -0.60070  -0.58933
 Alpha  occ. eigenvalues --   -0.58575  -0.58256  -0.57699  -0.57625  -0.57149
 Alpha  occ. eigenvalues --   -0.56648  -0.55861  -0.55449  -0.55265  -0.54996
 Alpha  occ. eigenvalues --   -0.54389  -0.54112  -0.53908  -0.53789  -0.53471
 Alpha  occ. eigenvalues --   -0.53321  -0.52690  -0.52620  -0.52144  -0.51818
 Alpha  occ. eigenvalues --   -0.51010  -0.50710  -0.50637  -0.50344  -0.50202
 Alpha  occ. eigenvalues --   -0.50021  -0.49884  -0.49714  -0.49456  -0.49144
 Alpha  occ. eigenvalues --   -0.49004  -0.48756  -0.48663  -0.48408  -0.48062
 Alpha  occ. eigenvalues --   -0.47920  -0.47791  -0.47315  -0.47149  -0.46906
 Alpha  occ. eigenvalues --   -0.46801  -0.46624  -0.46462  -0.46006  -0.45913
 Alpha  occ. eigenvalues --   -0.45556  -0.45516  -0.45300  -0.44900  -0.44786
 Alpha  occ. eigenvalues --   -0.44633  -0.44377  -0.44342  -0.44170  -0.43960
 Alpha  occ. eigenvalues --   -0.43878  -0.43563  -0.43250  -0.43084  -0.43034
 Alpha  occ. eigenvalues --   -0.42823  -0.42696  -0.42498  -0.42376  -0.42301
 Alpha  occ. eigenvalues --   -0.42012  -0.41980  -0.41783  -0.41691  -0.41410
 Alpha  occ. eigenvalues --   -0.41400  -0.41358  -0.40907  -0.40851  -0.40337
 Alpha  occ. eigenvalues --   -0.40010  -0.39915  -0.39570  -0.39426  -0.39378
 Alpha  occ. eigenvalues --   -0.39038  -0.38881  -0.38732  -0.38386  -0.37999
 Alpha  occ. eigenvalues --   -0.37553  -0.37224  -0.36942  -0.36906  -0.36672
 Alpha  occ. eigenvalues --   -0.36340  -0.36145  -0.35968  -0.35915  -0.35270
 Alpha  occ. eigenvalues --   -0.35164  -0.35069  -0.34784  -0.34081  -0.33672
 Alpha  occ. eigenvalues --   -0.33051  -0.32573  -0.31787  -0.31061  -0.29802
 Alpha  occ. eigenvalues --   -0.29748  -0.28807  -0.28309  -0.27908  -0.23206
 Alpha  occ. eigenvalues --   -0.20342
 Alpha virt. eigenvalues --   -0.06806  -0.02039   0.01242   0.04214   0.05839
 Alpha virt. eigenvalues --    0.06051   0.06639   0.06749   0.07213   0.07597
 Alpha virt. eigenvalues --    0.08398   0.10926   0.11424   0.12074   0.12141

 Mulliken charges:
               1
     1  Mg   0.813569
     2  C    0.071947
     3  C   -0.221570
     4  C   -0.210200
     5  C   -0.195362
     6  N   -0.613284
     7  C    0.263379
     8  C   -0.151162
     9  C   -0.153125
    10  C    0.387734
    11  C   -0.324873
    12  C   -0.166123
    13  C   -0.302041
    14  C    0.616644
    15  O   -0.396604
    16  O   -0.496664
    17  N   -0.715733
    18  C    0.324836
    19  C    0.031131
    20  C    0.028386
    21  C    0.302482
    22  C   -0.397102
    23  C   -0.077086
    24  C   -0.248263
    25  N   -0.720485
    26  C    0.331047
    27  C    0.028367
    28  C    0.022368
    29  C    0.330782
    30  C   -0.369932
    31  C   -0.220218
    32  C   -0.304773
    33  N   -0.716341
    34  C    0.260391
    35  C    0.019420
    36  C   -0.042580
    37  C    0.282963
    38  C   -0.373348
    39  C    0.385254
    40  O   -0.459388
    41  C   -0.321113
    42  C    0.624224
    43  O   -0.493829
    44  O   -0.437595
    45  C   -0.082154
    46  C    0.000480
    47  C   -0.122701
    48  C    0.125682
    49  C   -0.366256
    50  C   -0.245381
    51  C   -0.159182
    52  C   -0.203002
    53  C   -0.047958
    54  C   -0.294825
    55  C   -0.161173
    56  C   -0.191447
    57  C   -0.139832
    58  C   -0.065918
    59  C   -0.330244
    60  C   -0.178330
    61  C   -0.181097
    62  C   -0.151942
    63  C   -0.085167
    64  C   -0.285448
    65  C   -0.301820
    66  H    0.069890
    67  H    0.085705
    68  H    0.098150
    69  H    0.128308
    70  H    0.109099
    71  H    0.083770
    72  H    0.115267
    73  H    0.144045
    74  H    0.128100
    75  H    0.114376
    76  H    0.128047
    77  H    0.140343
    78  H    0.104321
    79  H    0.128361
    80  H    0.127827
    81  H    0.107228
    82  H    0.103894
    83  H    0.103428
    84  H    0.102479
    85  H    0.107670
    86  H    0.128198
    87  H    0.072720
    88  H    0.105226
    89  H    0.110328
    90  H    0.124438
    91  H    0.105648
    92  H    0.105256
    93  H    0.141665
    94  H    0.128003
    95  H    0.168956
    96  H    0.102928
    97  H    0.152633
    98  H    0.134321
    99  H    0.117897
   100  H    0.118846
   101  H    0.091837
   102  H    0.109830
   103  H    0.084959
   104  H    0.134430
   105  H    0.098640
   106  H    0.089579
   107  H    0.114130
   108  H    0.093813
   109  H    0.064036
   110  H    0.098651
   111  H    0.087149
   112  H    0.096031
   113  H    0.095322
   114  H    0.077571
   115  H    0.073277
   116  H    0.099032
   117  H    0.093515
   118  H    0.081187
   119  H    0.079962
   120  H    0.108975
   121  H    0.063345
   122  H    0.087179
   123  H    0.099090
   124  H    0.106978
   125  H    0.085956
   126  H    0.096582
   127  H    0.097958
   128  H    0.101230
   129  H    0.045045
   130  H    0.082461
   131  H    0.087664
   132  H    0.114290
   133  H    0.091669
   134  H    0.106640
   135  H    0.090690
   136  H    0.108547
   137  H    0.086961
 Sum of Mulliken charges =   0.00000

 Dipole moment (field-independent basis, Debye):
    X=              1.8285    Y=              4.3244    Z=              0.2148  Tot=              4.7000
 Quadrupole moment (field-independent basis, Debye-Ang):
   XX=           -348.5497   YY=           -394.8680   ZZ=           -393.4308
   XY=            -32.7639   XZ=              6.0035   YZ=             -2.3420

 Normal termination of Gaussian 09 at Fri Jul  5 15:01:24 2019.
