 Gaussian 16, Revision A.03,
 Gaussian 16:  ES64L-G16RevA.03 25-Dec-2016

 ----------------------------------------------------------------------
 # td=(NStates=1) iop(3/107=0140000000,3/108=0140000000) CAM-B3LYP/6-31
 G(d,p)
 ----------------------------------------------------------------------

 --
 TD
 --
 Symbolic Z-matrix:
 Charge =  0 Multiplicity = 1

                         Standard orientation:
 ---------------------------------------------------------------------
 Center     Atomic      Atomic             Coordinates (Angstroms)
 Number     Number       Type             X           Y           Z
 ---------------------------------------------------------------------
      1         12           0       -7.156848    0.635370    0.186030
      2          6           0       -4.887478   -1.952501    0.614314
      3          6           0       -4.740604    2.832777    1.263802
      4          6           0       -9.379158    3.115133   -0.304479
      5          6           0       -9.623191   -1.712082   -0.778793
      6          7           0       -5.154629    0.434621    0.843380
      7          6           0       -4.403791   -0.687546    0.871163
      8          6           0       -2.934906   -0.523284    1.193870
      9          6           0       -2.889658    1.034589    1.642298
     10          6           0       -4.307829    1.454502    1.190307
     11          6           0       -2.782234    1.138301    3.174460
     12          6           0       -1.991614   -0.712967    0.013246
     13          6           0       -0.503590   -0.564367    0.451051
     14          6           0        0.463056   -0.700179   -0.733727
     15          8           0        0.261377   -0.984410   -1.896096
     16          8           0        1.705927   -0.441572   -0.250493
     17          7           0       -7.064601    2.653739    0.288252
     18          6           0       -5.978954    3.392171    0.803970
     19          6           0       -6.263860    4.790141    0.856966
     20          6           0       -7.616435    4.869799    0.301479
     21          6           0       -8.038336    3.514083    0.099383
     22          6           0       -5.382570    5.985642    1.226023
     23          6           0       -8.505172    5.979823    0.215709
     24          6           0       -8.301251    7.183390    0.769046
     25          7           0       -9.163202    0.748727   -0.540184
     26          6           0       -9.811718    1.889173   -0.694949
     27          6           0      -11.189742    1.569723   -1.181354
     28          6           0      -11.246144    0.154629   -1.248037
     29          6           0       -9.935901   -0.287738   -0.881503
     30          6           0      -12.196569    2.606129   -1.475883
     31          6           0      -12.374635   -0.621793   -1.745377
     32          6           0      -12.197933   -0.925384   -3.238780
     33          7           0       -7.310350   -1.418271   -0.061123
     34          6           0       -8.396018   -2.267043   -0.462881
     35          6           0       -7.974909   -3.581333   -0.424979
     36          6           0       -6.622857   -3.592641   -0.004769
     37          6           0       -6.208532   -2.188197    0.192741
     38          6           0       -8.863477   -4.745489   -0.817378
     39          6           0       -5.474585   -4.414579    0.250049
     40          8           0       -5.351842   -5.623806    0.176168
     41          6           0       -4.253086   -3.404435    0.552598
     42          6           0       -3.500013   -3.802235    1.878846
     43          8           0       -3.586925   -3.072078    2.912296
     44          8           0       -2.868093   -4.888914    1.676913
     45          6           0       -2.178939   -5.263078    3.035417
     46          6           0        2.746215   -0.619449   -1.218879
     47          6           0        4.099661   -0.405684   -0.578265
     48          6           0        5.179987    0.304738   -0.939861
     49          6           0        5.078396    0.938087   -2.404997
     50          6           0        6.461963    0.462876   -0.297883
     51          6           0        7.654892   -0.085722   -1.075484
     52          6           0        8.934176   -0.161999   -0.296575
     53          6           0       10.230674   -0.642494   -0.988728
     54          6           0       10.233993   -2.143000   -1.389138
     55          6           0       11.438006   -0.398762   -0.089616
     56          6           0       12.797619   -0.465385   -0.755241
     57          6           0       13.921069   -0.114696    0.100151
     58          6           0       15.369543   -0.183696   -0.530130
     59          6           0       15.828625   -1.628287   -0.896873
     60          6           0       16.442286    0.362334    0.506734
     61          6           0       17.799031    0.526719   -0.049216
     62          6           0       18.732653    1.295232    0.884329
     63          6           0       20.119961    1.436187    0.340168
     64          6           0       20.268267    2.252924   -0.872243
     65          6           0       21.118730    1.972893    1.396931
     66          1           0       -3.862207    3.459830    1.405033
     67          1           0       -9.973936    3.943463   -0.555463
     68          1           0      -10.305931   -2.270548   -1.200677
     69          1           0       -2.714436   -1.298727    1.991904
     70          1           0       -2.209667    1.620832    1.158004
     71          1           0       -1.771342    0.793882    3.544639
     72          1           0       -3.124465    2.173132    3.433824
     73          1           0       -3.586903    0.674003    3.720426
     74          1           0       -2.149365   -1.830195   -0.363677
     75          1           0       -2.197255    0.268496   -0.667139
     76          1           0       -0.128592    0.237364    1.081563
     77          1           0       -0.100187   -1.458405    1.050901
     78          1           0       -5.667759    6.921598    0.603076
     79          1           0       -5.339543    6.194807    2.329264
     80          1           0       -4.301755    5.806954    0.858501
     81          1           0       -9.307243    5.728590   -0.439153
     82          1           0       -9.129009    7.890784    0.687649
     83          1           0       -7.465160    7.441066    1.343156
     84          1           0      -11.822398    3.105906   -2.435408
     85          1           0      -13.179787    2.008098   -1.751217
     86          1           0      -12.195247    3.318101   -0.760384
     87          1           0      -12.242434   -1.388385   -0.988437
     88          1           0      -13.339729   -0.035610   -1.734115
     89          1           0      -13.261183   -1.385851   -3.504345
     90          1           0      -12.022344    0.042520   -3.610508
     91          1           0      -11.347357   -1.780047   -3.309664
     92          1           0       -9.090069   -4.785224   -1.887570
     93          1           0       -8.239180   -5.644535   -0.763839
     94          1           0       -9.759841   -4.647542   -0.271380
     95          1           0       -3.584846   -3.570685   -0.221678
     96          1           0       -1.474137   -4.353927    3.228493
     97          1           0       -2.889529   -5.373877    3.760426
     98          1           0       -1.678241   -6.193421    2.791949
     99          1           0        2.374218   -1.638860   -1.669744
    100          1           0        2.649960   -0.157706   -2.077666
    101          1           0        4.180935   -1.022661    0.396621
    102          1           0        4.186474    0.958038   -2.914029
    103          1           0        5.677774    1.989909   -2.188450
    104          1           0        5.964905    0.410204   -2.954386
    105          1           0        6.551145    1.448437   -0.190585
    106          1           0        6.229276    0.009634    0.668291
    107          1           0        7.309015   -0.976734   -1.637060
    108          1           0        7.817159    0.599701   -2.057976
    109          1           0        8.876681    1.021715   -0.086319
    110          1           0        9.038287   -0.688431    0.638866
    111          1           0       10.285260   -0.025133   -1.874815
    112          1           0        9.362452   -2.209982   -2.006140
    113          1           0       11.364924   -2.723259   -1.701070
    114          1           0        9.849000   -2.560419   -0.482476
    115          1           0       11.331815    0.612235    0.113031
    116          1           0       11.296201   -0.968557    0.871120
    117          1           0       12.692586   -1.483103   -1.284835
    118          1           0       12.765665    0.065691   -1.715549
    119          1           0       13.738902    0.959407    0.414085
    120          1           0       13.742532   -0.956054    0.827557
    121          1           0       15.565256    0.343192   -1.506102
    122          1           0       15.789158   -2.213671    0.106596
    123          1           0       15.038457   -2.118916   -1.743388
    124          1           0       16.774042   -1.513077   -1.403677
    125          1           0       15.927360    1.245958    0.972223
    126          1           0       16.403353   -0.409644    1.234637
    127          1           0       18.262392   -0.393889   -0.269792
    128          1           0       17.992467    1.200738   -0.923388
    129          1           0       18.119984    2.210118    0.816436
    130          1           0       18.770738    0.878445    1.832382
    131          1           0       20.432349    0.436619   -0.066952
    132          1           0       19.960205    3.435075   -0.719162
    133          1           0       21.240918    2.455543   -1.043663
    134          1           0       19.716389    1.918997   -1.706716
    135          1           0       21.123918    1.225356    2.395409
    136          1           0       22.004633    2.041147    0.975300
    137          1           0       20.723684    2.915887    1.848093
 ---------------------------------------------------------------------

 SCF Done:  E(RCAM-B3LYP) =  -2933.50987583     A.U. after   16 cycles

 Excitation energies and oscillator strengths:

 Excited State   1:      Singlet-A      1.9166 eV  646.88 nm  f=0.2743  <S**2>=0.000
     240 -> 243       -0.20766
     241 -> 242        0.67186
 This state for optimization and/or second-order correction.
 Total Energy, E(TD-HF/TD-DFT) =  -2933.43944056
 Copying the excited state density for this state as the 1-particle RhoCI density.

 The electronic state is 1-A.
 Alpha  occ. eigenvalues --  -46.80441 -19.24577 -19.21677 -19.17083 -19.16149
 Alpha  occ. eigenvalues --  -19.15635 -14.38215 -14.35015 -14.34696 -14.34467
 Alpha  occ. eigenvalues --  -10.34803 -10.34458 -10.29971 -10.28732 -10.26635
 Alpha  occ. eigenvalues --  -10.26557 -10.25992 -10.25418 -10.24976 -10.24741
 Alpha  occ. eigenvalues --  -10.24529 -10.24491 -10.24368 -10.24194 -10.23894
 Alpha  occ. eigenvalues --  -10.23755 -10.23583 -10.23541 -10.23482 -10.23472
 Alpha  occ. eigenvalues --  -10.23225 -10.22881 -10.22805 -10.22734 -10.22643
 Alpha  occ. eigenvalues --  -10.22635 -10.22567 -10.22248 -10.22175 -10.22163
 Alpha  occ. eigenvalues --  -10.22088 -10.21994 -10.21912 -10.21798 -10.21749
 Alpha  occ. eigenvalues --  -10.21706 -10.21655 -10.21650 -10.21643 -10.21595
 Alpha  occ. eigenvalues --  -10.21593 -10.21550 -10.21322 -10.21209 -10.21189
 Alpha  occ. eigenvalues --  -10.21160 -10.20906 -10.20692 -10.20640 -10.20376
 Alpha  occ. eigenvalues --  -10.20247 -10.19913 -10.19836 -10.19690 -10.19136
 Alpha  occ. eigenvalues --   -3.08860  -1.83820  -1.83341  -1.83238  -1.14698
 Alpha  occ. eigenvalues --   -1.13260  -1.05463  -1.04381  -1.02304  -0.99459
 Alpha  occ. eigenvalues --   -0.99088  -0.98065  -0.96503  -0.87326  -0.86256
 Alpha  occ. eigenvalues --   -0.86178  -0.85547  -0.84761  -0.84593  -0.83562
 Alpha  occ. eigenvalues --   -0.83443  -0.82879  -0.82203  -0.81988  -0.81482
 Alpha  occ. eigenvalues --   -0.80553  -0.79500  -0.78844  -0.78510  -0.77562
 Alpha  occ. eigenvalues --   -0.77035  -0.76701  -0.75801  -0.75225  -0.73371
 Alpha  occ. eigenvalues --   -0.73035  -0.72247  -0.71706  -0.71542  -0.71256
 Alpha  occ. eigenvalues --   -0.70694  -0.70537  -0.69761  -0.69116  -0.68328
 Alpha  occ. eigenvalues --   -0.66982  -0.65921  -0.65117  -0.64909  -0.63942
 Alpha  occ. eigenvalues --   -0.63108  -0.62693  -0.61725  -0.60951  -0.60468
 Alpha  occ. eigenvalues --   -0.59924  -0.59348  -0.59028  -0.58816  -0.58766
 Alpha  occ. eigenvalues --   -0.57509  -0.56028  -0.55669  -0.55381  -0.54977
 Alpha  occ. eigenvalues --   -0.54768  -0.53721  -0.53556  -0.53168  -0.52564
 Alpha  occ. eigenvalues --   -0.52108  -0.51953  -0.51795  -0.51294  -0.51144
 Alpha  occ. eigenvalues --   -0.51024  -0.50905  -0.50591  -0.50363  -0.49768
 Alpha  occ. eigenvalues --   -0.49411  -0.49148  -0.48801  -0.48765  -0.48468
 Alpha  occ. eigenvalues --   -0.47763  -0.47720  -0.47394  -0.47301  -0.47056
 Alpha  occ. eigenvalues --   -0.46897  -0.46664  -0.46397  -0.46250  -0.45967
 Alpha  occ. eigenvalues --   -0.45842  -0.45548  -0.45433  -0.45188  -0.45034
 Alpha  occ. eigenvalues --   -0.44838  -0.44819  -0.44109  -0.43934  -0.43685
 Alpha  occ. eigenvalues --   -0.43501  -0.43042  -0.42904  -0.42740  -0.42635
 Alpha  occ. eigenvalues --   -0.42484  -0.42277  -0.42161  -0.42019  -0.41971
 Alpha  occ. eigenvalues --   -0.41787  -0.41525  -0.41357  -0.40982  -0.40799
 Alpha  occ. eigenvalues --   -0.40682  -0.40593  -0.40457  -0.40347  -0.40174
 Alpha  occ. eigenvalues --   -0.40023  -0.39828  -0.39686  -0.39547  -0.39399
 Alpha  occ. eigenvalues --   -0.39178  -0.38945  -0.38806  -0.38556  -0.38159
 Alpha  occ. eigenvalues --   -0.37887  -0.37667  -0.37314  -0.37151  -0.37058
 Alpha  occ. eigenvalues --   -0.36985  -0.36449  -0.36256  -0.36206  -0.35573
 Alpha  occ. eigenvalues --   -0.35317  -0.35185  -0.35122  -0.34589  -0.34513
 Alpha  occ. eigenvalues --   -0.34358  -0.34016  -0.33976  -0.33673  -0.33366
 Alpha  occ. eigenvalues --   -0.33254  -0.33134  -0.32809  -0.32475  -0.32356
 Alpha  occ. eigenvalues --   -0.32279  -0.32087  -0.31059  -0.30777  -0.30438
 Alpha  occ. eigenvalues --   -0.29888  -0.29862  -0.29173  -0.28528  -0.26785
 Alpha  occ. eigenvalues --   -0.26486  -0.26220  -0.24714  -0.24137  -0.21481
 Alpha  occ. eigenvalues --   -0.19759
 Alpha virt. eigenvalues --   -0.07607  -0.03733  -0.00059   0.02536   0.03924
 Alpha virt. eigenvalues --    0.04061   0.04610   0.04882   0.05282   0.05733
 Alpha virt. eigenvalues --    0.06771   0.07921   0.08483   0.08882   0.09162

 Mulliken charges:
               1
     1  Mg   0.812643
     2  C    0.097382
     3  C   -0.198055
     4  C   -0.161736
     5  C   -0.151445
     6  N   -0.617033
     7  C    0.326149
     8  C   -0.160082
     9  C   -0.130583
    10  C    0.278913
    11  C   -0.305557
    12  C   -0.146519
    13  C   -0.268507
    14  C    0.608209
    15  O   -0.479612
    16  O   -0.471137
    17  N   -0.707096
    18  C    0.274773
    19  C    0.036384
    20  C   -0.007234
    21  C    0.314948
    22  C   -0.387465
    23  C   -0.051333
    24  C   -0.255016
    25  N   -0.683751
    26  C    0.336232
    27  C    0.002147
    28  C    0.004829
    29  C    0.302562
    30  C   -0.368690
    31  C   -0.249156
    32  C   -0.276738
    33  N   -0.753723
    34  C    0.306561
    35  C    0.009640
    36  C    0.025377
    37  C    0.282692
    38  C   -0.377417
    39  C    0.333892
    40  O   -0.465345
    41  C   -0.329485
    42  C    0.620227
    43  O   -0.518992
    44  O   -0.409053
    45  C   -0.110248
    46  C    0.030139
    47  C   -0.138637
    48  C    0.113818
    49  C   -0.350993
    50  C   -0.202126
    51  C   -0.202582
    52  C   -0.147261
    53  C   -0.089811
    54  C   -0.297734
    55  C   -0.157573
    56  C   -0.185583
    57  C   -0.150567
    58  C   -0.075268
    59  C   -0.292825
    60  C   -0.162005
    61  C   -0.193029
    62  C   -0.155837
    63  C   -0.051148
    64  C   -0.300142
    65  C   -0.297134
    66  H    0.078649
    67  H    0.063360
    68  H    0.062486
    69  H    0.134533
    70  H    0.104718
    71  H    0.106471
    72  H    0.099529
    73  H    0.133626
    74  H    0.107493
    75  H    0.102722
    76  H    0.144510
    77  H    0.128085
    78  H    0.122173
    79  H    0.127543
    80  H    0.105601
    81  H    0.082720
    82  H    0.093172
    83  H    0.102876
    84  H    0.117842
    85  H    0.096091
    86  H    0.134944
    87  H    0.108559
    88  H    0.096027
    89  H    0.091550
    90  H    0.125792
    91  H    0.096218
    92  H    0.126709
    93  H    0.145194
    94  H    0.130846
    95  H    0.155397
    96  H    0.142159
    97  H    0.169954
    98  H    0.139931
    99  H    0.103094
   100  H    0.115799
   101  H    0.061258
   102  H    0.124500
   103  H    0.077311
   104  H    0.111727
   105  H    0.122931
   106  H    0.107455
   107  H    0.101749
   108  H    0.080091
   109  H    0.077454
   110  H    0.095871
   111  H    0.081549
   112  H    0.106376
   113  H    0.092345
   114  H    0.103555
   115  H    0.095258
   116  H    0.075745
   117  H    0.067308
   118  H    0.085282
   119  H    0.090773
   120  H    0.093373
   121  H    0.078573
   122  H    0.089073
   123  H    0.066877
   124  H    0.115101
   125  H    0.079995
   126  H    0.096447
   127  H    0.096531
   128  H    0.086086
   129  H    0.090054
   130  H    0.088034
   131  H    0.080724
   132  H    0.055531
   133  H    0.110766
   134  H    0.110133
   135  H    0.063751
   136  H    0.110166
   137  H    0.107617
 Sum of Mulliken charges =  -0.00000

 Dipole moment (field-independent basis, Debye):
    X=              2.5555    Y=              2.6989    Z=              1.1094  Tot=              3.8788
 Quadrupole moment (field-independent basis, Debye-Ang):
   XX=           -350.3956   YY=           -396.0003   ZZ=           -398.4434
   XY=            -12.5658   XZ=              8.7756   YZ=             -8.3129

 Normal termination of Gaussian 16 at Thu Sep 12 18:48:29 2019.
