 Gaussian 16, Revision A.03,
 Gaussian 16:  ES64L-G16RevA.03 25-Dec-2016

 ----------------------------------------------------------------------
 # td=(NStates=1) iop(3/107=0140000000,3/108=0140000000) CAM-B3LYP/6-31
 G(d,p)
 ----------------------------------------------------------------------

 --
 TD
 --
 Symbolic Z-matrix:
 Charge =  0 Multiplicity = 1

                         Standard orientation:
 ---------------------------------------------------------------------
 Center     Atomic      Atomic             Coordinates (Angstroms)
 Number     Number       Type             X           Y           Z
 ---------------------------------------------------------------------
      1         12           0       -7.115825    0.640741    0.119177
      2          6           0       -4.900931   -2.021459    0.488268
      3          6           0       -4.668876    2.774056    1.222598
      4          6           0       -9.356688    3.128106   -0.302166
      5          6           0       -9.582717   -1.805103   -0.792231
      6          7           0       -5.074546    0.453809    0.595143
      7          6           0       -4.366517   -0.741160    0.774782
      8          6           0       -2.900512   -0.427959    1.165698
      9          6           0       -2.995336    1.045942    1.605628
     10          6           0       -4.297912    1.485320    1.133118
     11          6           0       -2.909804    1.146134    3.128062
     12          6           0       -1.873271   -0.696406    0.049579
     13          6           0       -0.423394   -0.577530    0.563981
     14          6           0        0.494414   -0.550767   -0.737533
     15          8           0        0.221200   -0.908855   -1.858441
     16          8           0        1.817138   -0.377737   -0.304938
     17          7           0       -7.060778    2.656550    0.319580
     18          6           0       -5.998188    3.430984    0.768374
     19          6           0       -6.321448    4.863882    0.754600
     20          6           0       -7.678425    4.871748    0.361192
     21          6           0       -8.107772    3.459848    0.149583
     22          6           0       -5.520382    5.984400    1.096321
     23          6           0       -8.507605    5.990544    0.135205
     24          6           0       -8.298335    7.248471    0.570802
     25          7           0       -9.164150    0.699015   -0.335896
     26          6           0       -9.863528    1.841420   -0.548096
     27          6           0      -11.124747    1.537641   -1.055427
     28          6           0      -11.268311    0.206767   -1.131151
     29          6           0       -9.934375   -0.433151   -0.747287
     30          6           0      -12.253834    2.545341   -1.225363
     31          6           0      -12.351240   -0.707165   -1.728076
     32          6           0      -12.200560   -1.051581   -3.197215
     33          7           0       -7.235582   -1.454050   -0.121366
     34          6           0       -8.328387   -2.174370   -0.403213
     35          6           0       -7.914837   -3.666166   -0.514197
     36          6           0       -6.616951   -3.618318   -0.145164
     37          6           0       -6.196994   -2.258824    0.076922
     38          6           0       -8.785091   -4.717393   -0.903367
     39          6           0       -5.387478   -4.501051    0.239778
     40          8           0       -5.185245   -5.706209    0.320050
     41          6           0       -4.286758   -3.372829    0.605313
     42          6           0       -3.610711   -3.683105    1.885344
     43          8           0       -3.730735   -3.119324    2.944426
     44          8           0       -2.709079   -4.711609    1.741630
     45          6           0       -2.018034   -5.127383    2.960694
     46          6           0        2.769561   -0.606737   -1.377124
     47          6           0        4.135171   -0.587062   -0.742231
     48          6           0        5.116834    0.315588   -1.010699
     49          6           0        5.088052    1.096041   -2.283869
     50          6           0        6.360310    0.208838   -0.166500
     51          6           0        7.609806   -0.159096   -0.972576
     52          6           0        8.919683   -0.186945   -0.204321
     53          6           0       10.130811   -0.621066   -0.979244
     54          6           0       10.019917   -2.124904   -1.318627
     55          6           0       11.473331   -0.357435   -0.121770
     56          6           0       12.807841   -0.580369   -0.784037
     57          6           0       13.991620   -0.283303    0.239584
     58          6           0       15.332005   -0.236580   -0.460337
     59          6           0       15.669837   -1.622310   -0.913693
     60          6           0       16.307606    0.283315    0.459798
     61          6           0       17.734510    0.627438   -0.109252
     62          6           0       18.697140    1.383411    0.816725
     63          6           0       20.138704    1.438639    0.320368
     64          6           0       20.280201    2.233103   -0.941072
     65          6           0       21.167789    2.044742    1.455205
     66          1           0       -3.808977    3.558894    1.561534
     67          1           0      -10.242330    3.987663   -0.450880
     68          1           0      -10.357293   -2.307531   -1.180256
     69          1           0       -2.742450   -1.136864    2.131955
     70          1           0       -2.293551    1.832178    1.347605
     71          1           0       -1.865195    0.767621    3.362035
     72          1           0       -2.948670    2.347893    3.450102
     73          1           0       -3.659861    0.635307    3.700631
     74          1           0       -2.189888   -1.636465   -0.589182
     75          1           0       -2.041567    0.150672   -0.752659
     76          1           0       -0.425075    0.539155    0.961204
     77          1           0       -0.161151   -1.501157    1.332979
     78          1           0       -5.883413    6.787563    0.480973
     79          1           0       -5.499357    6.203791    2.079015
     80          1           0       -4.413576    5.849646    0.863980
     81          1           0       -9.399849    5.760260   -0.506898
     82          1           0       -8.927264    8.021620    0.267787
     83          1           0       -7.568798    7.327081    1.374064
     84          1           0      -11.996520    3.377006   -1.953770
     85          1           0      -13.111113    1.975835   -1.645158
     86          1           0      -12.544760    2.957786   -0.224730
     87          1           0      -12.350189   -1.694098   -1.197996
     88          1           0      -13.215508    0.005963   -1.721000
     89          1           0      -13.084008   -1.769996   -3.592130
     90          1           0      -12.316739   -0.148953   -3.853545
     91          1           0      -11.212448   -1.309676   -3.458717
     92          1           0       -9.030436   -4.567445   -1.938921
     93          1           0       -8.314317   -5.588121   -0.643025
     94          1           0       -9.720485   -4.646347   -0.210536
     95          1           0       -3.374809   -3.192679   -0.171325
     96          1           0       -1.247876   -4.311719    3.354056
     97          1           0       -2.775867   -5.220823    3.786665
     98          1           0       -1.290827   -6.086500    2.731319
     99          1           0        2.522955   -1.609969   -1.783250
    100          1           0        2.617082    0.165667   -2.285157
    101          1           0        4.057223   -1.231283    0.109094
    102          1           0        4.153614    1.376263   -2.774929
    103          1           0        5.430241    2.126370   -2.118742
    104          1           0        5.606803    0.648594   -3.128096
    105          1           0        6.646138    1.351119    0.225876
    106          1           0        6.256962   -0.228243    0.700144
    107          1           0        7.199658   -1.093000   -1.536857
    108          1           0        7.694958    0.569457   -1.849025
    109          1           0        9.181675    0.956466    0.110000
    110          1           0        8.793818   -0.801409    0.723786
    111          1           0       10.311700    0.018796   -2.014446
    112          1           0        9.047032   -2.323749   -1.838312
    113          1           0       10.873086   -2.472858   -1.999822
    114          1           0       10.054652   -2.780222   -0.539387
    115          1           0       11.250522    0.748942    0.398070
    116          1           0       11.368417   -1.062641    0.697200
    117          1           0       12.933754   -1.617843   -1.227874
    118          1           0       13.026581    0.127509   -1.535908
    119          1           0       13.431095    0.710645    0.816913
    120          1           0       14.146953   -0.930511    1.061611
    121          1           0       15.477205    0.313627   -1.465555
    122          1           0       16.032011   -2.414590   -0.148025
    123          1           0       15.170473   -2.022100   -1.832402
    124          1           0       16.788327   -1.500061   -1.391324
    125          1           0       16.028517    1.395087    0.785616
    126          1           0       16.701227   -0.364603    1.349818
    127          1           0       18.327686   -0.405011   -0.464223
    128          1           0       17.691514    1.294936   -1.044843
    129          1           0       18.375605    2.337913    1.225227
    130          1           0       18.875980    0.896370    1.824647
    131          1           0       20.321545    0.390885    0.136863
    132          1           0       20.054578    3.384171   -0.536892
    133          1           0       21.368933    2.397327   -1.213167
    134          1           0       19.640355    2.069685   -1.878044
    135          1           0       20.965076    1.572253    2.276291
    136          1           0       22.195406    2.085184    1.170557
    137          1           0       20.852718    3.201841    1.655128
 ---------------------------------------------------------------------

 SCF Done:  E(RCAM-B3LYP) =  -2933.51328872     A.U. after   16 cycles

 Excitation energies and oscillator strengths:

 Excited State   1:      Singlet-A      1.9747 eV  627.86 nm  f=0.2978  <S**2>=0.000
     240 -> 243        0.21705
     241 -> 242        0.67028
 This state for optimization and/or second-order correction.
 Total Energy, E(TD-HF/TD-DFT) =  -2933.44071945
 Copying the excited state density for this state as the 1-particle RhoCI density.

 The electronic state is 1-A.
 Alpha  occ. eigenvalues --  -46.80322 -19.21621 -19.21581 -19.18203 -19.18006
 Alpha  occ. eigenvalues --  -19.16906 -14.37705 -14.35707 -14.35512 -14.34829
 Alpha  occ. eigenvalues --  -10.35362 -10.34563 -10.32706 -10.28973 -10.27374
 Alpha  occ. eigenvalues --  -10.27344 -10.26691 -10.26638 -10.25317 -10.25279
 Alpha  occ. eigenvalues --  -10.25216 -10.24645 -10.24619 -10.24502 -10.24493
 Alpha  occ. eigenvalues --  -10.24385 -10.23824 -10.23720 -10.23566 -10.23517
 Alpha  occ. eigenvalues --  -10.23144 -10.23108 -10.22843 -10.22788 -10.22750
 Alpha  occ. eigenvalues --  -10.22650 -10.22621 -10.22568 -10.22366 -10.22338
 Alpha  occ. eigenvalues --  -10.22268 -10.22267 -10.22259 -10.22208 -10.22190
 Alpha  occ. eigenvalues --  -10.22035 -10.22027 -10.22025 -10.21976 -10.21856
 Alpha  occ. eigenvalues --  -10.21850 -10.21745 -10.21639 -10.21561 -10.21463
 Alpha  occ. eigenvalues --  -10.21458 -10.21427 -10.21361 -10.21105 -10.20814
 Alpha  occ. eigenvalues --  -10.20754 -10.20658 -10.20515 -10.20511 -10.19883
 Alpha  occ. eigenvalues --   -3.08774  -1.83738  -1.83222  -1.83182  -1.12423
 Alpha  occ. eigenvalues --   -1.12147  -1.06710  -1.04511  -1.03877  -1.00028
 Alpha  occ. eigenvalues --   -0.98545  -0.97508  -0.96334  -0.87998  -0.86441
 Alpha  occ. eigenvalues --   -0.85979  -0.84892  -0.84724  -0.84272  -0.83886
 Alpha  occ. eigenvalues --   -0.83337  -0.83288  -0.82826  -0.82594  -0.81069
 Alpha  occ. eigenvalues --   -0.79962  -0.78987  -0.78777  -0.78019  -0.77544
 Alpha  occ. eigenvalues --   -0.76462  -0.75919  -0.75254  -0.75193  -0.73611
 Alpha  occ. eigenvalues --   -0.72991  -0.71928  -0.71584  -0.70824  -0.70703
 Alpha  occ. eigenvalues --   -0.70315  -0.69982  -0.69580  -0.68486  -0.67785
 Alpha  occ. eigenvalues --   -0.66911  -0.65397  -0.64680  -0.64153  -0.63679
 Alpha  occ. eigenvalues --   -0.63033  -0.61878  -0.61026  -0.60548  -0.60177
 Alpha  occ. eigenvalues --   -0.59757  -0.58296  -0.58046  -0.57947  -0.57524
 Alpha  occ. eigenvalues --   -0.57345  -0.56741  -0.56104  -0.55506  -0.54963
 Alpha  occ. eigenvalues --   -0.54680  -0.54264  -0.54004  -0.52769  -0.52397
 Alpha  occ. eigenvalues --   -0.51953  -0.51610  -0.51105  -0.50846  -0.50294
 Alpha  occ. eigenvalues --   -0.50041  -0.49769  -0.49731  -0.49336  -0.49084
 Alpha  occ. eigenvalues --   -0.48736  -0.48603  -0.48352  -0.48265  -0.47985
 Alpha  occ. eigenvalues --   -0.47605  -0.47529  -0.47461  -0.47333  -0.47188
 Alpha  occ. eigenvalues --   -0.46887  -0.46684  -0.46376  -0.46089  -0.45984
 Alpha  occ. eigenvalues --   -0.45867  -0.45440  -0.45349  -0.45144  -0.44871
 Alpha  occ. eigenvalues --   -0.44702  -0.44548  -0.44283  -0.43836  -0.43527
 Alpha  occ. eigenvalues --   -0.43516  -0.43300  -0.43127  -0.42746  -0.42657
 Alpha  occ. eigenvalues --   -0.42448  -0.42369  -0.42008  -0.41884  -0.41715
 Alpha  occ. eigenvalues --   -0.41640  -0.41360  -0.41281  -0.41041  -0.40759
 Alpha  occ. eigenvalues --   -0.40613  -0.40430  -0.40185  -0.39905  -0.39746
 Alpha  occ. eigenvalues --   -0.39609  -0.39375  -0.39281  -0.39039  -0.38667
 Alpha  occ. eigenvalues --   -0.38553  -0.38395  -0.38089  -0.37886  -0.37746
 Alpha  occ. eigenvalues --   -0.37559  -0.37472  -0.37321  -0.37298  -0.37202
 Alpha  occ. eigenvalues --   -0.36735  -0.36353  -0.36273  -0.36070  -0.35668
 Alpha  occ. eigenvalues --   -0.35399  -0.34928  -0.34760  -0.34659  -0.34606
 Alpha  occ. eigenvalues --   -0.34183  -0.33957  -0.33840  -0.33380  -0.33324
 Alpha  occ. eigenvalues --   -0.33068  -0.32747  -0.32722  -0.32540  -0.32415
 Alpha  occ. eigenvalues --   -0.32383  -0.32279  -0.32187  -0.31109  -0.30634
 Alpha  occ. eigenvalues --   -0.30350  -0.29714  -0.29566  -0.28319  -0.27865
 Alpha  occ. eigenvalues --   -0.27580  -0.26829  -0.25719  -0.24426  -0.21866
 Alpha  occ. eigenvalues --   -0.19523
 Alpha virt. eigenvalues --   -0.06954  -0.03940  -0.00682   0.02068   0.02162
 Alpha virt. eigenvalues --    0.03490   0.03534   0.04524   0.05216   0.05722
 Alpha virt. eigenvalues --    0.05818   0.08201   0.08606   0.09088   0.09505

 Mulliken charges:
               1
     1  Mg   0.808287
     2  C    0.107299
     3  C   -0.227809
     4  C   -0.170882
     5  C   -0.102738
     6  N   -0.648616
     7  C    0.290315
     8  C   -0.156738
     9  C   -0.156894
    10  C    0.414865
    11  C   -0.291925
    12  C   -0.166591
    13  C   -0.244372
    14  C    0.597565
    15  O   -0.436961
    16  O   -0.481123
    17  N   -0.708648
    18  C    0.249127
    19  C    0.056785
    20  C    0.005903
    21  C    0.351990
    22  C   -0.403398
    23  C   -0.068271
    24  C   -0.265337
    25  N   -0.718252
    26  C    0.337262
    27  C    0.028392
    28  C   -0.004049
    29  C    0.236993
    30  C   -0.376023
    31  C   -0.232757
    32  C   -0.301586
    33  N   -0.711072
    34  C    0.285059
    35  C   -0.014210
    36  C    0.013502
    37  C    0.276986
    38  C   -0.377938
    39  C    0.402696
    40  O   -0.439686
    41  C   -0.348211
    42  C    0.623047
    43  O   -0.468925
    44  O   -0.450946
    45  C   -0.077023
    46  C    0.013875
    47  C   -0.115943
    48  C    0.126348
    49  C   -0.385280
    50  C   -0.195294
    51  C   -0.171249
    52  C   -0.152732
    53  C   -0.047826
    54  C   -0.316490
    55  C   -0.164645
    56  C   -0.178231
    57  C   -0.143015
    58  C   -0.041838
    59  C   -0.321875
    60  C   -0.153240
    61  C   -0.184675
    62  C   -0.166162
    63  C   -0.050849
    64  C   -0.287340
    65  C   -0.314295
    66  H    0.067834
    67  H    0.086521
    68  H    0.071872
    69  H    0.120544
    70  H    0.110432
    71  H    0.101558
    72  H    0.072369
    73  H    0.135848
    74  H    0.108299
    75  H    0.108056
    76  H    0.130044
    77  H    0.135021
    78  H    0.131250
    79  H    0.141109
    80  H    0.099575
    81  H    0.078126
    82  H    0.100488
    83  H    0.106150
    84  H    0.112091
    85  H    0.105104
    86  H    0.126948
    87  H    0.104884
    88  H    0.097448
    89  H    0.087850
    90  H    0.099752
    91  H    0.116093
    92  H    0.141383
    93  H    0.147599
    94  H    0.118433
    95  H    0.149007
    96  H    0.101014
    97  H    0.141300
    98  H    0.115698
    99  H    0.119168
   100  H    0.095563
   101  H    0.092176
   102  H    0.115590
   103  H    0.111963
   104  H    0.131738
   105  H    0.053445
   106  H    0.107338
   107  H    0.086525
   108  H    0.095992
   109  H    0.073246
   110  H    0.091906
   111  H    0.057163
   112  H    0.099076
   113  H    0.089613
   114  H    0.112719
   115  H    0.057642
   116  H    0.095347
   117  H    0.095005
   118  H    0.106484
   119  H    0.049214
   120  H    0.100580
   121  H    0.086901
   122  H    0.100706
   123  H    0.112887
   124  H    0.073255
   125  H    0.085519
   126  H    0.090104
   127  H    0.060244
   128  H    0.086536
   129  H    0.090051
   130  H    0.070831
   131  H    0.090318
   132  H    0.061471
   133  H    0.093932
   134  H    0.100677
   135  H    0.116130
   136  H    0.113853
   137  H    0.075054
 Sum of Mulliken charges =  -0.00000

 Dipole moment (field-independent basis, Debye):
    X=              1.6518    Y=              2.6886    Z=             -0.0490  Tot=              3.1558
 Quadrupole moment (field-independent basis, Debye-Ang):
   XX=           -352.4234   YY=           -398.6757   ZZ=           -398.2420
   XY=            -19.9360   XZ=             14.6152   YZ=             -1.0299

 Normal termination of Gaussian 16 at Mon Sep 23 22:55:26 2019.
