 Gaussian 09, Revision D.01,
 Gaussian 09:  ES64L-G09RevD.01 24-Apr-2013

 -------------------------------------
 # td=(NStates=1) CAM-B3LYP/6-31G(d,p)
 -------------------------------------

 --
 TD
 --
 Symbolic Z-matrix:
 Charge =  0 Multiplicity = 1

                         Standard orientation:
 ---------------------------------------------------------------------
 Center     Atomic      Atomic             Coordinates (Angstroms)
 Number     Number       Type             X           Y           Z
 ---------------------------------------------------------------------
      1         12           0       -7.128555    0.631977    0.038847
      2          6           0       -4.809984   -1.852243    0.598538
      3          6           0       -4.839974    2.927671    1.135542
      4          6           0       -9.426422    3.028026   -0.491002
      5          6           0       -9.403686   -1.772181   -0.933821
      6          7           0       -5.143241    0.513964    0.731935
      7          6           0       -4.323369   -0.632380    0.853890
      8          6           0       -2.893639   -0.321899    1.209305
      9          6           0       -3.045177    1.125656    1.765907
     10          6           0       -4.414377    1.574825    1.050232
     11          6           0       -3.161889    1.270227    3.241061
     12          6           0       -1.974151   -0.438408    0.077254
     13          6           0       -0.495757   -0.329321    0.594088
     14          6           0        0.570022   -0.527785   -0.529110
     15          8           0        0.271316   -0.884388   -1.682328
     16          8           0        1.794566   -0.337580   -0.079424
     17          7           0       -7.197586    2.622165    0.371248
     18          6           0       -6.125626    3.373968    0.800940
     19          6           0       -6.590940    4.845574    0.743412
     20          6           0       -7.805105    4.822379    0.268369
     21          6           0       -8.179047    3.420079   -0.018047
     22          6           0       -5.654864    5.835447    1.312254
     23          6           0       -8.648369    6.003557    0.056387
     24          6           0       -8.704554    7.110356    0.682541
     25          7           0       -9.064837    0.582554   -0.521059
     26          6           0       -9.822114    1.684093   -0.768917
     27          6           0      -11.180221    1.331819   -1.135356
     28          6           0      -11.157392    0.050783   -1.314437
     29          6           0       -9.841185   -0.515643   -0.864022
     30          6           0      -12.295748    2.304265   -1.516506
     31          6           0      -12.313502   -0.868071   -1.688087
     32          6           0      -12.271484   -1.088923   -3.277779
     33          7           0       -7.163138   -1.384519   -0.224259
     34          6           0       -8.190980   -2.263831   -0.559271
     35          6           0       -7.696450   -3.667414   -0.559625
     36          6           0       -6.352084   -3.515366   -0.175842
     37          6           0       -6.128463   -2.246720    0.119731
     38          6           0       -8.382918   -4.949246   -0.897169
     39          6           0       -5.311725   -4.372413    0.163735
     40          8           0       -5.128191   -5.563369    0.116477
     41          6           0       -4.129488   -3.297748    0.640549
     42          6           0       -3.519941   -3.632381    1.944770
     43          8           0       -3.735263   -3.047937    2.995137
     44          8           0       -2.755835   -4.743366    1.815422
     45          6           0       -2.241391   -5.177082    3.113955
     46          6           0        2.701706   -0.573619   -1.145010
     47          6           0        4.100164   -0.473708   -0.477757
     48          6           0        5.122539    0.315069   -0.811123
     49          6           0        5.007017    1.144870   -2.148772
     50          6           0        6.402322    0.410328   -0.170128
     51          6           0        7.553898   -0.118945   -1.027216
     52          6           0        8.870992   -0.108389   -0.071115
     53          6           0       10.221764   -0.524093   -0.908268
     54          6           0       10.072689   -1.941903   -1.435521
     55          6           0       11.455449   -0.291852    0.034309
     56          6           0       12.777973   -0.599672   -0.680232
     57          6           0       14.021885   -0.136443    0.130887
     58          6           0       15.437383   -0.175504   -0.463453
     59          6           0       15.663267   -1.660125   -0.810002
     60          6           0       16.505229    0.308963    0.466095
     61          6           0       17.941452    0.395864   -0.242852
     62          6           0       18.778060    1.263940    0.656887
     63          6           0       20.264299    1.388960    0.179608
     64          6           0       20.437006    2.113728   -1.158701
     65          6           0       21.127103    2.097880    1.306312
     66          1           0       -4.118434    3.597989    1.666679
     67          1           0      -10.222956    3.812195   -0.773379
     68          1           0      -10.044431   -2.526388   -1.402949
     69          1           0       -2.533379   -0.971679    2.136508
     70          1           0       -2.275315    1.643788    1.301519
     71          1           0       -2.100801    1.037931    3.621085
     72          1           0       -3.356825    2.287299    3.471315
     73          1           0       -3.988831    0.653342    3.782877
     74          1           0       -2.149807   -1.458280   -0.351064
     75          1           0       -1.806837    0.226170   -0.754281
     76          1           0       -0.332462    0.616585    0.893974
     77          1           0       -0.327906   -1.035986    1.480046
     78          1           0       -6.150083    6.865715    0.915244
     79          1           0       -5.610858    5.846715    2.336907
     80          1           0       -4.674085    5.746621    0.951009
     81          1           0       -9.265930    5.976671   -0.787741
     82          1           0       -9.339043    8.004176    0.342710
     83          1           0       -8.078409    7.112015    1.639862
     84          1           0      -12.207727    2.813382   -2.405226
     85          1           0      -13.440942    1.882029   -1.582271
     86          1           0      -12.486984    2.854710   -0.564056
     87          1           0      -12.278369   -1.882302   -1.196043
     88          1           0      -13.239823   -0.401724   -1.254222
     89          1           0      -13.083723   -1.849574   -3.539964
     90          1           0      -12.169805   -0.212904   -3.768476
     91          1           0      -11.256941   -1.701670   -3.342758
     92          1           0       -8.908055   -4.907601   -1.951664
     93          1           0       -7.698607   -5.681696   -0.892640
     94          1           0       -9.160894   -5.115504   -0.328692
     95          1           0       -3.285767   -3.613644   -0.034860
     96          1           0       -1.423268   -4.543920    3.640833
     97          1           0       -3.005247   -5.575237    3.718592
     98          1           0       -1.827089   -6.153900    2.701162
     99          1           0        2.819985   -1.528254   -1.536325
    100          1           0        2.403576   -0.068635   -1.976181
    101          1           0        4.294496   -1.080716    0.412724
    102          1           0        4.001572    1.214184   -2.501204
    103          1           0        5.291758    2.113022   -1.923367
    104          1           0        5.687121    0.784675   -2.868918
    105          1           0        6.741527    1.516048   -0.013690
    106          1           0        6.445384   -0.079034    0.867556
    107          1           0        7.296683   -1.025726   -1.213025
    108          1           0        7.868109    0.374521   -1.923278
    109          1           0        8.893466    1.029774    0.360064
    110          1           0        8.765476   -0.775365    0.741401
    111          1           0       10.309094    0.279997   -1.725794
    112          1           0        9.280985   -2.011749   -2.158629
    113          1           0       10.987830   -2.303982   -1.933615
    114          1           0        9.803218   -2.783194   -0.604515
    115          1           0       11.563043    0.770327    0.431877
    116          1           0       11.506418   -0.990072    0.651671
    117          1           0       12.852924   -1.680353   -0.782181
    118          1           0       12.694979    0.060668   -1.611385
    119          1           0       13.878478    0.796437    0.522579
    120          1           0       13.797352   -0.770973    1.073097
    121          1           0       15.389595    0.461320   -1.420870
    122          1           0       15.668990   -2.291786    0.102460
    123          1           0       14.959477   -1.789313   -1.499845
    124          1           0       16.754257   -1.700976   -1.226446
    125          1           0       16.178753    1.168382    0.733221
    126          1           0       16.583872   -0.313107    1.398731
    127          1           0       18.301977   -0.431655   -0.577808
    128          1           0       17.773870    0.681595   -1.332636
    129          1           0       18.143466    2.355288    0.710201
    130          1           0       18.779831    0.808659    1.623319
    131          1           0       20.714085    0.385449    0.015073
    132          1           0       20.145570    3.223472   -1.124242
    133          1           0       21.323242    2.057175   -1.598679
    134          1           0       19.689056    1.819789   -1.946414
    135          1           0       21.085903    1.528992    2.314925
    136          1           0       22.126941    1.989317    0.901493
    137          1           0       20.797598    3.100642    1.470628
 ---------------------------------------------------------------------

 SCF Done:  E(RCAM-B3LYP) =  -2932.69424631     A.U. after   17 cycles

 Excitation energies and oscillator strengths:

 Excited State   1:      Singlet-A      2.2256 eV  557.09 nm  f=0.2683  <S**2>=0.000
     240 -> 242       -0.11174
     240 -> 243       -0.21005
     241 -> 242        0.65677
 This state for optimization and/or second-order correction.
 Total Energy, E(TD-HF/TD-KS) =  -2932.61245792
 Copying the excited state density for this state as the 1-particle RhoCI density.

 The electronic state is 1-A.
 Alpha  occ. eigenvalues --  -46.83772 -19.28146 -19.25795 -19.21043 -19.20136
 Alpha  occ. eigenvalues --  -19.19538 -14.42034 -14.39933 -14.39513 -14.38636
 Alpha  occ. eigenvalues --  -10.39655 -10.37588 -10.34434 -10.31665 -10.31260
 Alpha  occ. eigenvalues --  -10.31082 -10.30843 -10.30315 -10.29946 -10.29448
 Alpha  occ. eigenvalues --  -10.27994 -10.27743 -10.27629 -10.27460 -10.27445
 Alpha  occ. eigenvalues --  -10.27441 -10.27364 -10.27321 -10.27218 -10.27168
 Alpha  occ. eigenvalues --  -10.27109 -10.27012 -10.26975 -10.26916 -10.26808
 Alpha  occ. eigenvalues --  -10.26731 -10.26597 -10.26571 -10.26551 -10.26537
 Alpha  occ. eigenvalues --  -10.26483 -10.26420 -10.26340 -10.26237 -10.26215
 Alpha  occ. eigenvalues --  -10.26180 -10.25998 -10.25996 -10.25967 -10.25904
 Alpha  occ. eigenvalues --  -10.25646 -10.25626 -10.25480 -10.25049 -10.24594
 Alpha  occ. eigenvalues --  -10.24278 -10.24128 -10.24105 -10.24001 -10.23898
 Alpha  occ. eigenvalues --  -10.23855 -10.23669 -10.23454 -10.23420 -10.23357
 Alpha  occ. eigenvalues --   -3.12966  -1.87666  -1.87206  -1.87153  -1.20548
 Alpha  occ. eigenvalues --   -1.16851  -1.11095  -1.08726  -1.07687  -1.05012
 Alpha  occ. eigenvalues --   -1.03680  -1.03402  -1.01986  -0.91703  -0.91257
 Alpha  occ. eigenvalues --   -0.90885  -0.90711  -0.90602  -0.88999  -0.88836
 Alpha  occ. eigenvalues --   -0.88340  -0.87654  -0.87571  -0.86654  -0.86440
 Alpha  occ. eigenvalues --   -0.85306  -0.84675  -0.83611  -0.83220  -0.82681
 Alpha  occ. eigenvalues --   -0.81733  -0.81350  -0.80892  -0.80231  -0.79036
 Alpha  occ. eigenvalues --   -0.78301  -0.77201  -0.76208  -0.75693  -0.75496
 Alpha  occ. eigenvalues --   -0.75390  -0.75150  -0.74840  -0.73152  -0.72344
 Alpha  occ. eigenvalues --   -0.71258  -0.70552  -0.69611  -0.69376  -0.68552
 Alpha  occ. eigenvalues --   -0.68199  -0.66723  -0.66123  -0.65464  -0.65277
 Alpha  occ. eigenvalues --   -0.64301  -0.63305  -0.63252  -0.63037  -0.61442
 Alpha  occ. eigenvalues --   -0.61112  -0.61058  -0.60423  -0.59734  -0.59456
 Alpha  occ. eigenvalues --   -0.59306  -0.58223  -0.57076  -0.57035  -0.56475
 Alpha  occ. eigenvalues --   -0.55541  -0.55525  -0.55324  -0.55121  -0.55036
 Alpha  occ. eigenvalues --   -0.54771  -0.54144  -0.53963  -0.53614  -0.53347
 Alpha  occ. eigenvalues --   -0.53212  -0.53129  -0.52490  -0.52014  -0.51827
 Alpha  occ. eigenvalues --   -0.51445  -0.51175  -0.50951  -0.50865  -0.50575
 Alpha  occ. eigenvalues --   -0.50384  -0.50132  -0.50010  -0.49648  -0.49597
 Alpha  occ. eigenvalues --   -0.49362  -0.49019  -0.48962  -0.48594  -0.48459
 Alpha  occ. eigenvalues --   -0.48347  -0.48051  -0.47869  -0.47592  -0.47432
 Alpha  occ. eigenvalues --   -0.46980  -0.46779  -0.46739  -0.46393  -0.46305
 Alpha  occ. eigenvalues --   -0.45916  -0.45780  -0.45418  -0.45357  -0.45160
 Alpha  occ. eigenvalues --   -0.44915  -0.44582  -0.44467  -0.44159  -0.44115
 Alpha  occ. eigenvalues --   -0.43913  -0.43765  -0.43401  -0.43365  -0.43318
 Alpha  occ. eigenvalues --   -0.43094  -0.42964  -0.42619  -0.42505  -0.42335
 Alpha  occ. eigenvalues --   -0.42181  -0.41937  -0.41875  -0.41454  -0.41394
 Alpha  occ. eigenvalues --   -0.41085  -0.40778  -0.40530  -0.40488  -0.40361
 Alpha  occ. eigenvalues --   -0.40322  -0.40170  -0.39744  -0.39301  -0.38954
 Alpha  occ. eigenvalues --   -0.38939  -0.38736  -0.38202  -0.38168  -0.37960
 Alpha  occ. eigenvalues --   -0.37557  -0.37360  -0.37209  -0.36920  -0.36766
 Alpha  occ. eigenvalues --   -0.36644  -0.36220  -0.36056  -0.35698  -0.35613
 Alpha  occ. eigenvalues --   -0.35345  -0.35293  -0.34383  -0.33719  -0.33395
 Alpha  occ. eigenvalues --   -0.33130  -0.32835  -0.32337  -0.31237  -0.29940
 Alpha  occ. eigenvalues --   -0.29497  -0.29260  -0.29227  -0.28527  -0.23707
 Alpha  occ. eigenvalues --   -0.21167
 Alpha virt. eigenvalues --   -0.05907  -0.02042   0.02183   0.05105   0.05878
 Alpha virt. eigenvalues --    0.06076   0.06707   0.07191   0.07455   0.07827
 Alpha virt. eigenvalues --    0.08982   0.10527   0.11509   0.11944   0.12555

 Mulliken charges:
               1
     1  Mg   0.813334
     2  C    0.080411
     3  C   -0.229582
     4  C   -0.198751
     5  C   -0.178179
     6  N   -0.608720
     7  C    0.271547
     8  C   -0.155771
     9  C   -0.130012
    10  C    0.323585
    11  C   -0.297636
    12  C   -0.162874
    13  C   -0.278003
    14  C    0.596662
    15  O   -0.495888
    16  O   -0.430067
    17  N   -0.725216
    18  C    0.310249
    19  C    0.021917
    20  C    0.001997
    21  C    0.356495
    22  C   -0.371159
    23  C   -0.036892
    24  C   -0.261983
    25  N   -0.694468
    26  C    0.298705
    27  C    0.027488
    28  C    0.030865
    29  C    0.293988
    30  C   -0.377701
    31  C   -0.245110
    32  C   -0.301803
    33  N   -0.697416
    34  C    0.250723
    35  C    0.014654
    36  C    0.042923
    37  C    0.247800
    38  C   -0.357471
    39  C    0.358678
    40  O   -0.457957
    41  C   -0.360497
    42  C    0.635670
    43  O   -0.495032
    44  O   -0.457629
    45  C   -0.090199
    46  C    0.011178
    47  C   -0.185437
    48  C    0.143898
    49  C   -0.364617
    50  C   -0.241813
    51  C   -0.174085
    52  C   -0.181202
    53  C   -0.065140
    54  C   -0.317076
    55  C   -0.148619
    56  C   -0.206739
    57  C   -0.172204
    58  C   -0.084778
    59  C   -0.286321
    60  C   -0.148521
    61  C   -0.179660
    62  C   -0.145495
    63  C   -0.071593
    64  C   -0.310464
    65  C   -0.305185
    66  H    0.089894
    67  H    0.094978
    68  H    0.092693
    69  H    0.125831
    70  H    0.099364
    71  H    0.101537
    72  H    0.113252
    73  H    0.131809
    74  H    0.123063
    75  H    0.124020
    76  H    0.136896
    77  H    0.124447
    78  H    0.097508
    79  H    0.141463
    80  H    0.128728
    81  H    0.088723
    82  H    0.109083
    83  H    0.093903
    84  H    0.140568
    85  H    0.092942
    86  H    0.126004
    87  H    0.102096
    88  H    0.098649
    89  H    0.103941
    90  H    0.128218
    91  H    0.093511
    92  H    0.096396
    93  H    0.150026
    94  H    0.137518
    95  H    0.155274
    96  H    0.123582
    97  H    0.143550
    98  H    0.116556
    99  H    0.140736
   100  H    0.135438
   101  H    0.085306
   102  H    0.106598
   103  H    0.114786
   104  H    0.123208
   105  H    0.091085
   106  H    0.095095
   107  H    0.113648
   108  H    0.103265
   109  H    0.063895
   110  H    0.100091
   111  H    0.076384
   112  H    0.115915
   113  H    0.111432
   114  H    0.081559
   115  H    0.087705
   116  H    0.098990
   117  H    0.104090
   118  H    0.073141
   119  H    0.084248
   120  H    0.063577
   121  H    0.076892
   122  H    0.100082
   123  H    0.113494
   124  H    0.069425
   125  H    0.095118
   126  H    0.083000
   127  H    0.104490
   128  H    0.073070
   129  H    0.060879
   130  H    0.101978
   131  H    0.086879
   132  H    0.086586
   133  H    0.112933
   134  H    0.093791
   135  H    0.084903
   136  H    0.100628
   137  H    0.111825
 Sum of Mulliken charges =   0.00000

 Dipole moment (field-independent basis, Debye):
    X=              0.9524    Y=              5.3859    Z=              0.1623  Tot=              5.4719
 Quadrupole moment (field-independent basis, Debye-Ang):
   XX=           -337.6698   YY=           -392.7046   ZZ=           -395.3948
   XY=            -33.4239   XZ=             10.3432   YZ=             -3.2193

 Normal termination of Gaussian 09 at Tue Jul  2 19:14:13 2019.
