 Gaussian 09, Revision D.01,
 Gaussian 09:  ES64L-G09RevD.01 24-Apr-2013

 -------------------------------------
 # td=(NStates=1) CAM-B3LYP/6-31G(d,p)
 -------------------------------------

 --
 TD
 --
 Symbolic Z-matrix:
 Charge =  0 Multiplicity = 1

                         Standard orientation:
 ---------------------------------------------------------------------
 Center     Atomic      Atomic             Coordinates (Angstroms)
 Number     Number       Type             X           Y           Z
 ---------------------------------------------------------------------
      1         12           0       -7.241191    0.603580    0.136538
      2          6           0       -4.833958   -1.903163    0.492111
      3          6           0       -4.863360    2.834511    1.193357
      4          6           0       -9.432085    3.025501   -0.357551
      5          6           0       -9.560573   -1.795493   -0.875416
      6          7           0       -5.105001    0.474778    0.703173
      7          6           0       -4.365438   -0.725790    0.828794
      8          6           0       -2.805716   -0.372293    1.195913
      9          6           0       -3.059704    1.080824    1.765622
     10          6           0       -4.436245    1.498034    1.168771
     11          6           0       -2.994171    1.154717    3.251753
     12          6           0       -1.874119   -0.598557   -0.065455
     13          6           0       -0.442804   -0.370370    0.453288
     14          6           0        0.499772   -0.574072   -0.592311
     15          8           0        0.289413   -1.049360   -1.740888
     16          8           0        1.863136   -0.443385   -0.194516
     17          7           0       -7.154518    2.617054    0.345634
     18          6           0       -6.114753    3.366982    0.734572
     19          6           0       -6.403022    4.816481    0.746520
     20          6           0       -7.746136    4.899748    0.394799
     21          6           0       -8.235922    3.558454    0.118665
     22          6           0       -5.458568    5.899647    1.163585
     23          6           0       -8.643407    6.038494    0.264626
     24          6           0       -8.639462    7.241052    0.899480
     25          7           0       -9.107868    0.649482   -0.518639
     26          6           0       -9.866186    1.770230   -0.749957
     27          6           0      -11.214294    1.479731   -1.162735
     28          6           0      -11.232858    0.087640   -1.367516
     29          6           0       -9.905766   -0.448102   -0.974696
     30          6           0      -12.265575    2.491363   -1.627132
     31          6           0      -12.396426   -0.770049   -1.681344
     32          6           0      -12.371142   -1.144947   -3.208168
     33          7           0       -7.277106   -1.401495   -0.163422
     34          6           0       -8.298029   -2.279157   -0.539045
     35          6           0       -7.872828   -3.645597   -0.467105
     36          6           0       -6.419894   -3.456610   -0.180019
     37          6           0       -6.234886   -2.184570   -0.050210
     38          6           0       -8.726201   -4.877690   -0.779598
     39          6           0       -5.282072   -4.345557    0.129008
     40          8           0       -5.321818   -5.553055    0.225377
     41          6           0       -4.123695   -3.365175    0.597070
     42          6           0       -3.518266   -3.702907    1.927473
     43          8           0       -3.792472   -3.165456    3.009419
     44          8           0       -2.699969   -4.765204    1.805599
     45          6           0       -2.261260   -5.333076    3.058193
     46          6           0        2.935180   -0.645858   -1.206786
     47          6           0        4.261793   -0.363478   -0.543355
     48          6           0        5.227403    0.466272   -0.943307
     49          6           0        5.146949    1.408282   -2.108357
     50          6           0        6.459127    0.530701   -0.285844
     51          6           0        7.656686   -0.107467   -0.991130
     52          6           0        9.041085   -0.107283   -0.248864
     53          6           0       10.245753   -0.608797   -0.917445
     54          6           0       10.143647   -2.034153   -1.370837
     55          6           0       11.390734   -0.367061    0.039567
     56          6           0       12.771978   -0.604830   -0.550278
     57          6           0       14.043983   -0.306552    0.277220
     58          6           0       15.420753   -0.272486   -0.415980
     59          6           0       15.899227   -1.630673   -0.894413
     60          6           0       16.429672    0.359917    0.505501
     61          6           0       17.781147    0.576577   -0.154996
     62          6           0       18.872058    1.221582    0.825299
     63          6           0       20.262443    1.356201    0.179635
     64          6           0       20.273742    2.136276   -1.240773
     65          6           0       21.075842    2.081550    1.253172
     66          1           0       -4.049014    3.560593    1.427922
     67          1           0      -10.199105    3.775666   -0.422123
     68          1           0      -10.291690   -2.431825   -0.998159
     69          1           0       -2.699877   -1.079684    1.999378
     70          1           0       -2.100036    1.621012    1.156841
     71          1           0       -2.059875    0.832194    3.781584
     72          1           0       -3.270764    2.080469    3.738626
     73          1           0       -3.892582    0.645615    3.489198
     74          1           0       -1.874396   -1.636489   -0.424249
     75          1           0       -1.943905    0.139913   -0.826115
     76          1           0       -0.110176    0.646130    0.866021
     77          1           0       -0.389075   -1.195770    1.143202
     78          1           0       -5.517667    6.945316    0.457482
     79          1           0       -5.907086    6.070973    2.261370
     80          1           0       -4.420010    5.544994    0.970280
     81          1           0       -9.415673    6.028961   -0.452087
     82          1           0       -9.522747    8.043771    0.831040
     83          1           0       -7.904077    7.401635    1.617318
     84          1           0      -11.961071    3.298741   -2.632723
     85          1           0      -13.285255    1.965521   -1.958959
     86          1           0      -12.711987    2.945343   -0.639736
     87          1           0      -12.242049   -1.891870   -1.130897
     88          1           0      -13.324752   -0.264902   -1.707141
     89          1           0      -13.297105   -1.509544   -3.594177
     90          1           0      -12.178061   -0.094876   -3.714662
     91          1           0      -11.607876   -1.793347   -3.562931
     92          1           0       -8.733715   -5.159394   -1.991546
     93          1           0       -8.110796   -5.707112   -0.332258
     94          1           0       -9.942493   -5.011985   -0.561925
     95          1           0       -3.263483   -3.353917   -0.009856
     96          1           0       -1.635157   -4.527277    3.462014
     97          1           0       -3.064617   -5.644660    3.556082
     98          1           0       -1.747886   -6.210337    2.743847
     99          1           0        2.838637   -1.659869   -1.725210
    100          1           0        2.986386    0.047161   -2.103248
    101          1           0        4.470930   -1.100281    0.120229
    102          1           0        4.138843    1.353995   -2.476788
    103          1           0        5.346920    2.395241   -1.941243
    104          1           0        5.618661    1.052581   -2.944299
    105          1           0        6.819022    1.659300    0.086853
    106          1           0        6.532454   -0.136277    0.778042
    107          1           0        7.275248   -1.105818   -1.401694
    108          1           0        7.984282    0.477463   -1.855769
    109          1           0        9.111715    0.939344    0.234634
    110          1           0        8.804440   -0.612395    0.809886
    111          1           0       10.522242   -0.118920   -1.874554
    112          1           0        9.087218   -2.158656   -1.888109
    113          1           0       11.045671   -2.357136   -2.116621
    114          1           0        9.813745   -2.652777   -0.563676
    115          1           0       11.446466    0.404556    0.548262
    116          1           0       11.166583   -1.229489    0.849003
    117          1           0       12.908371   -1.553609   -0.823819
    118          1           0       12.944640    0.270637   -1.405152
    119          1           0       13.935284    0.815174    0.597539
    120          1           0       14.074864   -0.887882    1.236207
    121          1           0       15.324955    0.126202   -1.413466
    122          1           0       15.903831   -2.322735   -0.086183
    123          1           0       15.445035   -2.085790   -1.855364
    124          1           0       16.888287   -1.722258   -1.388107
    125          1           0       15.959103    1.264422    0.842878
    126          1           0       16.460491   -0.038527    1.380585
    127          1           0       18.208452   -0.477976   -0.608615
    128          1           0       17.653722    1.453029   -0.929258
    129          1           0       18.593162    2.063160    1.108283
    130          1           0       18.939313    0.587084    1.838593
    131          1           0       20.746283    0.478706    0.079021
    132          1           0       19.961899    3.118695   -0.989772
    133          1           0       21.269028    2.198001   -1.649594
    134          1           0       19.778495    1.612825   -2.015064
    135          1           0       20.813908    1.924715    2.397050
    136          1           0       22.270905    2.309201    1.105861
    137          1           0       20.643077    3.191271    0.974190
 ---------------------------------------------------------------------

 SCF Done:  E(RCAM-B3LYP) =  -2932.53465716     A.U. after   15 cycles

 Excitation energies and oscillator strengths:

 Excited State   1:      Singlet-A      2.1414 eV  578.99 nm  f=0.2424  <S**2>=0.000
     240 -> 243        0.21586
     241 -> 242        0.66209
 This state for optimization and/or second-order correction.
 Total Energy, E(TD-HF/TD-KS) =  -2932.45596227
 Copying the excited state density for this state as the 1-particle RhoCI density.

 The electronic state is 1-A.
 Alpha  occ. eigenvalues --  -46.84066 -19.26087 -19.25019 -19.20638 -19.20449
 Alpha  occ. eigenvalues --  -19.20401 -14.41126 -14.39839 -14.39502 -14.38668
 Alpha  occ. eigenvalues --  -10.39190 -10.39147 -10.35300 -10.31975 -10.31116
 Alpha  occ. eigenvalues --  -10.30879 -10.30652 -10.30448 -10.30056 -10.29913
 Alpha  occ. eigenvalues --  -10.29786 -10.29328 -10.29249 -10.29230 -10.28870
 Alpha  occ. eigenvalues --  -10.28712 -10.28583 -10.28549 -10.28319 -10.28225
 Alpha  occ. eigenvalues --  -10.28169 -10.27913 -10.27895 -10.27820 -10.27770
 Alpha  occ. eigenvalues --  -10.27730 -10.27461 -10.27386 -10.27350 -10.27273
 Alpha  occ. eigenvalues --  -10.27221 -10.27071 -10.27061 -10.26952 -10.26796
 Alpha  occ. eigenvalues --  -10.26795 -10.26566 -10.26109 -10.25946 -10.25904
 Alpha  occ. eigenvalues --  -10.25717 -10.25556 -10.25524 -10.25502 -10.25345
 Alpha  occ. eigenvalues --  -10.25283 -10.25100 -10.24985 -10.24397 -10.24210
 Alpha  occ. eigenvalues --  -10.24200 -10.24015 -10.24014 -10.24007 -10.23029
 Alpha  occ. eigenvalues --   -3.13167  -1.87864  -1.87413  -1.87349  -1.17734
 Alpha  occ. eigenvalues --   -1.14152  -1.11122  -1.07829  -1.05842  -1.04575
 Alpha  occ. eigenvalues --   -1.03331  -1.02599  -1.01644  -0.92524  -0.91443
 Alpha  occ. eigenvalues --   -0.91364  -0.90579  -0.90303  -0.89481  -0.89223
 Alpha  occ. eigenvalues --   -0.88309  -0.88019  -0.87180  -0.86686  -0.85799
 Alpha  occ. eigenvalues --   -0.85043  -0.84336  -0.84042  -0.83101  -0.82733
 Alpha  occ. eigenvalues --   -0.81621  -0.81224  -0.80600  -0.80218  -0.78454
 Alpha  occ. eigenvalues --   -0.77686  -0.77353  -0.76703  -0.76365  -0.76034
 Alpha  occ. eigenvalues --   -0.75853  -0.74373  -0.74210  -0.73176  -0.72134
 Alpha  occ. eigenvalues --   -0.71231  -0.70517  -0.69474  -0.68618  -0.68069
 Alpha  occ. eigenvalues --   -0.67527  -0.66104  -0.64676  -0.64539  -0.64339
 Alpha  occ. eigenvalues --   -0.64123  -0.63750  -0.63610  -0.62698  -0.62197
 Alpha  occ. eigenvalues --   -0.61779  -0.60607  -0.60351  -0.60084  -0.59069
 Alpha  occ. eigenvalues --   -0.58333  -0.58110  -0.57713  -0.57462  -0.57070
 Alpha  occ. eigenvalues --   -0.55914  -0.55659  -0.55602  -0.55331  -0.55153
 Alpha  occ. eigenvalues --   -0.54604  -0.54004  -0.53890  -0.53505  -0.53151
 Alpha  occ. eigenvalues --   -0.52903  -0.52627  -0.52342  -0.51982  -0.51757
 Alpha  occ. eigenvalues --   -0.51434  -0.51146  -0.50739  -0.50591  -0.50321
 Alpha  occ. eigenvalues --   -0.49965  -0.49896  -0.49860  -0.49710  -0.49394
 Alpha  occ. eigenvalues --   -0.49213  -0.49030  -0.48890  -0.48465  -0.48222
 Alpha  occ. eigenvalues --   -0.47981  -0.47787  -0.47496  -0.47377  -0.47284
 Alpha  occ. eigenvalues --   -0.46834  -0.46489  -0.46311  -0.45876  -0.45737
 Alpha  occ. eigenvalues --   -0.45573  -0.45389  -0.45144  -0.45064  -0.44913
 Alpha  occ. eigenvalues --   -0.44667  -0.44383  -0.44197  -0.44140  -0.43980
 Alpha  occ. eigenvalues --   -0.43829  -0.43567  -0.43314  -0.43101  -0.42645
 Alpha  occ. eigenvalues --   -0.42588  -0.42471  -0.42307  -0.42161  -0.41994
 Alpha  occ. eigenvalues --   -0.41851  -0.41743  -0.41459  -0.41403  -0.41121
 Alpha  occ. eigenvalues --   -0.40892  -0.40846  -0.40726  -0.40582  -0.40421
 Alpha  occ. eigenvalues --   -0.40280  -0.40142  -0.39686  -0.38920  -0.38676
 Alpha  occ. eigenvalues --   -0.38607  -0.38572  -0.37752  -0.37523  -0.37397
 Alpha  occ. eigenvalues --   -0.37388  -0.37206  -0.36357  -0.36254  -0.36249
 Alpha  occ. eigenvalues --   -0.36150  -0.35875  -0.35774  -0.35719  -0.35270
 Alpha  occ. eigenvalues --   -0.35092  -0.34885  -0.34407  -0.33988  -0.33225
 Alpha  occ. eigenvalues --   -0.33165  -0.32780  -0.32016  -0.31196  -0.30205
 Alpha  occ. eigenvalues --   -0.30072  -0.28791  -0.27992  -0.27797  -0.23432
 Alpha  occ. eigenvalues --   -0.22051
 Alpha virt. eigenvalues --   -0.07041  -0.02762   0.02404   0.03932   0.04464
 Alpha virt. eigenvalues --    0.05099   0.05745   0.05995   0.06485   0.07125
 Alpha virt. eigenvalues --    0.08518   0.09430   0.10783   0.11045   0.11229

 Mulliken charges:
               1
     1  Mg   0.828185
     2  C    0.013346
     3  C   -0.230992
     4  C   -0.221388
     5  C   -0.116606
     6  N   -0.614725
     7  C    0.212936
     8  C   -0.146245
     9  C   -0.134608
    10  C    0.361161
    11  C   -0.309599
    12  C   -0.169478
    13  C   -0.263267
    14  C    0.602676
    15  O   -0.489756
    16  O   -0.515843
    17  N   -0.710433
    18  C    0.354599
    19  C    0.009910
    20  C    0.045979
    21  C    0.288698
    22  C   -0.353866
    23  C   -0.092819
    24  C   -0.242771
    25  N   -0.698403
    26  C    0.332596
    27  C    0.024448
    28  C    0.050864
    29  C    0.270487
    30  C   -0.355764
    31  C   -0.241289
    32  C   -0.322985
    33  N   -0.712715
    34  C    0.232535
    35  C    0.053017
    36  C   -0.063175
    37  C    0.365275
    38  C   -0.374005
    39  C    0.385703
    40  O   -0.453880
    41  C   -0.283616
    42  C    0.611015
    43  O   -0.494514
    44  O   -0.460859
    45  C   -0.069226
    46  C    0.022808
    47  C   -0.125921
    48  C    0.152421
    49  C   -0.368262
    50  C   -0.227777
    51  C   -0.170950
    52  C   -0.183083
    53  C   -0.041938
    54  C   -0.308320
    55  C   -0.123395
    56  C   -0.171188
    57  C   -0.193382
    58  C   -0.045479
    59  C   -0.324080
    60  C   -0.154908
    61  C   -0.180066
    62  C   -0.153817
    63  C   -0.058267
    64  C   -0.326361
    65  C   -0.298464
    66  H    0.077039
    67  H    0.080692
    68  H    0.069076
    69  H    0.130001
    70  H    0.056264
    71  H    0.116440
    72  H    0.114283
    73  H    0.131910
    74  H    0.136280
    75  H    0.131890
    76  H    0.141598
    77  H    0.160486
    78  H    0.107788
    79  H    0.133912
    80  H    0.129939
    81  H    0.101366
    82  H    0.104642
    83  H    0.096065
    84  H    0.103876
    85  H    0.099929
    86  H    0.119391
    87  H    0.089985
    88  H    0.118544
    89  H    0.108942
    90  H    0.091390
    91  H    0.119663
    92  H    0.103001
    93  H    0.152899
    94  H    0.105286
    95  H    0.156117
    96  H    0.130162
    97  H    0.146325
    98  H    0.128607
    99  H    0.124918
   100  H    0.100107
   101  H    0.091131
   102  H    0.106672
   103  H    0.126837
   104  H    0.137534
   105  H    0.074899
   106  H    0.066314
   107  H    0.089211
   108  H    0.097418
   109  H    0.089343
   110  H    0.067991
   111  H    0.088461
   112  H    0.084399
   113  H    0.102368
   114  H    0.109757
   115  H    0.089702
   116  H    0.058743
   117  H    0.111604
   118  H    0.057293
   119  H    0.066645
   120  H    0.083026
   121  H    0.088272
   122  H    0.100783
   123  H    0.082667
   124  H    0.096814
   125  H    0.086258
   126  H    0.099841
   127  H    0.080730
   128  H    0.087044
   129  H    0.102216
   130  H    0.064993
   131  H    0.100859
   132  H    0.106831
   133  H    0.104538
   134  H    0.117111
   135  H    0.100013
   136  H    0.079575
   137  H    0.063121
 Sum of Mulliken charges =   0.00000

 Dipole moment (field-independent basis, Debye):
    X=             -0.1286    Y=              4.8644    Z=              0.0361  Tot=              4.8662
 Quadrupole moment (field-independent basis, Debye-Ang):
   XX=           -335.8631   YY=           -388.2401   ZZ=           -396.8282
   XY=            -26.4105   XZ=              5.6017   YZ=             -1.5485

 Normal termination of Gaussian 09 at Tue Jul  2 19:11:41 2019.
