 Gaussian 16, Revision A.03,
 Gaussian 16:  ES64L-G16RevA.03 25-Dec-2016

 -------------------------------------
 # td=(NStates=1) CAM-B3LYP/6-31G(d,p)
 -------------------------------------

 --
 TD
 --
 Symbolic Z-matrix:
 Charge =  0 Multiplicity = 1

                         Standard orientation:
 ---------------------------------------------------------------------
 Center     Atomic      Atomic             Coordinates (Angstroms)
 Number     Number       Type             X           Y           Z
 ---------------------------------------------------------------------
      1         12           0       -7.152016    0.564902    0.077821
      2          6           0       -4.738052   -1.931825    0.514827
      3          6           0       -4.841632    2.875936    1.235497
      4          6           0       -9.516315    2.988233   -0.404392
      5          6           0       -9.525194   -1.861035   -0.749365
      6          7           0       -5.162765    0.485504    0.768313
      7          6           0       -4.342118   -0.640887    0.820364
      8          6           0       -2.859108   -0.341317    1.240593
      9          6           0       -2.975992    1.183731    1.599910
     10          6           0       -4.444361    1.561035    1.120293
     11          6           0       -2.927662    1.420158    3.158401
     12          6           0       -1.892264   -0.653333    0.140647
     13          6           0       -0.449564   -0.341423    0.479799
     14          6           0        0.504071   -0.578373   -0.684064
     15          8           0        0.195400   -1.040537   -1.742549
     16          8           0        1.787029   -0.229060   -0.325231
     17          7           0       -7.196910    2.540725    0.454415
     18          6           0       -6.170852    3.305150    0.823129
     19          6           0       -6.610361    4.759241    0.797629
     20          6           0       -7.889409    4.753721    0.283809
     21          6           0       -8.262090    3.415677    0.013091
     22          6           0       -5.749248    5.859085    1.208009
     23          6           0       -8.707610    5.919054    0.035192
     24          6           0       -8.766899    7.165171    0.704001
     25          7           0       -9.072775    0.600416   -0.529293
     26          6           0       -9.929353    1.669519   -0.795099
     27          6           0      -11.245428    1.328236   -1.119579
     28          6           0      -11.224824   -0.025101   -1.232148
     29          6           0       -9.932530   -0.462374   -0.867558
     30          6           0      -12.254938    2.277251   -1.606059
     31          6           0      -12.366824   -0.852926   -1.593017
     32          6           0      -12.483567   -1.195375   -3.004098
     33          7           0       -7.153293   -1.388678   -0.070607
     34          6           0       -8.207004   -2.264366   -0.425898
     35          6           0       -7.726204   -3.591940   -0.372871
     36          6           0       -6.349329   -3.641706    0.039505
     37          6           0       -6.100878   -2.162988    0.129706
     38          6           0       -8.496456   -4.871080   -0.775433
     39          6           0       -5.182155   -4.288672    0.223573
     40          8           0       -4.909715   -5.510278    0.116398
     41          6           0       -4.147220   -3.278207    0.612668
     42          6           0       -3.484101   -3.673502    1.969694
     43          8           0       -3.637752   -3.060631    2.943166
     44          8           0       -2.489691   -4.701735    1.810224
     45          6           0       -1.899047   -5.175688    2.983316
     46          6           0        2.792889   -0.616782   -1.317260
     47          6           0        4.070938   -0.438346   -0.744055
     48          6           0        5.186714    0.329153   -1.074833
     49          6           0        5.033484    1.375800   -2.305900
     50          6           0        6.431160    0.429286   -0.276548
     51          6           0        7.597963   -0.115882   -1.077351
     52          6           0        8.916649   -0.066366   -0.316585
     53          6           0       10.253060   -0.453053   -1.111267
     54          6           0       10.189688   -2.000348   -1.396409
     55          6           0       11.457871   -0.138776   -0.264671
     56          6           0       12.843845   -0.459692   -0.785029
     57          6           0       13.918343   -0.086449    0.133578
     58          6           0       15.342474   -0.129242   -0.442462
     59          6           0       15.712232   -1.644637   -0.829500
     60          6           0       16.414993    0.361034    0.584913
     61          6           0       17.781758    0.579298    0.004101
     62          6           0       18.772024    1.348993    0.802853
     63          6           0       20.207001    1.313618    0.379908
     64          6           0       20.327608    1.988408   -0.979576
     65          6           0       21.265443    1.878964    1.369660
     66          1           0       -4.148707    3.573464    1.648275
     67          1           0      -10.287936    3.667105   -0.480543
     68          1           0      -10.342221   -2.577499   -0.891855
     69          1           0       -2.702664   -0.890346    2.212194
     70          1           0       -2.204673    1.816848    1.147321
     71          1           0       -1.823940    0.940341    3.609829
     72          1           0       -2.834166    2.595737    3.350430
     73          1           0       -3.759202    0.932532    3.578117
     74          1           0       -2.076152   -1.871983   -0.016776
     75          1           0       -2.296465   -0.036634   -0.750816
     76          1           0       -0.588506    0.726094    0.552099
     77          1           0        0.001944   -0.969353    1.303373
     78          1           0       -5.986564    6.723852    0.819837
     79          1           0       -5.835991    6.071083    2.215035
     80          1           0       -4.635325    5.652165    1.283630
     81          1           0       -9.246752    5.821651   -0.915775
     82          1           0       -9.383282    7.896398    0.325836
     83          1           0       -8.171007    7.518220    1.652054
     84          1           0      -12.259627    2.655242   -2.680560
     85          1           0      -13.404093    1.862865   -1.349928
     86          1           0      -12.188880    3.035307   -0.885871
     87          1           0      -12.216668   -1.685549   -0.983952
     88          1           0      -13.329769   -0.597091   -1.110787
     89          1           0      -13.288223   -2.052491   -3.318166
     90          1           0      -12.856982   -0.142880   -3.589865
     91          1           0      -11.416389   -1.628969   -3.402862
     92          1           0       -9.050065   -4.656576   -1.752989
     93          1           0       -7.835239   -5.771449   -0.893229
     94          1           0       -9.392035   -4.885392   -0.131028
     95          1           0       -3.393394   -3.202084   -0.224889
     96          1           0       -1.334818   -4.429852    3.590378
     97          1           0       -2.742817   -5.805859    3.592058
     98          1           0       -1.532269   -6.079947    2.555536
     99          1           0        2.504144   -1.551123   -1.594384
    100          1           0        2.574412    0.068159   -2.092991
    101          1           0        4.308231   -1.167141    0.103289
    102          1           0        4.017607    1.420046   -2.757254
    103          1           0        5.385816    2.356217   -2.051851
    104          1           0        5.767654    1.071104   -2.999338
    105          1           0        6.597989    1.318580    0.056545
    106          1           0        6.221578   -0.180597    0.557825
    107          1           0        7.435101   -1.148063   -1.408922
    108          1           0        7.922603    0.276267   -2.036449
    109          1           0        9.002228    0.873851   -0.028458
    110          1           0        8.659584   -0.671186    0.530137
    111          1           0       10.256760    0.084325   -1.977387
    112          1           0        9.288200   -2.294538   -2.162443
    113          1           0       11.091700   -2.295447   -1.996864
    114          1           0        9.926429   -2.619586   -0.511195
    115          1           0       11.359818    1.070223   -0.028788
    116          1           0       11.178247   -0.697270    0.706521
    117          1           0       12.935995   -1.475592   -1.011099
    118          1           0       12.921560    0.147019   -1.742736
    119          1           0       13.902086    1.052460    0.397240
    120          1           0       14.106748   -0.641724    0.959476
    121          1           0       15.426153    0.590460   -1.332806
    122          1           0       15.690371   -2.275419    0.155921
    123          1           0       14.981556   -2.100483   -1.290726
    124          1           0       16.659225   -1.832886   -1.205183
    125          1           0       16.002104    1.306919    1.045049
    126          1           0       16.412054   -0.572212    1.352915
    127          1           0       18.309962   -0.227921   -0.414435
    128          1           0       17.497297    1.324568   -0.814899
    129          1           0       18.335620    2.413612    1.124383
    130          1           0       18.526284    0.877061    1.861943
    131          1           0       20.437446    0.218089    0.360145
    132          1           0       19.915528    3.018585   -0.828985
    133          1           0       21.389058    1.981734   -1.111779
    134          1           0       19.656700    1.536274   -1.729401
    135          1           0       21.321364    1.266445    2.328745
    136          1           0       22.207084    1.863122    1.034057
    137          1           0       20.863085    2.680073    1.642510
 ---------------------------------------------------------------------

 SCF Done:  E(RCAM-B3LYP) =  -2932.66154226     A.U. after   15 cycles

 Excitation energies and oscillator strengths:

 Excited State   1:      Singlet-A      2.1049 eV  589.03 nm  f=0.2370  <S**2>=0.000
     240 -> 243        0.24832
     241 -> 242        0.65151
 This state for optimization and/or second-order correction.
 Total Energy, E(TD-HF/TD-DFT) =  -2932.58418878
 Copying the excited state density for this state as the 1-particle RhoCI density.

 The electronic state is 1-A.
 Alpha  occ. eigenvalues --  -46.83470 -19.24797 -19.24528 -19.22504 -19.20879
 Alpha  occ. eigenvalues --  -19.18008 -14.41778 -14.40150 -14.40148 -14.39847
 Alpha  occ. eigenvalues --  -10.39521 -10.38562 -10.33017 -10.31269 -10.31210
 Alpha  occ. eigenvalues --  -10.31171 -10.30864 -10.29885 -10.29822 -10.29802
 Alpha  occ. eigenvalues --  -10.29764 -10.29745 -10.29745 -10.29208 -10.28876
 Alpha  occ. eigenvalues --  -10.28816 -10.28805 -10.28529 -10.28226 -10.28168
 Alpha  occ. eigenvalues --  -10.28104 -10.27921 -10.27793 -10.27686 -10.27447
 Alpha  occ. eigenvalues --  -10.27384 -10.27342 -10.27154 -10.27019 -10.26878
 Alpha  occ. eigenvalues --  -10.26575 -10.26526 -10.26361 -10.26330 -10.26270
 Alpha  occ. eigenvalues --  -10.26106 -10.25988 -10.25805 -10.25662 -10.25641
 Alpha  occ. eigenvalues --  -10.25617 -10.25473 -10.25469 -10.25405 -10.25190
 Alpha  occ. eigenvalues --  -10.25037 -10.25014 -10.24950 -10.24744 -10.24616
 Alpha  occ. eigenvalues --  -10.24453 -10.24325 -10.23655 -10.23573 -10.22383
 Alpha  occ. eigenvalues --   -3.12833  -1.87512  -1.87070  -1.87050  -1.18240
 Alpha  occ. eigenvalues --   -1.17148  -1.10357  -1.09147  -1.07624  -1.04432
 Alpha  occ. eigenvalues --   -1.03424  -1.03080  -1.02184  -0.93396  -0.91753
 Alpha  occ. eigenvalues --   -0.91101  -0.90394  -0.90297  -0.90032  -0.89701
 Alpha  occ. eigenvalues --   -0.88632  -0.88548  -0.87450  -0.87106  -0.86548
 Alpha  occ. eigenvalues --   -0.85247  -0.84787  -0.83918  -0.83517  -0.82918
 Alpha  occ. eigenvalues --   -0.81868  -0.80782  -0.80046  -0.79977  -0.78890
 Alpha  occ. eigenvalues --   -0.77753  -0.77583  -0.77023  -0.76942  -0.75647
 Alpha  occ. eigenvalues --   -0.75617  -0.75019  -0.74338  -0.73049  -0.72672
 Alpha  occ. eigenvalues --   -0.70782  -0.70738  -0.69483  -0.69023  -0.68743
 Alpha  occ. eigenvalues --   -0.68160  -0.67247  -0.65553  -0.65121  -0.64670
 Alpha  occ. eigenvalues --   -0.63919  -0.63329  -0.62399  -0.62063  -0.61685
 Alpha  occ. eigenvalues --   -0.61598  -0.61116  -0.60386  -0.60019  -0.59363
 Alpha  occ. eigenvalues --   -0.58755  -0.58545  -0.58064  -0.57799  -0.57389
 Alpha  occ. eigenvalues --   -0.56019  -0.55993  -0.55732  -0.55214  -0.54946
 Alpha  occ. eigenvalues --   -0.54655  -0.54396  -0.54174  -0.53925  -0.53729
 Alpha  occ. eigenvalues --   -0.53111  -0.52942  -0.52532  -0.52227  -0.52112
 Alpha  occ. eigenvalues --   -0.51990  -0.51605  -0.51364  -0.51301  -0.50968
 Alpha  occ. eigenvalues --   -0.50832  -0.50755  -0.50660  -0.50048  -0.49819
 Alpha  occ. eigenvalues --   -0.49384  -0.49336  -0.49042  -0.48883  -0.48711
 Alpha  occ. eigenvalues --   -0.48525  -0.48375  -0.48188  -0.47559  -0.47109
 Alpha  occ. eigenvalues --   -0.47076  -0.47038  -0.46585  -0.46527  -0.46294
 Alpha  occ. eigenvalues --   -0.46174  -0.45837  -0.45683  -0.45531  -0.45409
 Alpha  occ. eigenvalues --   -0.45142  -0.45083  -0.44710  -0.44621  -0.44504
 Alpha  occ. eigenvalues --   -0.44147  -0.43920  -0.43762  -0.43568  -0.43479
 Alpha  occ. eigenvalues --   -0.43367  -0.43181  -0.42963  -0.42756  -0.42597
 Alpha  occ. eigenvalues --   -0.42290  -0.41969  -0.41612  -0.41526  -0.41384
 Alpha  occ. eigenvalues --   -0.41217  -0.40890  -0.40663  -0.40556  -0.40030
 Alpha  occ. eigenvalues --   -0.39877  -0.39820  -0.39635  -0.39339  -0.38955
 Alpha  occ. eigenvalues --   -0.38918  -0.38525  -0.38327  -0.38253  -0.37304
 Alpha  occ. eigenvalues --   -0.37165  -0.37079  -0.37024  -0.36813  -0.36272
 Alpha  occ. eigenvalues --   -0.36254  -0.36175  -0.35911  -0.35533  -0.35392
 Alpha  occ. eigenvalues --   -0.35032  -0.34854  -0.34707  -0.33745  -0.33664
 Alpha  occ. eigenvalues --   -0.33388  -0.33097  -0.31785  -0.30910  -0.29724
 Alpha  occ. eigenvalues --   -0.29348  -0.29222  -0.28820  -0.27540  -0.23437
 Alpha  occ. eigenvalues --   -0.22064
 Alpha virt. eigenvalues --   -0.06923  -0.03427   0.00904   0.03424   0.05035
 Alpha virt. eigenvalues --    0.05600   0.06043   0.06622   0.07119   0.07720
 Alpha virt. eigenvalues --    0.08038   0.10137   0.11051   0.11250   0.11855

 Mulliken charges:
               1
     1  Mg   0.821242
     2  C    0.073367
     3  C   -0.198855
     4  C   -0.165682
     5  C   -0.167780
     6  N   -0.641858
     7  C    0.282270
     8  C   -0.141702
     9  C   -0.163970
    10  C    0.361863
    11  C   -0.279847
    12  C   -0.158449
    13  C   -0.246323
    14  C    0.599063
    15  O   -0.458266
    16  O   -0.509009
    17  N   -0.695495
    18  C    0.326725
    19  C    0.011185
    20  C    0.045011
    21  C    0.267181
    22  C   -0.383045
    23  C   -0.113388
    24  C   -0.240689
    25  N   -0.666731
    26  C    0.260420
    27  C    0.033162
    28  C    0.032210
    29  C    0.264851
    30  C   -0.360905
    31  C   -0.238107
    32  C   -0.270748
    33  N   -0.738905
    34  C    0.303026
    35  C   -0.012382
    36  C    0.118140
    37  C    0.261337
    38  C   -0.370751
    39  C    0.277519
    40  O   -0.508177
    41  C   -0.325295
    42  C    0.617643
    43  O   -0.402548
    44  O   -0.475549
    45  C   -0.078669
    46  C    0.036313
    47  C   -0.137005
    48  C    0.094046
    49  C   -0.368456
    50  C   -0.205680
    51  C   -0.206928
    52  C   -0.173718
    53  C   -0.066927
    54  C   -0.311227
    55  C   -0.146669
    56  C   -0.169605
    57  C   -0.145798
    58  C   -0.081469
    59  C   -0.320011
    60  C   -0.166258
    61  C   -0.152252
    62  C   -0.169667
    63  C   -0.079090
    64  C   -0.297440
    65  C   -0.300264
    66  H    0.079793
    67  H    0.082138
    68  H    0.108987
    69  H    0.132199
    70  H    0.101801
    71  H    0.072372
    72  H    0.093848
    73  H    0.140021
    74  H    0.084958
    75  H    0.112362
    76  H    0.136963
    77  H    0.141472
    78  H    0.126860
    79  H    0.134865
    80  H    0.108082
    81  H    0.103209
    82  H    0.111703
    83  H    0.102257
    84  H    0.130950
    85  H    0.082629
    86  H    0.127949
    87  H    0.105273
    88  H    0.109453
    89  H    0.088874
    90  H    0.082000
    91  H    0.093183
    92  H    0.113800
    93  H    0.157082
    94  H    0.128058
    95  H    0.176437
    96  H    0.126048
    97  H    0.088717
    98  H    0.139851
    99  H    0.136899
   100  H    0.115893
   101  H    0.070519
   102  H    0.112438
   103  H    0.114187
   104  H    0.126966
   105  H    0.119837
   106  H    0.111649
   107  H    0.099304
   108  H    0.093666
   109  H    0.093942
   110  H    0.089394
   111  H    0.090417
   112  H    0.073135
   113  H    0.102105
   114  H    0.110692
   115  H    0.057156
   116  H    0.081175
   117  H    0.108090
   118  H    0.087460
   119  H    0.072543
   120  H    0.102507
   121  H    0.069060
   122  H    0.072459
   123  H    0.111134
   124  H    0.114151
   125  H    0.085866
   126  H    0.065034
   127  H    0.102742
   128  H    0.081636
   129  H    0.062069
   130  H    0.063157
   131  H    0.080813
   132  H    0.096891
   133  H    0.103701
   134  H    0.109881
   135  H    0.086261
   136  H    0.108958
   137  H    0.117033
 Sum of Mulliken charges =  -0.00000

 Dipole moment (field-independent basis, Debye):
    X=              0.6461    Y=              5.5492    Z=              0.1076  Tot=              5.5877
 Quadrupole moment (field-independent basis, Debye-Ang):
   XX=           -322.7222   YY=           -395.4442   ZZ=           -401.1395
   XY=            -25.4863   XZ=              6.7318   YZ=             -1.7859

 Normal termination of Gaussian 16 at Wed Jun 26 22:57:03 2019.
