 Gaussian 16, Revision A.03,
 Gaussian 16:  ES64L-G16RevA.03 25-Dec-2016

 ----------------------------------------------------------------------
 # td=(NStates=1) iop(3/107=0140000000,3/108=0140000000) CAM-B3LYP/6-31
 G(d,p)
 ----------------------------------------------------------------------

 --
 TD
 --
 Symbolic Z-matrix:
 Charge =  0 Multiplicity = 1

                         Standard orientation:
 ---------------------------------------------------------------------
 Center     Atomic      Atomic             Coordinates (Angstroms)
 Number     Number       Type             X           Y           Z
 ---------------------------------------------------------------------
      1         12           0       -7.172831    0.624713    0.117552
      2          6           0       -4.858137   -1.988510    0.536724
      3          6           0       -4.729376    2.824486    1.251320
      4          6           0       -9.424279    3.122311   -0.301022
      5          6           0       -9.584681   -1.694898   -0.831660
      6          7           0       -5.061186    0.385375    0.780721
      7          6           0       -4.385142   -0.818817    0.836952
      8          6           0       -2.937346   -0.497650    1.112169
      9          6           0       -3.072284    1.034234    1.636203
     10          6           0       -4.409878    1.458185    1.199958
     11          6           0       -3.079158    1.070430    3.262717
     12          6           0       -1.906733   -0.596217    0.079952
     13          6           0       -0.501480   -0.561081    0.691703
     14          6           0        0.593742   -0.795720   -0.444614
     15          8           0        0.290307   -1.129338   -1.524537
     16          8           0        1.788466   -0.386780   -0.107748
     17          7           0       -7.124718    2.652485    0.299393
     18          6           0       -6.068712    3.395854    0.855195
     19          6           0       -6.373474    4.780055    0.727840
     20          6           0       -7.694924    4.845728    0.330999
     21          6           0       -8.125919    3.543453    0.081309
     22          6           0       -5.351868    5.904381    1.020086
     23          6           0       -8.510768    6.080034    0.240188
     24          6           0       -8.260900    7.298706    0.702690
     25          7           0       -9.073519    0.777007   -0.527230
     26          6           0       -9.846004    1.857150   -0.596048
     27          6           0      -11.227369    1.531676   -1.120216
     28          6           0      -11.311841    0.240569   -1.258810
     29          6           0       -9.924101   -0.362011   -0.902714
     30          6           0      -12.307574    2.579761   -1.432405
     31          6           0      -12.467010   -0.580182   -1.633154
     32          6           0      -12.375626   -0.956302   -3.127986
     33          7           0       -7.261966   -1.332533   -0.287816
     34          6           0       -8.283841   -2.226449   -0.590334
     35          6           0       -7.839481   -3.570963   -0.670614
     36          6           0       -6.564376   -3.638335   -0.182878
     37          6           0       -6.238086   -2.178929    0.104127
     38          6           0       -8.733973   -4.808358   -0.907751
     39          6           0       -5.333242   -4.352155    0.069348
     40          8           0       -5.185251   -5.610030   -0.021841
     41          6           0       -4.115929   -3.319205    0.517272
     42          6           0       -3.524573   -3.774827    1.852904
     43          8           0       -3.731182   -3.228745    2.947596
     44          8           0       -2.766882   -4.882725    1.629067
     45          6           0       -2.316776   -5.402102    2.984910
     46          6           0        2.814776   -0.734095   -1.075228
     47          6           0        4.194472   -0.427349   -0.436617
     48          6           0        5.166161    0.409630   -0.863407
     49          6           0        5.116367    1.172284   -2.162556
     50          6           0        6.469570    0.558826   -0.245735
     51          6           0        7.673363   -0.133173   -0.993902
     52          6           0        8.970700    0.018241   -0.147750
     53          6           0       10.161849   -0.565579   -0.868932
     54          6           0       10.096236   -2.039561   -1.295401
     55          6           0       11.464644   -0.424475   -0.067461
     56          6           0       12.772969   -0.510468   -0.781071
     57          6           0       13.927235   -0.055551    0.059500
     58          6           0       15.366990   -0.222265   -0.597838
     59          6           0       15.697943   -1.660291   -0.906523
     60          6           0       16.484097    0.326175    0.384753
     61          6           0       17.788976    0.559781   -0.197199
     62          6           0       18.777617    1.307202    0.808173
     63          6           0       20.220949    1.388342    0.222988
     64          6           0       20.296974    2.245439   -0.977505
     65          6           0       21.130127    2.009499    1.291153
     66          1           0       -4.055237    3.584183    1.619934
     67          1           0      -10.164921    3.932747   -0.447342
     68          1           0      -10.157446   -2.406524   -1.270238
     69          1           0       -2.728630   -1.259088    2.021062
     70          1           0       -2.323896    1.768080    1.181190
     71          1           0       -2.060598    0.820218    3.610089
     72          1           0       -3.323060    2.148416    3.432554
     73          1           0       -3.720258    0.391027    3.755168
     74          1           0       -2.001757   -1.445853   -0.464478
     75          1           0       -2.061158    0.327922   -0.637429
     76          1           0        0.015312    0.271042    1.202992
     77          1           0       -0.234180   -1.361706    1.389454
     78          1           0       -5.551365    6.776488    0.408785
     79          1           0       -5.565991    5.958587    2.185750
     80          1           0       -4.457023    5.418207    0.907976
     81          1           0       -9.401689    6.031382   -0.487672
     82          1           0       -8.953598    8.109041    0.462349
     83          1           0       -7.383653    7.577577    1.376469
     84          1           0      -11.926219    3.202768   -2.126656
     85          1           0      -13.154510    1.986741   -1.899039
     86          1           0      -12.664486    2.925340   -0.572645
     87          1           0      -12.608482   -1.685779   -1.265905
     88          1           0      -13.238704   -0.057961   -1.308630
     89          1           0      -13.240877   -1.641292   -3.360699
     90          1           0      -12.366820    0.008918   -3.941143
     91          1           0      -11.418077   -1.614727   -3.323505
     92          1           0       -8.905918   -4.847473   -2.092781
     93          1           0       -7.931279   -5.734856   -0.611181
     94          1           0       -9.609197   -4.779041   -0.220693
     95          1           0       -3.483965   -3.410549   -0.305991
     96          1           0       -1.836681   -4.605077    3.668138
     97          1           0       -3.061264   -5.924757    3.481437
     98          1           0       -1.508282   -6.069827    2.640293
     99          1           0        2.857661   -1.824630   -1.148624
    100          1           0        2.640579   -0.216451   -2.006968
    101          1           0        4.324960   -1.109313    0.503602
    102          1           0        4.158333    1.119893   -2.658859
    103          1           0        5.394910    2.203481   -2.194079
    104          1           0        5.782013    0.580814   -2.995068
    105          1           0        6.647692    1.687418   -0.288012
    106          1           0        6.627634   -0.042627    0.775631
    107          1           0        7.329161   -1.020548   -1.442747
    108          1           0        7.948533    0.339344   -2.076950
    109          1           0        9.170028    0.987472    0.193648
    110          1           0        8.763395   -0.677010    0.761032
    111          1           0       10.436614    0.048862   -1.845883
    112          1           0        9.248545   -2.254333   -1.923617
    113          1           0       10.844323   -2.342366   -2.142166
    114          1           0       10.337120   -2.814470   -0.236048
    115          1           0       11.248835    0.533642    0.419935
    116          1           0       11.470424   -1.144241    0.854390
    117          1           0       12.773647   -1.405708   -1.451621
    118          1           0       12.842066    0.265934   -1.604947
    119          1           0       13.744475    0.958857    0.552831
    120          1           0       13.963568   -0.569521    1.025280
    121          1           0       15.331432    0.274626   -1.593708
    122          1           0       15.650210   -2.230790    0.109331
    123          1           0       15.159444   -2.207886   -1.640127
    124          1           0       16.647629   -1.872410   -1.179018
    125          1           0       16.361287    1.470663    0.685651
    126          1           0       16.592124   -0.130949    1.401153
    127          1           0       18.143061   -0.469309   -0.492205
    128          1           0       17.706642    1.013365   -1.154193
    129          1           0       18.405840    2.352048    0.874703
    130          1           0       18.803157    0.790095    1.754321
    131          1           0       20.812583    0.319913    0.048963
    132          1           0       19.829295    3.293956   -0.699525
    133          1           0       21.317082    2.316467   -1.338184
    134          1           0       19.389512    2.074125   -1.854438
    135          1           0       21.223813    1.287720    2.261672
    136          1           0       22.082322    2.128711    0.961728
    137          1           0       20.628611    2.917537    1.666306
 ---------------------------------------------------------------------

 SCF Done:  E(RCAM-B3LYP) =  -2933.51536976     A.U. after   16 cycles

 Excitation energies and oscillator strengths:

 Excited State   1:      Singlet-A      1.9307 eV  642.16 nm  f=0.3330  <S**2>=0.000
     240 -> 243       -0.18446
     241 -> 242        0.68098
 This state for optimization and/or second-order correction.
 Total Energy, E(TD-HF/TD-DFT) =  -2933.44441633
 Copying the excited state density for this state as the 1-particle RhoCI density.

 The electronic state is 1-A.
 Alpha  occ. eigenvalues --  -46.79699 -19.22870 -19.21935 -19.16939 -19.15441
 Alpha  occ. eigenvalues --  -19.15344 -14.36815 -14.35817 -14.35786 -14.34884
 Alpha  occ. eigenvalues --  -10.34954 -10.33010 -10.30691 -10.27748 -10.27070
 Alpha  occ. eigenvalues --  -10.25890 -10.25841 -10.25616 -10.25298 -10.24966
 Alpha  occ. eigenvalues --  -10.24705 -10.24650 -10.24394 -10.24287 -10.23758
 Alpha  occ. eigenvalues --  -10.23738 -10.23288 -10.23246 -10.23147 -10.23022
 Alpha  occ. eigenvalues --  -10.22960 -10.22805 -10.22804 -10.22793 -10.22746
 Alpha  occ. eigenvalues --  -10.22642 -10.22612 -10.22597 -10.22515 -10.22480
 Alpha  occ. eigenvalues --  -10.22414 -10.22401 -10.22293 -10.22260 -10.22197
 Alpha  occ. eigenvalues --  -10.22187 -10.22100 -10.22090 -10.22019 -10.22014
 Alpha  occ. eigenvalues --  -10.22003 -10.21961 -10.21890 -10.21852 -10.21488
 Alpha  occ. eigenvalues --  -10.21289 -10.21110 -10.21082 -10.21002 -10.20960
 Alpha  occ. eigenvalues --  -10.20831 -10.20718 -10.20277 -10.19851 -10.19188
 Alpha  occ. eigenvalues --   -3.08322  -1.83263  -1.82772  -1.82751  -1.14804
 Alpha  occ. eigenvalues --   -1.11561  -1.05429  -1.03107  -1.02428  -0.99034
 Alpha  occ. eigenvalues --   -0.98253  -0.97476  -0.96370  -0.86980  -0.86381
 Alpha  occ. eigenvalues --   -0.85381  -0.85150  -0.84725  -0.84106  -0.83499
 Alpha  occ. eigenvalues --   -0.83155  -0.82869  -0.82369  -0.81576  -0.80650
 Alpha  occ. eigenvalues --   -0.79901  -0.79348  -0.78888  -0.77967  -0.77698
 Alpha  occ. eigenvalues --   -0.76846  -0.75932  -0.75650  -0.75148  -0.73446
 Alpha  occ. eigenvalues --   -0.73059  -0.72565  -0.71649  -0.71221  -0.70299
 Alpha  occ. eigenvalues --   -0.70126  -0.70074  -0.69617  -0.68830  -0.67945
 Alpha  occ. eigenvalues --   -0.66701  -0.65999  -0.65353  -0.64763  -0.63844
 Alpha  occ. eigenvalues --   -0.62460  -0.61947  -0.60576  -0.60430  -0.60387
 Alpha  occ. eigenvalues --   -0.59884  -0.59390  -0.58799  -0.57933  -0.57735
 Alpha  occ. eigenvalues --   -0.57083  -0.56441  -0.55756  -0.55335  -0.54806
 Alpha  occ. eigenvalues --   -0.54590  -0.53662  -0.53467  -0.53175  -0.52714
 Alpha  occ. eigenvalues --   -0.51660  -0.51226  -0.50864  -0.50536  -0.50291
 Alpha  occ. eigenvalues --   -0.50230  -0.49946  -0.49907  -0.49568  -0.49445
 Alpha  occ. eigenvalues --   -0.49049  -0.49004  -0.48454  -0.48368  -0.48205
 Alpha  occ. eigenvalues --   -0.47652  -0.47487  -0.47074  -0.46964  -0.46628
 Alpha  occ. eigenvalues --   -0.46476  -0.46265  -0.46156  -0.45964  -0.45735
 Alpha  occ. eigenvalues --   -0.45550  -0.45491  -0.45327  -0.45031  -0.44821
 Alpha  occ. eigenvalues --   -0.44466  -0.44164  -0.43978  -0.43772  -0.43731
 Alpha  occ. eigenvalues --   -0.43665  -0.43505  -0.43185  -0.42747  -0.42444
 Alpha  occ. eigenvalues --   -0.42304  -0.42264  -0.41935  -0.41819  -0.41573
 Alpha  occ. eigenvalues --   -0.41271  -0.40956  -0.40870  -0.40749  -0.40473
 Alpha  occ. eigenvalues --   -0.40313  -0.40043  -0.39716  -0.39563  -0.39486
 Alpha  occ. eigenvalues --   -0.39401  -0.39303  -0.39211  -0.39019  -0.38884
 Alpha  occ. eigenvalues --   -0.38614  -0.38571  -0.38337  -0.38196  -0.37701
 Alpha  occ. eigenvalues --   -0.37686  -0.37551  -0.37325  -0.37200  -0.36716
 Alpha  occ. eigenvalues --   -0.36694  -0.36491  -0.36466  -0.36205  -0.36167
 Alpha  occ. eigenvalues --   -0.35341  -0.35118  -0.34938  -0.34918  -0.34337
 Alpha  occ. eigenvalues --   -0.34284  -0.33798  -0.33569  -0.33510  -0.33398
 Alpha  occ. eigenvalues --   -0.32968  -0.32829  -0.32702  -0.32415  -0.32098
 Alpha  occ. eigenvalues --   -0.31931  -0.31811  -0.31591  -0.30448  -0.30410
 Alpha  occ. eigenvalues --   -0.29974  -0.29133  -0.29020  -0.28530  -0.27463
 Alpha  occ. eigenvalues --   -0.26830  -0.26744  -0.26096  -0.24827  -0.21739
 Alpha  occ. eigenvalues --   -0.19844
 Alpha virt. eigenvalues --   -0.07773  -0.02606  -0.00372   0.02796   0.03522
 Alpha virt. eigenvalues --    0.03564   0.04971   0.05554   0.05950   0.06310
 Alpha virt. eigenvalues --    0.07023   0.09028   0.09411   0.09922   0.09964

 Mulliken charges:
               1
     1  Mg   0.813664
     2  C    0.083149
     3  C   -0.189925
     4  C   -0.189150
     5  C   -0.167086
     6  N   -0.658792
     7  C    0.301909
     8  C   -0.165217
     9  C   -0.187587
    10  C    0.397544
    11  C   -0.308563
    12  C   -0.133647
    13  C   -0.276260
    14  C    0.565707
    15  O   -0.449023
    16  O   -0.444534
    17  N   -0.715420
    18  C    0.270044
    19  C   -0.022411
    20  C    0.023594
    21  C    0.335495
    22  C   -0.346565
    23  C   -0.066622
    24  C   -0.255612
    25  N   -0.694178
    26  C    0.356858
    27  C   -0.010287
    28  C    0.067867
    29  C    0.249111
    30  C   -0.355122
    31  C   -0.228646
    32  C   -0.297916
    33  N   -0.686383
    34  C    0.264471
    35  C   -0.022711
    36  C    0.102612
    37  C    0.230216
    38  C   -0.366560
    39  C    0.307866
    40  O   -0.488337
    41  C   -0.296590
    42  C    0.642840
    43  O   -0.489424
    44  O   -0.445244
    45  C   -0.105695
    46  C    0.007394
    47  C   -0.157600
    48  C    0.150344
    49  C   -0.367521
    50  C   -0.211720
    51  C   -0.180599
    52  C   -0.157344
    53  C   -0.056521
    54  C   -0.282168
    55  C   -0.157690
    56  C   -0.169692
    57  C   -0.168397
    58  C   -0.063451
    59  C   -0.307116
    60  C   -0.163839
    61  C   -0.173339
    62  C   -0.174274
    63  C   -0.039124
    64  C   -0.277814
    65  C   -0.290623
    66  H    0.083727
    67  H    0.076105
    68  H    0.077858
    69  H    0.104306
    70  H    0.093214
    71  H    0.105774
    72  H    0.098663
    73  H    0.138215
    74  H    0.125089
    75  H    0.098697
    76  H    0.132078
    77  H    0.126887
    78  H    0.134219
    79  H    0.120166
    80  H    0.123623
    81  H    0.081128
    82  H    0.100763
    83  H    0.097530
    84  H    0.136987
    85  H    0.102062
    86  H    0.139785
    87  H    0.102659
    88  H    0.108201
    89  H    0.101567
    90  H    0.078499
    91  H    0.107955
    92  H    0.112151
    93  H    0.127787
    94  H    0.131314
    95  H    0.170013
    96  H    0.135501
    97  H    0.154228
    98  H    0.125121
    99  H    0.127593
   100  H    0.127592
   101  H    0.081337
   102  H    0.111526
   103  H    0.124222
   104  H    0.101379
   105  H    0.096875
   106  H    0.087509
   107  H    0.115965
   108  H    0.056945
   109  H    0.111361
   110  H    0.085416
   111  H    0.070740
   112  H    0.100639
   113  H    0.090724
   114  H    0.063745
   115  H    0.075012
   116  H    0.071390
   117  H    0.099575
   118  H    0.081267
   119  H    0.087680
   120  H    0.083678
   121  H    0.080678
   122  H    0.081402
   123  H    0.102708
   124  H    0.114555
   125  H    0.056774
   126  H    0.089560
   127  H    0.077345
   128  H    0.096828
   129  H    0.093315
   130  H    0.098586
   131  H    0.061440
   132  H    0.082795
   133  H    0.108572
   134  H    0.068932
   135  H    0.069106
   136  H    0.107793
   137  H    0.097226
 Sum of Mulliken charges =  -0.00000

 Dipole moment (field-independent basis, Debye):
    X=              1.4359    Y=              4.5649    Z=              0.2067  Tot=              4.7899
 Quadrupole moment (field-independent basis, Debye-Ang):
   XX=           -329.7622   YY=           -398.1457   ZZ=           -396.1409
   XY=            -22.9646   XZ=              4.6572   YZ=             -6.2779

 Normal termination of Gaussian 16 at Sat Sep 14 07:37:33 2019.
