 Gaussian 09, Revision D.01,
 Gaussian 09:  ES64L-G09RevD.01 24-Apr-2013

 -------------------------------------
 # td=(NStates=1) CAM-B3LYP/6-31G(d,p)
 -------------------------------------

 --
 TD
 --
 Symbolic Z-matrix:
 Charge =  0 Multiplicity = 1

                         Standard orientation:
 ---------------------------------------------------------------------
 Center     Atomic      Atomic             Coordinates (Angstroms)
 Number     Number       Type             X           Y           Z
 ---------------------------------------------------------------------
      1         12           0       -7.173224    0.590169   -0.032074
      2          6           0       -4.823040   -1.963660    0.376533
      3          6           0       -4.749125    2.908449    1.164381
      4          6           0       -9.346440    3.064726   -0.307505
      5          6           0       -9.517925   -1.770513   -0.786246
      6          7           0       -5.098803    0.465360    0.613424
      7          6           0       -4.334708   -0.701336    0.768872
      8          6           0       -2.987335   -0.365471    1.278514
      9          6           0       -3.028193    1.158871    1.612682
     10          6           0       -4.429142    1.521227    1.124594
     11          6           0       -2.846854    1.397854    3.164491
     12          6           0       -1.898792   -0.601591    0.140272
     13          6           0       -0.513246   -0.358749    0.601301
     14          6           0        0.420645   -0.656296   -0.553467
     15          8           0        0.160326   -1.036755   -1.653666
     16          8           0        1.704675   -0.386904   -0.161541
     17          7           0       -7.056321    2.619442    0.298985
     18          6           0       -6.033414    3.322836    0.757456
     19          6           0       -6.294804    4.771123    0.829164
     20          6           0       -7.546351    4.814380    0.358865
     21          6           0       -8.127272    3.604828    0.118104
     22          6           0       -5.359629    5.990088    1.155932
     23          6           0       -8.451392    6.040081    0.035330
     24          6           0       -8.320843    7.269954    0.643130
     25          7           0       -9.146300    0.656077   -0.481322
     26          6           0       -9.800397    1.863947   -0.622041
     27          6           0      -11.179688    1.522567   -0.977604
     28          6           0      -11.202679    0.115529   -1.196876
     29          6           0       -9.971397   -0.384101   -0.849555
     30          6           0      -12.261801    2.500395   -1.338088
     31          6           0      -12.333346   -0.772753   -1.771204
     32          6           0      -12.298070   -0.981658   -3.218303
     33          7           0       -7.187753   -1.453350   -0.250224
     34          6           0       -8.326394   -2.300230   -0.455406
     35          6           0       -7.887111   -3.668370   -0.503979
     36          6           0       -6.530579   -3.610411   -0.125965
     37          6           0       -6.195465   -2.216213   -0.065038
     38          6           0       -8.604597   -4.940882   -0.795724
     39          6           0       -5.376918   -4.401927    0.220004
     40          8           0       -5.216052   -5.619763    0.304583
     41          6           0       -4.159145   -3.368199    0.519177
     42          6           0       -3.603400   -3.696590    1.837785
     43          8           0       -3.933374   -3.309992    2.900653
     44          8           0       -2.673618   -4.674131    1.614720
     45          6           0       -2.077111   -5.185386    2.834559
     46          6           0        2.764551   -0.669663   -1.124552
     47          6           0        4.035419   -0.231278   -0.426568
     48          6           0        5.187477    0.435044   -1.019346
     49          6           0        5.052404    1.064061   -2.300108
     50          6           0        6.469962    0.629120   -0.197580
     51          6           0        7.643350   -0.239957   -0.881692
     52          6           0        8.872297   -0.271145   -0.031871
     53          6           0       10.156927   -0.658432   -0.752479
     54          6           0       10.081952   -2.164600   -1.222402
     55          6           0       11.462564   -0.405051    0.163068
     56          6           0       12.799258   -0.534831   -0.684479
     57          6           0       13.953304   -0.156597    0.237291
     58          6           0       15.335988   -0.249660   -0.398172
     59          6           0       15.717651   -1.737494   -0.853495
     60          6           0       16.429270    0.408949    0.456167
     61          6           0       17.819119    0.656829   -0.276063
     62          6           0       18.701326    1.358012    0.621379
     63          6           0       20.199017    1.344564    0.095105
     64          6           0       20.194661    2.266727   -1.160011
     65          6           0       21.101400    1.910125    1.175248
     66          1           0       -3.909971    3.403073    1.482089
     67          1           0      -10.103930    3.632748   -0.691704
     68          1           0      -10.300303   -2.461635   -1.217699
     69          1           0       -2.777598   -1.147784    2.037694
     70          1           0       -2.121011    1.829575    1.131933
     71          1           0       -2.032273    0.880400    3.693479
     72          1           0       -2.655402    2.599962    3.449940
     73          1           0       -3.849803    1.171880    3.818938
     74          1           0       -1.792602   -1.710122   -0.185764
     75          1           0       -2.495334   -0.094792   -0.715642
     76          1           0       -0.299507    0.626262    0.962588
     77          1           0       -0.369039   -1.042638    1.291010
     78          1           0       -5.783387    6.853103    0.914051
     79          1           0       -5.497246    5.991390    2.266375
     80          1           0       -4.317930    5.469411    0.674009
     81          1           0       -9.106395    5.918728   -0.717221
     82          1           0       -8.954045    8.057877    0.296196
     83          1           0       -7.639195    7.535437    1.403974
     84          1           0      -11.725859    3.207321   -2.024690
     85          1           0      -13.120859    1.873550   -1.742576
     86          1           0      -12.650386    3.087767   -0.508624
     87          1           0      -12.384615   -1.742868   -1.410696
     88          1           0      -13.315439   -0.315399   -1.567228
     89          1           0      -13.071322   -1.644678   -3.522589
     90          1           0      -12.352218   -0.070783   -3.809585
     91          1           0      -11.260414   -1.276260   -3.317933
     92          1           0       -9.065010   -5.028757   -1.825934
     93          1           0       -7.889747   -5.693276   -0.631089
     94          1           0       -9.395538   -5.020228   -0.021682
     95          1           0       -3.417155   -3.492945   -0.303688
     96          1           0       -1.338687   -4.566480    3.370121
     97          1           0       -2.841722   -5.143811    3.671257
     98          1           0       -1.579410   -6.073904    2.389022
     99          1           0        2.788850   -1.715208   -1.366545
    100          1           0        2.624499   -0.174803   -2.150633
    101          1           0        4.042742   -0.529179    0.598239
    102          1           0        4.106431    0.830729   -3.002932
    103          1           0        5.170743    2.289078   -1.940814
    104          1           0        6.065381    0.681376   -2.964300
    105          1           0        6.763107    1.835821   -0.217732
    106          1           0        6.341367    0.329696    0.786449
    107          1           0        7.306673   -1.229024   -1.186119
    108          1           0        8.013886    0.220704   -1.713606
    109          1           0        9.053878    0.613741    0.337726
    110          1           0        8.809537   -0.756339    0.937441
    111          1           0       10.087018   -0.059944   -1.692395
    112          1           0        9.022981   -2.375171   -1.622670
    113          1           0       10.852275   -2.593775   -1.939259
    114          1           0       10.185089   -2.629030   -0.225872
    115          1           0       11.445682    0.619146    0.762701
    116          1           0       11.363126   -1.042322    1.046977
    117          1           0       12.941405   -1.605056   -1.050641
    118          1           0       12.630150   -0.198887   -1.656753
    119          1           0       13.760606    0.708176    0.760235
    120          1           0       14.080015   -1.143626    1.076810
    121          1           0       15.385808    0.299213   -1.330628
    122          1           0       15.805892   -2.586614   -0.043895
    123          1           0       14.944660   -2.162049   -1.569878
    124          1           0       16.641052   -1.639527   -1.485803
    125          1           0       15.780827    1.372021    0.921992
    126          1           0       16.762880   -0.170722    1.360418
    127          1           0       18.309670   -0.212378   -0.632372
    128          1           0       17.505505    1.333744   -1.104814
    129          1           0       18.100313    2.368346    0.833626
    130          1           0       18.580717    0.640564    1.527916
    131          1           0       20.537902    0.260126   -0.197570
    132          1           0       19.898083    3.309518   -0.874293
    133          1           0       21.285249    2.477634   -1.417133
    134          1           0       19.539646    1.862413   -1.868724
    135          1           0       21.236648    1.402638    2.090519
    136          1           0       22.244964    1.957163    0.895189
    137          1           0       20.673747    2.861846    1.400140
 ---------------------------------------------------------------------

 SCF Done:  E(RCAM-B3LYP) =  -2932.65603474     A.U. after   15 cycles

 Excitation energies and oscillator strengths:

 Excited State   1:      Singlet-A      2.0972 eV  591.20 nm  f=0.2405  <S**2>=0.000
     240 -> 242       -0.10403
     240 -> 243        0.21993
     241 -> 242        0.64595
     241 -> 243        0.10780
 This state for optimization and/or second-order correction.
 Total Energy, E(TD-HF/TD-KS) =  -2932.57896524
 Copying the excited state density for this state as the 1-particle RhoCI density.

 The electronic state is 1-A.
 Alpha  occ. eigenvalues --  -46.84421 -19.25612 -19.25587 -19.21436 -19.21328
 Alpha  occ. eigenvalues --  -19.20738 -14.41647 -14.39871 -14.39033 -14.38403
 Alpha  occ. eigenvalues --  -10.39009 -10.38559 -10.35707 -10.31967 -10.31207
 Alpha  occ. eigenvalues --  -10.31013 -10.30930 -10.29879 -10.29854 -10.29809
 Alpha  occ. eigenvalues --  -10.29760 -10.29703 -10.29537 -10.29124 -10.28949
 Alpha  occ. eigenvalues --  -10.28546 -10.28535 -10.28533 -10.28310 -10.27958
 Alpha  occ. eigenvalues --  -10.27906 -10.27752 -10.27626 -10.27609 -10.27312
 Alpha  occ. eigenvalues --  -10.27276 -10.27034 -10.26799 -10.26672 -10.26668
 Alpha  occ. eigenvalues --  -10.26663 -10.26615 -10.26527 -10.26494 -10.26478
 Alpha  occ. eigenvalues --  -10.26452 -10.26348 -10.26171 -10.26127 -10.26051
 Alpha  occ. eigenvalues --  -10.26012 -10.25889 -10.25869 -10.25810 -10.25714
 Alpha  occ. eigenvalues --  -10.25517 -10.25492 -10.25362 -10.25276 -10.24781
 Alpha  occ. eigenvalues --  -10.24642 -10.24549 -10.24165 -10.23864 -10.23233
 Alpha  occ. eigenvalues --   -3.13371  -1.88091  -1.87599  -1.87544  -1.18444
 Alpha  occ. eigenvalues --   -1.17871  -1.10468  -1.10082  -1.09460  -1.05628
 Alpha  occ. eigenvalues --   -1.03690  -1.02909  -1.02016  -0.91733  -0.90996
 Alpha  occ. eigenvalues --   -0.90710  -0.90417  -0.89817  -0.88966  -0.88874
 Alpha  occ. eigenvalues --   -0.88507  -0.88119  -0.88047  -0.87164  -0.85889
 Alpha  occ. eigenvalues --   -0.84807  -0.84536  -0.84181  -0.83030  -0.82902
 Alpha  occ. eigenvalues --   -0.81602  -0.81279  -0.81018  -0.79609  -0.78993
 Alpha  occ. eigenvalues --   -0.77770  -0.77536  -0.75711  -0.75443  -0.75404
 Alpha  occ. eigenvalues --   -0.75023  -0.74186  -0.73530  -0.73357  -0.71767
 Alpha  occ. eigenvalues --   -0.71065  -0.70108  -0.69049  -0.68826  -0.68262
 Alpha  occ. eigenvalues --   -0.67412  -0.67093  -0.65381  -0.64992  -0.64652
 Alpha  occ. eigenvalues --   -0.64402  -0.63710  -0.63217  -0.62790  -0.62141
 Alpha  occ. eigenvalues --   -0.61680  -0.61290  -0.60207  -0.59915  -0.59217
 Alpha  occ. eigenvalues --   -0.58573  -0.58474  -0.58057  -0.57542  -0.57291
 Alpha  occ. eigenvalues --   -0.56144  -0.55805  -0.55517  -0.54870  -0.54686
 Alpha  occ. eigenvalues --   -0.54513  -0.54105  -0.53779  -0.53295  -0.53103
 Alpha  occ. eigenvalues --   -0.52930  -0.52834  -0.52383  -0.51856  -0.51744
 Alpha  occ. eigenvalues --   -0.51637  -0.51291  -0.50970  -0.50863  -0.50663
 Alpha  occ. eigenvalues --   -0.50445  -0.50175  -0.49941  -0.49756  -0.49349
 Alpha  occ. eigenvalues --   -0.49101  -0.48804  -0.48755  -0.48649  -0.48539
 Alpha  occ. eigenvalues --   -0.48328  -0.47871  -0.47766  -0.47352  -0.47200
 Alpha  occ. eigenvalues --   -0.47031  -0.46891  -0.46671  -0.46349  -0.46248
 Alpha  occ. eigenvalues --   -0.45978  -0.45678  -0.45293  -0.45123  -0.45001
 Alpha  occ. eigenvalues --   -0.44653  -0.44478  -0.44305  -0.44156  -0.44048
 Alpha  occ. eigenvalues --   -0.43914  -0.43766  -0.43462  -0.43262  -0.43150
 Alpha  occ. eigenvalues --   -0.42982  -0.42966  -0.42570  -0.42447  -0.42381
 Alpha  occ. eigenvalues --   -0.42122  -0.41813  -0.41603  -0.41335  -0.41276
 Alpha  occ. eigenvalues --   -0.41031  -0.40951  -0.40648  -0.40540  -0.40364
 Alpha  occ. eigenvalues --   -0.40039  -0.39770  -0.39589  -0.39443  -0.38811
 Alpha  occ. eigenvalues --   -0.38739  -0.38638  -0.38620  -0.38356  -0.38324
 Alpha  occ. eigenvalues --   -0.37753  -0.37439  -0.37176  -0.36776  -0.36768
 Alpha  occ. eigenvalues --   -0.36452  -0.36015  -0.35953  -0.35598  -0.35506
 Alpha  occ. eigenvalues --   -0.35242  -0.35197  -0.34994  -0.34162  -0.34029
 Alpha  occ. eigenvalues --   -0.33217  -0.33175  -0.32528  -0.30874  -0.30269
 Alpha  occ. eigenvalues --   -0.30098  -0.28023  -0.27328  -0.27200  -0.23718
 Alpha  occ. eigenvalues --   -0.21344
 Alpha virt. eigenvalues --   -0.06633  -0.03136   0.01281   0.04306   0.04600
 Alpha virt. eigenvalues --    0.05670   0.05867   0.06745   0.06925   0.07330
 Alpha virt. eigenvalues --    0.08149   0.10746   0.10817   0.11173   0.11222

 Mulliken charges:
               1
     1  Mg   0.815356
     2  C    0.026166
     3  C   -0.164644
     4  C   -0.137648
     5  C   -0.172886
     6  N   -0.650007
     7  C    0.304215
     8  C   -0.174469
     9  C   -0.151323
    10  C    0.346274
    11  C   -0.298045
    12  C   -0.176477
    13  C   -0.244089
    14  C    0.603409
    15  O   -0.455335
    16  O   -0.498535
    17  N   -0.704810
    18  C    0.336805
    19  C   -0.040643
    20  C    0.008675
    21  C    0.293797
    22  C   -0.316522
    23  C   -0.063688
    24  C   -0.244217
    25  N   -0.727955
    26  C    0.276629
    27  C   -0.011338
    28  C    0.005465
    29  C    0.299603
    30  C   -0.373064
    31  C   -0.241415
    32  C   -0.294995
    33  N   -0.713943
    34  C    0.254645
    35  C    0.049515
    36  C    0.004394
    37  C    0.336627
    38  C   -0.377762
    39  C    0.355298
    40  O   -0.469936
    41  C   -0.309608
    42  C    0.639864
    43  O   -0.463919
    44  O   -0.463865
    45  C   -0.100734
    46  C    0.024348
    47  C   -0.149119
    48  C    0.119672
    49  C   -0.325074
    50  C   -0.214773
    51  C   -0.182037
    52  C   -0.174640
    53  C   -0.087238
    54  C   -0.302470
    55  C   -0.182845
    56  C   -0.173939
    57  C   -0.151365
    58  C   -0.050645
    59  C   -0.318498
    60  C   -0.172525
    61  C   -0.182465
    62  C   -0.146750
    63  C   -0.070720
    64  C   -0.302583
    65  C   -0.298119
    66  H    0.076373
    67  H    0.059971
    68  H    0.097488
    69  H    0.120967
    70  H    0.103804
    71  H    0.120285
    72  H    0.073067
    73  H    0.107694
    74  H    0.104441
    75  H    0.114795
    76  H    0.137929
    77  H    0.151737
    78  H    0.126657
    79  H    0.129924
    80  H    0.113064
    81  H    0.095497
    82  H    0.099911
    83  H    0.099954
    84  H    0.121813
    85  H    0.112174
    86  H    0.126592
    87  H    0.110000
    88  H    0.091865
    89  H    0.106633
    90  H    0.104661
    91  H    0.100948
    92  H    0.127170
    93  H    0.160296
    94  H    0.131904
    95  H    0.165635
    96  H    0.110670
    97  H    0.142776
    98  H    0.132549
    99  H    0.132271
   100  H    0.107989
   101  H    0.092430
   102  H    0.112388
   103  H    0.095231
   104  H    0.084094
   105  H    0.073928
   106  H    0.118881
   107  H    0.108676
   108  H    0.109486
   109  H    0.104444
   110  H    0.078399
   111  H    0.075308
   112  H    0.089948
   113  H    0.097641
   114  H    0.102739
   115  H    0.068982
   116  H    0.099912
   117  H    0.090846
   118  H    0.107612
   119  H    0.099242
   120  H    0.055052
   121  H    0.089259
   122  H    0.092670
   123  H    0.093428
   124  H    0.100161
   125  H    0.056982
   126  H    0.086141
   127  H    0.105962
   128  H    0.089111
   129  H    0.083256
   130  H    0.071495
   131  H    0.077436
   132  H    0.097517
   133  H    0.093704
   134  H    0.116063
   135  H    0.108049
   136  H    0.073991
   137  H    0.106951
 Sum of Mulliken charges =   0.00000

 Dipole moment (field-independent basis, Debye):
    X=              1.5955    Y=              3.6330    Z=             -0.3426  Tot=              3.9827
 Quadrupole moment (field-independent basis, Debye-Ang):
   XX=           -348.2344   YY=           -397.7794   ZZ=           -398.0101
   XY=            -15.4907   XZ=             14.6291   YZ=              2.8474

 Normal termination of Gaussian 09 at Wed Jul  3 15:41:59 2019.
