 Gaussian 16, Revision A.03,
 Gaussian 16:  ES64L-G16RevA.03 25-Dec-2016

 ----------------------------------------------------------------------
 # td=(NStates=1) iop(3/107=0140000000,3/108=0140000000) CAM-B3LYP/6-31
 G(d,p)
 ----------------------------------------------------------------------

 --
 TD
 --
 Symbolic Z-matrix:
 Charge =  0 Multiplicity = 1

                         Standard orientation:
 ---------------------------------------------------------------------
 Center     Atomic      Atomic             Coordinates (Angstroms)
 Number     Number       Type             X           Y           Z
 ---------------------------------------------------------------------
      1         12           0       -7.211384    0.665497    0.090751
      2          6           0       -4.957065   -1.887317    0.475166
      3          6           0       -4.832150    2.864904    1.149465
      4          6           0       -9.403212    3.105521   -0.349797
      5          6           0       -9.531040   -1.787339   -0.864121
      6          7           0       -5.093635    0.455627    0.761165
      7          6           0       -4.353913   -0.645747    0.718824
      8          6           0       -2.920925   -0.356677    1.111048
      9          6           0       -3.016034    1.109332    1.620571
     10          6           0       -4.380917    1.520088    1.089990
     11          6           0       -2.749600    1.134762    3.116401
     12          6           0       -1.944827   -0.626227   -0.042276
     13          6           0       -0.453619   -0.386472    0.401227
     14          6           0        0.483036   -0.640202   -0.791360
     15          8           0        0.323400   -1.003026   -1.919741
     16          8           0        1.732274   -0.563540   -0.301215
     17          7           0       -7.078725    2.662902    0.388686
     18          6           0       -6.122120    3.356033    0.886329
     19          6           0       -6.424781    4.703672    0.974364
     20          6           0       -7.711389    4.851587    0.451063
     21          6           0       -8.129051    3.521065    0.112611
     22          6           0       -5.477510    5.851755    1.163572
     23          6           0       -8.520651    6.006799    0.079723
     24          6           0       -8.546996    7.173090    0.565824
     25          7           0       -9.104269    0.685918   -0.562469
     26          6           0       -9.839479    1.874383   -0.698571
     27          6           0      -11.125661    1.511016   -1.102352
     28          6           0      -11.194985    0.114678   -1.297107
     29          6           0       -9.927859   -0.376854   -0.914499
     30          6           0      -12.270507    2.507287   -1.378239
     31          6           0      -12.272443   -0.758843   -1.688892
     32          6           0      -12.170322   -1.212314   -3.120032
     33          7           0       -7.339175   -1.439743   -0.155614
     34          6           0       -8.282963   -2.265655   -0.506852
     35          6           0       -7.734304   -3.695695   -0.581947
     36          6           0       -6.534864   -3.601003   -0.103586
     37          6           0       -6.315523   -2.217736    0.165382
     38          6           0       -8.629468   -4.897013   -0.802097
     39          6           0       -5.290486   -4.391892    0.188907
     40          8           0       -5.261689   -5.550722    0.184253
     41          6           0       -4.174558   -3.297307    0.569377
     42          6           0       -3.503047   -3.688614    1.982629
     43          8           0       -3.709093   -2.912580    2.980641
     44          8           0       -2.748885   -4.747515    1.885737
     45          6           0       -2.323885   -5.072695    3.149681
     46          6           0        2.838441   -0.700755   -1.314648
     47          6           0        4.063187   -0.403877   -0.624075
     48          6           0        5.037982    0.316382   -0.980800
     49          6           0        5.058086    1.242069   -2.223989
     50          6           0        6.457640    0.374682   -0.314144
     51          6           0        7.646611   -0.346934   -0.918628
     52          6           0        8.879571   -0.333816   -0.052408
     53          6           0       10.143985   -0.738568   -0.666303
     54          6           0       10.264655   -2.166122   -1.229125
     55          6           0       11.440943   -0.302807    0.195337
     56          6           0       12.658077   -0.474220   -0.545203
     57          6           0       13.945750   -0.031575    0.244215
     58          6           0       15.333741   -0.136358   -0.547120
     59          6           0       15.613807   -1.594149   -0.953097
     60          6           0       16.400282    0.488696    0.255992
     61          6           0       17.837394    0.572200   -0.291090
     62          6           0       18.797128    1.309095    0.658230
     63          6           0       20.271982    1.348257    0.279292
     64          6           0       20.391606    2.218780   -0.962964
     65          6           0       21.081810    1.896336    1.353853
     66          1           0       -4.025231    3.617842    1.620589
     67          1           0      -10.102508    3.997576   -0.398375
     68          1           0      -10.329775   -2.479841   -0.935843
     69          1           0       -2.600920   -1.145333    1.709036
     70          1           0       -2.251545    1.873025    1.390116
     71          1           0       -1.718305    0.798921    3.400132
     72          1           0       -3.074694    2.032413    3.626910
     73          1           0       -3.243018    0.475588    3.804616
     74          1           0       -1.810483   -1.525665   -0.527571
     75          1           0       -1.976364   -0.134239   -1.079670
     76          1           0       -0.296492    0.687517    0.753239
     77          1           0       -0.051255   -1.097921    1.059229
     78          1           0       -5.546010    6.712098    0.535679
     79          1           0       -5.500616    6.495579    2.153247
     80          1           0       -4.345331    5.766631    1.289935
     81          1           0       -9.342846    5.837553   -0.660526
     82          1           0       -9.241342    8.118128    0.382540
     83          1           0       -7.773976    7.421258    1.269704
     84          1           0      -12.016100    3.254545   -2.304088
     85          1           0      -13.236768    2.158567   -1.763378
     86          1           0      -12.266816    3.183126   -0.480917
     87          1           0      -12.357137   -1.590002   -1.089267
     88          1           0      -13.260249   -0.104439   -1.481945
     89          1           0      -13.064319   -1.902146   -3.360017
     90          1           0      -12.149149   -0.377962   -3.779170
     91          1           0      -11.354914   -1.914341   -3.425700
     92          1           0       -9.058731   -5.050483   -1.859979
     93          1           0       -8.100601   -5.783717   -0.615379
     94          1           0       -9.381096   -5.060662   -0.027120
     95          1           0       -3.363396   -3.247784   -0.139021
     96          1           0       -1.542506   -4.365240    3.484475
     97          1           0       -3.051902   -5.028088    4.069970
     98          1           0       -1.716557   -5.985661    3.026757
     99          1           0        2.661824   -1.741265   -1.951291
    100          1           0        2.686550    0.010342   -2.341273
    101          1           0        4.250726   -0.983429    0.332363
    102          1           0        4.223599    1.306635   -2.945860
    103          1           0        5.315859    2.225776   -2.002549
    104          1           0        5.766415    0.976522   -2.825376
    105          1           0        6.941288    1.465651   -0.300031
    106          1           0        6.220373   -0.078081    0.751587
    107          1           0        7.268988   -1.357624   -1.127797
    108          1           0        7.845599   -0.020892   -2.033896
    109          1           0        8.982089    0.663253    0.354253
    110          1           0        8.595962   -1.194811    0.796341
    111          1           0       10.210765   -0.049625   -1.632836
    112          1           0        9.674118   -2.293375   -2.067821
    113          1           0       11.170679   -2.204294   -1.854678
    114          1           0       10.307550   -3.085359   -0.481274
    115          1           0       11.344727    0.730435    0.581120
    116          1           0       11.275759   -1.013906    1.055198
    117          1           0       12.943859   -1.521850   -0.801530
    118          1           0       12.574289    0.052475   -1.460434
    119          1           0       13.735623    1.089363    0.654086
    120          1           0       14.297400   -0.618475    1.060302
    121          1           0       15.283988    0.387864   -1.505682
    122          1           0       15.622449   -2.341364   -0.077355
    123          1           0       14.761884   -1.971996   -1.519018
    124          1           0       16.568992   -1.556107   -1.486331
    125          1           0       16.023900    1.652818    0.357126
    126          1           0       16.372138    0.066814    1.462727
    127          1           0       18.439574   -0.357596   -0.403241
    128          1           0       17.835849    1.140067   -1.224226
    129          1           0       18.425422    2.331830    0.804278
    130          1           0       18.581050    0.782072    1.691947
    131          1           0       20.555159    0.478736   -0.119890
    132          1           0       20.046044    3.285557   -0.760253
    133          1           0       21.378405    2.259571   -1.294189
    134          1           0       19.791844    1.824506   -1.830409
    135          1           0       21.145871    1.183521    2.267962
    136          1           0       22.096284    2.136698    1.048840
    137          1           0       20.609832    2.756753    1.869613
 ---------------------------------------------------------------------

 SCF Done:  E(RCAM-B3LYP) =  -2933.53508301     A.U. after   16 cycles

 Excitation energies and oscillator strengths:

 Excited State   1:      Singlet-A      2.1697 eV  571.44 nm  f=0.1659  <S**2>=0.000
     240 -> 242       -0.13222
     240 -> 243       -0.28966
     241 -> 242        0.61937
 This state for optimization and/or second-order correction.
 Total Energy, E(TD-HF/TD-DFT) =  -2933.45534821
 Copying the excited state density for this state as the 1-particle RhoCI density.

 The electronic state is 1-A.
 Alpha  occ. eigenvalues --  -46.80487 -19.26262 -19.21297 -19.18080 -19.17625
 Alpha  occ. eigenvalues --  -19.16776 -14.37176 -14.35163 -14.34304 -14.33992
 Alpha  occ. eigenvalues --  -10.36525 -10.33957 -10.31716 -10.29616 -10.28283
 Alpha  occ. eigenvalues --  -10.26123 -10.25632 -10.25307 -10.24686 -10.24514
 Alpha  occ. eigenvalues --  -10.24141 -10.23947 -10.23861 -10.23731 -10.23665
 Alpha  occ. eigenvalues --  -10.23490 -10.23363 -10.23299 -10.23270 -10.23198
 Alpha  occ. eigenvalues --  -10.23177 -10.23154 -10.22772 -10.22693 -10.22639
 Alpha  occ. eigenvalues --  -10.22134 -10.22129 -10.22026 -10.22023 -10.21989
 Alpha  occ. eigenvalues --  -10.21893 -10.21861 -10.21653 -10.21605 -10.21595
 Alpha  occ. eigenvalues --  -10.21550 -10.21538 -10.21430 -10.21370 -10.21346
 Alpha  occ. eigenvalues --  -10.21119 -10.21083 -10.20829 -10.20798 -10.20797
 Alpha  occ. eigenvalues --  -10.20707 -10.20606 -10.20563 -10.20544 -10.20514
 Alpha  occ. eigenvalues --  -10.20363 -10.20272 -10.20085 -10.19842 -10.19434
 Alpha  occ. eigenvalues --   -3.08937  -1.83888  -1.83421  -1.83313  -1.18135
 Alpha  occ. eigenvalues --   -1.13047  -1.10971  -1.03761  -1.03312  -1.01489
 Alpha  occ. eigenvalues --   -1.00510  -0.99768  -0.96297  -0.86661  -0.86472
 Alpha  occ. eigenvalues --   -0.85854  -0.85441  -0.85000  -0.84344  -0.83942
 Alpha  occ. eigenvalues --   -0.83788  -0.83312  -0.82276  -0.81667  -0.81299
 Alpha  occ. eigenvalues --   -0.80598  -0.79690  -0.78977  -0.78385  -0.77696
 Alpha  occ. eigenvalues --   -0.77047  -0.76817  -0.76038  -0.75594  -0.74094
 Alpha  occ. eigenvalues --   -0.72992  -0.72292  -0.72101  -0.71417  -0.71144
 Alpha  occ. eigenvalues --   -0.70553  -0.70142  -0.70012  -0.68944  -0.67859
 Alpha  occ. eigenvalues --   -0.67266  -0.66353  -0.65012  -0.64409  -0.64210
 Alpha  occ. eigenvalues --   -0.62875  -0.62212  -0.61933  -0.61496  -0.60295
 Alpha  occ. eigenvalues --   -0.60184  -0.59426  -0.58909  -0.57843  -0.57735
 Alpha  occ. eigenvalues --   -0.56895  -0.56632  -0.56356  -0.55694  -0.55308
 Alpha  occ. eigenvalues --   -0.54905  -0.54477  -0.54106  -0.53605  -0.53383
 Alpha  occ. eigenvalues --   -0.52457  -0.52092  -0.51965  -0.51829  -0.51818
 Alpha  occ. eigenvalues --   -0.51358  -0.50825  -0.50264  -0.49930  -0.49468
 Alpha  occ. eigenvalues --   -0.49396  -0.48855  -0.48270  -0.48178  -0.47954
 Alpha  occ. eigenvalues --   -0.47827  -0.47589  -0.47320  -0.47189  -0.46976
 Alpha  occ. eigenvalues --   -0.46857  -0.46459  -0.46428  -0.46103  -0.45808
 Alpha  occ. eigenvalues --   -0.45555  -0.45466  -0.45373  -0.45028  -0.44812
 Alpha  occ. eigenvalues --   -0.44682  -0.44514  -0.44357  -0.44121  -0.43955
 Alpha  occ. eigenvalues --   -0.43658  -0.43504  -0.43087  -0.42480  -0.42377
 Alpha  occ. eigenvalues --   -0.42295  -0.41776  -0.41533  -0.41476  -0.41135
 Alpha  occ. eigenvalues --   -0.41052  -0.40988  -0.40754  -0.40695  -0.40347
 Alpha  occ. eigenvalues --   -0.40296  -0.40203  -0.40081  -0.40011  -0.39722
 Alpha  occ. eigenvalues --   -0.39627  -0.39575  -0.39265  -0.39238  -0.39037
 Alpha  occ. eigenvalues --   -0.38663  -0.38585  -0.38451  -0.38289  -0.38118
 Alpha  occ. eigenvalues --   -0.38005  -0.37898  -0.37417  -0.37242  -0.37093
 Alpha  occ. eigenvalues --   -0.36842  -0.36537  -0.36484  -0.35876  -0.35580
 Alpha  occ. eigenvalues --   -0.35526  -0.35178  -0.34995  -0.34823  -0.34796
 Alpha  occ. eigenvalues --   -0.34269  -0.34137  -0.34038  -0.33928  -0.33750
 Alpha  occ. eigenvalues --   -0.33347  -0.33067  -0.32946  -0.32677  -0.32449
 Alpha  occ. eigenvalues --   -0.32340  -0.32251  -0.32020  -0.30922  -0.30764
 Alpha  occ. eigenvalues --   -0.30597  -0.30383  -0.29668  -0.28824  -0.28244
 Alpha  occ. eigenvalues --   -0.27765  -0.27536  -0.24930  -0.24315  -0.20898
 Alpha  occ. eigenvalues --   -0.19841
 Alpha virt. eigenvalues --   -0.06118  -0.03897   0.00105   0.02354   0.03528
 Alpha virt. eigenvalues --    0.04050   0.04894   0.05263   0.05339   0.05885
 Alpha virt. eigenvalues --    0.06917   0.09553   0.09691   0.10095   0.10285

 Mulliken charges:
               1
     1  Mg   0.829326
     2  C    0.001329
     3  C   -0.200479
     4  C   -0.170660
     5  C   -0.201341
     6  N   -0.631575
     7  C    0.326924
     8  C   -0.125831
     9  C   -0.137219
    10  C    0.346910
    11  C   -0.331604
    12  C   -0.212952
    13  C   -0.258042
    14  C    0.583976
    15  O   -0.469765
    16  O   -0.473120
    17  N   -0.727342
    18  C    0.354393
    19  C    0.038992
    20  C    0.017782
    21  C    0.261066
    22  C   -0.407671
    23  C   -0.047268
    24  C   -0.258355
    25  N   -0.741787
    26  C    0.345849
    27  C    0.015685
    28  C    0.043696
    29  C    0.299422
    30  C   -0.373736
    31  C   -0.247498
    32  C   -0.308622
    33  N   -0.651595
    34  C    0.289898
    35  C   -0.035421
    36  C    0.059523
    37  C    0.293725
    38  C   -0.396279
    39  C    0.387030
    40  O   -0.395442
    41  C   -0.318362
    42  C    0.597272
    43  O   -0.491323
    44  O   -0.357636
    45  C   -0.118534
    46  C    0.000839
    47  C   -0.106438
    48  C    0.144243
    49  C   -0.378818
    50  C   -0.221927
    51  C   -0.169735
    52  C   -0.130688
    53  C   -0.062385
    54  C   -0.314367
    55  C   -0.161858
    56  C   -0.164701
    57  C   -0.169897
    58  C   -0.068551
    59  C   -0.312836
    60  C   -0.132963
    61  C   -0.183939
    62  C   -0.162530
    63  C   -0.034078
    64  C   -0.315796
    65  C   -0.303647
    66  H    0.074588
    67  H    0.085107
    68  H    0.080809
    69  H    0.123418
    70  H    0.111363
    71  H    0.104888
    72  H    0.106780
    73  H    0.126467
    74  H    0.123573
    75  H    0.112361
    76  H    0.132453
    77  H    0.143713
    78  H    0.133926
    79  H    0.090873
    80  H    0.106046
    81  H    0.080828
    82  H    0.097866
    83  H    0.091357
    84  H    0.092083
    85  H    0.119980
    86  H    0.119737
    87  H    0.114644
    88  H    0.080219
    89  H    0.085245
    90  H    0.117653
    91  H    0.110310
    92  H    0.114817
    93  H    0.142800
    94  H    0.132085
    95  H    0.155322
    96  H    0.123181
    97  H    0.144357
    98  H    0.121004
    99  H    0.123027
   100  H    0.100126
   101  H    0.080119
   102  H    0.099584
   103  H    0.121725
   104  H    0.131203
   105  H    0.082673
   106  H    0.084274
   107  H    0.100070
   108  H    0.072611
   109  H    0.093354
   110  H    0.062807
   111  H    0.053262
   112  H    0.113893
   113  H    0.101600
   114  H    0.092886
   115  H    0.088138
   116  H    0.088850
   117  H    0.096902
   118  H    0.098498
   119  H    0.055860
   120  H    0.101205
   121  H    0.083484
   122  H    0.086874
   123  H    0.103242
   124  H    0.109063
   125  H    0.066876
   126  H    0.047988
   127  H    0.093137
   128  H    0.097450
   129  H    0.084611
   130  H    0.064928
   131  H    0.094169
   132  H    0.089324
   133  H    0.102892
   134  H    0.092255
   135  H    0.085108
   136  H    0.098982
   137  H    0.103832
 Sum of Mulliken charges =  -0.00000

 Dipole moment (field-independent basis, Debye):
    X=              3.4171    Y=              0.7257    Z=              0.1096  Tot=              3.4950
 Quadrupole moment (field-independent basis, Debye-Ang):
   XX=           -356.9082   YY=           -387.4326   ZZ=           -396.6330
   XY=             -4.1898   XZ=             -4.2952   YZ=             -5.8014

 Normal termination of Gaussian 16 at Sun Sep 15 03:29:00 2019.
