 Gaussian 16, Revision A.03,
 Gaussian 16:  ES64L-G16RevA.03 25-Dec-2016

 -------------------------------------
 # td=(NStates=1) CAM-B3LYP/6-31G(d,p)
 -------------------------------------

 --
 TD
 --
 Symbolic Z-matrix:
 Charge =  0 Multiplicity = 1

                         Standard orientation:
 ---------------------------------------------------------------------
 Center     Atomic      Atomic             Coordinates (Angstroms)
 Number     Number       Type             X           Y           Z
 ---------------------------------------------------------------------
      1         12           0       -7.089763    0.617609    0.008867
      2          6           0       -4.892094   -1.926796    0.521775
      3          6           0       -4.830379    2.771948    1.309333
      4          6           0       -9.346713    3.209907   -0.435641
      5          6           0       -9.530154   -1.624230   -1.056881
      6          7           0       -5.186959    0.457426    0.663918
      7          6           0       -4.276193   -0.737598    0.815785
      8          6           0       -2.956338   -0.400655    1.298560
      9          6           0       -3.143664    0.960826    1.868584
     10          6           0       -4.447302    1.467564    1.333847
     11          6           0       -2.969970    1.115526    3.320823
     12          6           0       -1.892956   -0.558830    0.089344
     13          6           0       -0.483479   -0.317252    0.568943
     14          6           0        0.575470   -0.680443   -0.561704
     15          8           0        0.310008   -1.055975   -1.730128
     16          8           0        1.790137   -0.544278   -0.204739
     17          7           0       -7.117581    2.622988    0.296742
     18          6           0       -6.038345    3.289004    0.733439
     19          6           0       -6.362905    4.681134    0.802792
     20          6           0       -7.637334    4.848137    0.406778
     21          6           0       -8.182426    3.517459   -0.047446
     22          6           0       -5.517070    5.827219    1.244437
     23          6           0       -8.467689    5.999666    0.234293
     24          6           0       -8.531110    7.271906    0.878563
     25          7           0       -9.056517    0.694038   -0.658460
     26          6           0       -9.856327    1.878838   -0.717713
     27          6           0      -11.149500    1.521483   -1.279309
     28          6           0      -11.220219    0.181709   -1.403405
     29          6           0       -9.916798   -0.313305   -1.118619
     30          6           0      -12.206545    2.565989   -1.550465
     31          6           0      -12.314115   -0.684638   -1.883954
     32          6           0      -12.093233   -1.222497   -3.411958
     33          7           0       -7.275172   -1.331566   -0.167316
     34          6           0       -8.336372   -2.192562   -0.668713
     35          6           0       -7.920879   -3.579601   -0.533934
     36          6           0       -6.632180   -3.408091   -0.041711
     37          6           0       -6.341616   -2.128045    0.143724
     38          6           0       -8.646040   -4.787516   -1.004321
     39          6           0       -5.350786   -4.286196    0.178781
     40          8           0       -5.218825   -5.529020    0.150152
     41          6           0       -4.269976   -3.304674    0.690164
     42          6           0       -3.775256   -3.738403    1.992506
     43          8           0       -4.037140   -3.094352    3.060103
     44          8           0       -2.948675   -4.710297    1.984341
     45          6           0       -2.281891   -5.120106    3.247971
     46          6           0        2.832596   -0.851338   -1.207835
     47          6           0        4.203927   -0.654464   -0.574298
     48          6           0        5.188555    0.223619   -0.977027
     49          6           0        5.156229    1.137902   -2.073115
     50          6           0        6.503919    0.169701   -0.220080
     51          6           0        7.619647   -0.249107   -0.962452
     52          6           0        9.019381   -0.085589   -0.168889
     53          6           0       10.245987   -0.612123   -0.829570
     54          6           0       10.246598   -2.187286   -1.120568
     55          6           0       11.504420   -0.265399    0.062270
     56          6           0       12.763418   -0.494301   -0.654345
     57          6           0       14.056125   -0.050828    0.198033
     58          6           0       15.368896   -0.263539   -0.610189
     59          6           0       15.684100   -1.665684   -0.987455
     60          6           0       16.397353    0.319889    0.277867
     61          6           0       17.840754    0.475225   -0.203254
     62          6           0       18.777452    1.357027    0.658422
     63          6           0       20.262552    1.495079    0.226283
     64          6           0       20.337379    2.340946   -1.068491
     65          6           0       21.206414    2.079130    1.156286
     66          1           0       -4.034986    3.627288    1.531285
     67          1           0      -10.113027    3.823130   -0.499673
     68          1           0      -10.400445   -2.217341   -1.539794
     69          1           0       -2.862606   -1.265208    2.099559
     70          1           0       -2.392356    1.427800    1.759059
     71          1           0       -1.917598    0.708973    3.532703
     72          1           0       -3.227245    2.234016    3.538480
     73          1           0       -3.562155    0.490929    3.964111
     74          1           0       -2.058392   -1.649692   -0.205308
     75          1           0       -1.853594    0.024907   -1.023060
     76          1           0       -0.364722    0.787376    1.048100
     77          1           0       -0.280790   -1.238697    1.377835
     78          1           0       -5.773738    6.870064    1.014904
     79          1           0       -5.421452    5.803209    2.430779
     80          1           0       -4.451334    5.600518    0.851030
     81          1           0       -9.183946    5.887093   -0.597511
     82          1           0       -9.436338    8.165857    0.639561
     83          1           0       -8.098646    7.438875    1.859455
     84          1           0      -11.793319    3.189023   -2.278731
     85          1           0      -13.236848    2.157203   -2.133979
     86          1           0      -12.479299    3.186797   -0.749619
     87          1           0      -12.245348   -1.590451   -1.253213
     88          1           0      -13.282625   -0.113423   -1.796292
     89          1           0      -12.741188   -1.876477   -3.559743
     90          1           0      -12.062110   -0.230190   -3.909198
     91          1           0      -10.968192   -1.514861   -3.335624
     92          1           0       -9.047507   -4.749885   -1.966228
     93          1           0       -7.884904   -5.663884   -0.907885
     94          1           0       -9.483834   -4.931382   -0.412652
     95          1           0       -3.227215   -3.475839    0.180804
     96          1           0       -1.176643   -4.447502    3.355419
     97          1           0       -3.023723   -5.252651    4.097394
     98          1           0       -2.001774   -6.103840    2.914721
     99          1           0        2.752321   -1.881962   -1.461863
    100          1           0        2.711990   -0.400764   -2.115417
    101          1           0        4.112309   -1.306512    0.301461
    102          1           0        4.248003    1.373954   -2.480737
    103          1           0        5.668623    2.079754   -1.680872
    104          1           0        5.916953    0.792344   -2.549482
    105          1           0        6.576619    1.010296    0.423931
    106          1           0        6.205513   -0.518395    0.557439
    107          1           0        7.567643   -1.275926   -1.357563
    108          1           0        7.634334    0.346577   -1.812342
    109          1           0        9.330821    0.923160    0.097058
    110          1           0        8.849849   -0.694616    0.713193
    111          1           0       10.223030   -0.097855   -1.741190
    112          1           0        9.428359   -2.457380   -1.744173
    113          1           0       11.028749   -2.425799   -1.793827
    114          1           0       10.049181   -2.766170   -0.302704
    115          1           0       11.264632    0.904077    0.225462
    116          1           0       11.444164   -0.984802    0.947820
    117          1           0       12.888177   -1.521771   -0.770231
    118          1           0       12.792727    0.075877   -1.709135
    119          1           0       13.979561    1.047284    0.418417
    120          1           0       13.978133   -0.625198    1.220221
    121          1           0       15.281606    0.199578   -1.679736
    122          1           0       15.625725   -2.349063   -0.028739
    123          1           0       14.661449   -1.882631   -1.551706
    124          1           0       16.787630   -1.691804   -1.593821
    125          1           0       16.118505    1.480365    0.451640
    126          1           0       16.443381   -0.066780    1.475556
    127          1           0       18.217132   -0.516362   -0.226021
    128          1           0       17.802497    0.886628   -1.261915
    129          1           0       18.358344    2.465558    0.868501
    130          1           0       18.861325    0.919660    1.826721
    131          1           0       20.473832    0.494734   -0.063059
    132          1           0       19.927157    3.287945   -1.126415
    133          1           0       21.407690    2.207520   -1.307630
    134          1           0       19.484132    2.050507   -1.764669
    135          1           0       21.485337    1.300628    1.910900
    136          1           0       22.354137    2.430772    0.724639
    137          1           0       20.673149    3.150270    1.487609
 ---------------------------------------------------------------------

 SCF Done:  E(RCAM-B3LYP) =  -2932.46942698     A.U. after   15 cycles

 Excitation energies and oscillator strengths:

 Excited State   1:      Singlet-A      2.2352 eV  554.69 nm  f=0.2105  <S**2>=0.000
     240 -> 242        0.18116
     240 -> 243       -0.21355
     241 -> 242        0.62559
     241 -> 243        0.11918
 This state for optimization and/or second-order correction.
 Total Energy, E(TD-HF/TD-DFT) =  -2932.38728480
 Copying the excited state density for this state as the 1-particle RhoCI density.

 The electronic state is 1-A.
 Alpha  occ. eigenvalues --  -46.82215 -19.27454 -19.27114 -19.20389 -19.19410
 Alpha  occ. eigenvalues --  -19.18502 -14.40455 -14.39420 -14.38970 -14.38606
 Alpha  occ. eigenvalues --  -10.39242 -10.38550 -10.35682 -10.34595 -10.30993
 Alpha  occ. eigenvalues --  -10.30976 -10.30921 -10.30615 -10.29937 -10.29213
 Alpha  occ. eigenvalues --  -10.29073 -10.29063 -10.28707 -10.28553 -10.28531
 Alpha  occ. eigenvalues --  -10.28398 -10.28147 -10.28146 -10.27990 -10.27974
 Alpha  occ. eigenvalues --  -10.27802 -10.27663 -10.27519 -10.27517 -10.27344
 Alpha  occ. eigenvalues --  -10.27109 -10.27041 -10.26878 -10.26863 -10.26711
 Alpha  occ. eigenvalues --  -10.26653 -10.26610 -10.26602 -10.26563 -10.26324
 Alpha  occ. eigenvalues --  -10.26277 -10.26191 -10.25941 -10.25766 -10.25711
 Alpha  occ. eigenvalues --  -10.25700 -10.25613 -10.25575 -10.25361 -10.25320
 Alpha  occ. eigenvalues --  -10.25225 -10.25213 -10.25153 -10.25013 -10.24821
 Alpha  occ. eigenvalues --  -10.24629 -10.24600 -10.24254 -10.23747 -10.23562
 Alpha  occ. eigenvalues --   -3.11573  -1.86259  -1.85817  -1.85781  -1.19926
 Alpha  occ. eigenvalues --   -1.19676  -1.08949  -1.06320  -1.05376  -1.04735
 Alpha  occ. eigenvalues --   -1.03401  -1.00885  -1.00452  -0.93437  -0.91632
 Alpha  occ. eigenvalues --   -0.91150  -0.90626  -0.90037  -0.89830  -0.89083
 Alpha  occ. eigenvalues --   -0.88903  -0.87906  -0.87726  -0.87443  -0.86777
 Alpha  occ. eigenvalues --   -0.85975  -0.84926  -0.83976  -0.83373  -0.82984
 Alpha  occ. eigenvalues --   -0.82430  -0.81903  -0.81243  -0.80000  -0.78602
 Alpha  occ. eigenvalues --   -0.78019  -0.77703  -0.76755  -0.76319  -0.75761
 Alpha  occ. eigenvalues --   -0.75144  -0.74964  -0.74431  -0.73207  -0.72671
 Alpha  occ. eigenvalues --   -0.71488  -0.70461  -0.69907  -0.68768  -0.67845
 Alpha  occ. eigenvalues --   -0.67534  -0.67104  -0.66480  -0.64230  -0.63976
 Alpha  occ. eigenvalues --   -0.63705  -0.63152  -0.62882  -0.62244  -0.61961
 Alpha  occ. eigenvalues --   -0.60997  -0.60886  -0.60552  -0.60074  -0.59280
 Alpha  occ. eigenvalues --   -0.58589  -0.58053  -0.58042  -0.57060  -0.56458
 Alpha  occ. eigenvalues --   -0.55867  -0.55830  -0.55418  -0.55221  -0.55090
 Alpha  occ. eigenvalues --   -0.54806  -0.53981  -0.53726  -0.53474  -0.53106
 Alpha  occ. eigenvalues --   -0.52917  -0.52627  -0.52261  -0.52154  -0.52020
 Alpha  occ. eigenvalues --   -0.51575  -0.51554  -0.51195  -0.51145  -0.50857
 Alpha  occ. eigenvalues --   -0.50729  -0.50567  -0.50296  -0.49981  -0.49864
 Alpha  occ. eigenvalues --   -0.49589  -0.49309  -0.49167  -0.48932  -0.48727
 Alpha  occ. eigenvalues --   -0.48534  -0.48318  -0.48077  -0.47619  -0.47527
 Alpha  occ. eigenvalues --   -0.46757  -0.46490  -0.46325  -0.46034  -0.45901
 Alpha  occ. eigenvalues --   -0.45560  -0.45507  -0.45342  -0.45157  -0.45044
 Alpha  occ. eigenvalues --   -0.44872  -0.44706  -0.44338  -0.44249  -0.44035
 Alpha  occ. eigenvalues --   -0.43518  -0.43329  -0.43244  -0.42922  -0.42850
 Alpha  occ. eigenvalues --   -0.42529  -0.42475  -0.42145  -0.41867  -0.41701
 Alpha  occ. eigenvalues --   -0.41578  -0.41335  -0.41078  -0.40953  -0.40678
 Alpha  occ. eigenvalues --   -0.40631  -0.40375  -0.40264  -0.40084  -0.39789
 Alpha  occ. eigenvalues --   -0.39762  -0.39528  -0.39472  -0.39324  -0.39143
 Alpha  occ. eigenvalues --   -0.39041  -0.38860  -0.38463  -0.38165  -0.37557
 Alpha  occ. eigenvalues --   -0.37431  -0.37368  -0.37067  -0.36822  -0.36679
 Alpha  occ. eigenvalues --   -0.36654  -0.36313  -0.36045  -0.35623  -0.35267
 Alpha  occ. eigenvalues --   -0.35091  -0.34852  -0.33801  -0.33342  -0.32980
 Alpha  occ. eigenvalues --   -0.32654  -0.32407  -0.31529  -0.30386  -0.29511
 Alpha  occ. eigenvalues --   -0.29449  -0.29242  -0.27700  -0.27127  -0.23301
 Alpha  occ. eigenvalues --   -0.21825
 Alpha virt. eigenvalues --   -0.05922  -0.02862   0.02425   0.03031   0.05543
 Alpha virt. eigenvalues --    0.05867   0.06657   0.06692   0.07003   0.07826
 Alpha virt. eigenvalues --    0.08059   0.09941   0.10645   0.10815   0.11326

 Mulliken charges:
               1
     1  Mg   0.793072
     2  C    0.034062
     3  C   -0.241889
     4  C   -0.145525
     5  C   -0.159406
     6  N   -0.652748
     7  C    0.275156
     8  C   -0.188350
     9  C   -0.069686
    10  C    0.386585
    11  C   -0.321023
    12  C   -0.156673
    13  C   -0.250032
    14  C    0.587782
    15  O   -0.516015
    16  O   -0.430888
    17  N   -0.736225
    18  C    0.377714
    19  C    0.016883
    20  C    0.052197
    21  C    0.332366
    22  C   -0.374475
    23  C   -0.112125
    24  C   -0.252894
    25  N   -0.664380
    26  C    0.234711
    27  C    0.005856
    28  C    0.068876
    29  C    0.264280
    30  C   -0.379516
    31  C   -0.278691
    32  C   -0.286646
    33  N   -0.733176
    34  C    0.193605
    35  C    0.048510
    36  C   -0.071221
    37  C    0.426377
    38  C   -0.380074
    39  C    0.395453
    40  O   -0.478939
    41  C   -0.319897
    42  C    0.616717
    43  O   -0.532727
    44  O   -0.418628
    45  C   -0.079676
    46  C    0.001686
    47  C   -0.159866
    48  C    0.087414
    49  C   -0.337150
    50  C   -0.222942
    51  C   -0.185524
    52  C   -0.173205
    53  C   -0.071810
    54  C   -0.338030
    55  C   -0.156498
    56  C   -0.177830
    57  C   -0.173043
    58  C   -0.048534
    59  C   -0.280221
    60  C   -0.147795
    61  C   -0.177953
    62  C   -0.162293
    63  C   -0.041507
    64  C   -0.300793
    65  C   -0.272977
    66  H    0.079095
    67  H    0.075495
    68  H    0.082444
    69  H    0.140686
    70  H    0.091743
    71  H    0.094336
    72  H    0.101817
    73  H    0.131156
    74  H    0.114724
    75  H    0.120016
    76  H    0.122868
    77  H    0.104627
    78  H    0.133388
    79  H    0.108805
    80  H    0.103792
    81  H    0.102886
    82  H    0.086485
    83  H    0.113762
    84  H    0.132092
    85  H    0.083319
    86  H    0.131065
    87  H    0.108620
    88  H    0.099023
    89  H    0.118271
    90  H    0.115932
    91  H    0.100574
    92  H    0.133186
    93  H    0.143073
    94  H    0.134764
    95  H    0.154388
    96  H    0.109081
    97  H    0.162199
    98  H    0.148004
    99  H    0.132508
   100  H    0.128868
   101  H    0.097078
   102  H    0.125160
   103  H    0.107715
   104  H    0.137729
   105  H    0.111907
   106  H    0.102695
   107  H    0.105811
   108  H    0.095220
   109  H    0.087168
   110  H    0.089236
   111  H    0.086902
   112  H    0.096484
   113  H    0.112369
   114  H    0.111553
   115  H    0.067778
   116  H    0.090294
   117  H    0.113218
   118  H    0.071239
   119  H    0.098289
   120  H    0.082452
   121  H    0.085526
   122  H    0.087557
   123  H    0.088359
   124  H    0.090916
   125  H    0.063568
   126  H    0.066819
   127  H    0.104172
   128  H    0.089369
   129  H    0.066500
   130  H    0.051127
   131  H    0.095191
   132  H    0.107334
   133  H    0.102595
   134  H    0.072774
   135  H    0.100942
   136  H    0.069773
   137  H    0.084284
 Sum of Mulliken charges =  -0.00000

 Dipole moment (field-independent basis, Debye):
    X=              3.0822    Y=              3.5499    Z=              0.2755  Tot=              4.7093
 Quadrupole moment (field-independent basis, Debye-Ang):
   XX=           -361.5698   YY=           -390.4615   ZZ=           -399.6547
   XY=            -27.7718   XZ=              8.2596   YZ=             -5.7861

 Normal termination of Gaussian 16 at Thu Jun 27 08:04:30 2019.
