 Gaussian 16, Revision A.03,
 Gaussian 16:  ES64L-G16RevA.03 25-Dec-2016

 ----------------------------------------------------------------------
 # td=(NStates=1) iop(3/107=0140000000,3/108=0140000000) CAM-B3LYP/6-31
 G(d,p)
 ----------------------------------------------------------------------

 --
 TD
 --
 Symbolic Z-matrix:
 Charge =  0 Multiplicity = 1

                         Standard orientation:
 ---------------------------------------------------------------------
 Center     Atomic      Atomic             Coordinates (Angstroms)
 Number     Number       Type             X           Y           Z
 ---------------------------------------------------------------------
      1         12           0       -7.097742    0.596963    0.135488
      2          6           0       -4.812023   -1.971971    0.454357
      3          6           0       -4.757271    2.810022    1.115429
      4          6           0       -9.395100    3.098202   -0.353825
      5          6           0       -9.661448   -1.708433   -0.871937
      6          7           0       -5.179503    0.460468    0.567247
      7          6           0       -4.444778   -0.692019    0.729186
      8          6           0       -2.985168   -0.382387    1.239644
      9          6           0       -3.019031    1.040452    1.562471
     10          6           0       -4.360578    1.455214    1.039777
     11          6           0       -2.972088    1.076875    3.131963
     12          6           0       -1.883923   -0.574406    0.112367
     13          6           0       -0.488626   -0.330705    0.510861
     14          6           0        0.552653   -0.544612   -0.618129
     15          8           0        0.159531   -0.787401   -1.788135
     16          8           0        1.820739   -0.448365   -0.227543
     17          7           0       -7.095787    2.557651    0.253229
     18          6           0       -6.026227    3.305751    0.763900
     19          6           0       -6.390457    4.716628    0.834171
     20          6           0       -7.639686    4.818491    0.356041
     21          6           0       -8.114147    3.463873    0.148225
     22          6           0       -5.451322    5.857294    1.299590
     23          6           0       -8.498816    5.976616    0.157743
     24          6           0       -8.322423    7.209719    0.699226
     25          7           0       -9.142106    0.681148   -0.604320
     26          6           0       -9.886639    1.807229   -0.671840
     27          6           0      -11.211337    1.474075   -0.993927
     28          6           0      -11.231049    0.123557   -1.229945
     29          6           0       -9.993374   -0.439567   -0.835023
     30          6           0      -12.225170    2.517196   -1.264461
     31          6           0      -12.335066   -0.585704   -1.835912
     32          6           0      -12.137288   -1.012519   -3.258557
     33          7           0       -7.198413   -1.352169   -0.137381
     34          6           0       -8.311454   -2.178840   -0.486178
     35          6           0       -7.818124   -3.560700   -0.499237
     36          6           0       -6.604540   -3.608064   -0.058041
     37          6           0       -6.180190   -2.211838    0.112335
     38          6           0       -8.739170   -4.802384   -0.774613
     39          6           0       -5.450826   -4.391358    0.171974
     40          8           0       -5.235397   -5.612958    0.023429
     41          6           0       -4.144076   -3.299223    0.522100
     42          6           0       -3.569056   -3.651826    1.842003
     43          8           0       -3.736159   -3.148903    2.907091
     44          8           0       -2.759429   -4.673058    1.694569
     45          6           0       -2.219997   -5.471750    2.878590
     46          6           0        2.896798   -0.589982   -1.279783
     47          6           0        4.142122   -0.433563   -0.533546
     48          6           0        5.170723    0.355125   -0.843933
     49          6           0        5.272619    1.241089   -2.121733
     50          6           0        6.449779    0.463159    0.004370
     51          6           0        7.631519   -0.142486   -0.818088
     52          6           0        9.001856   -0.277776    0.035497
     53          6           0       10.189702   -0.542239   -0.947773
     54          6           0       10.158436   -1.939129   -1.512268
     55          6           0       11.509360   -0.386346   -0.001559
     56          6           0       12.836746   -0.656137   -0.616989
     57          6           0       14.012667   -0.224962    0.221226
     58          6           0       15.333783   -0.354857   -0.475040
     59          6           0       15.752225   -1.760487   -0.793416
     60          6           0       16.432460    0.277804    0.442143
     61          6           0       17.736130    0.533248   -0.087782
     62          6           0       18.688304    1.337670    0.722149
     63          6           0       20.053228    1.461026    0.181288
     64          6           0       20.108544    2.262848   -1.171002
     65          6           0       21.074395    2.067760    1.231050
     66          1           0       -4.162476    3.436891    1.575134
     67          1           0       -9.907111    3.935032   -0.533332
     68          1           0      -10.375688   -2.518540   -1.218639
     69          1           0       -2.847021   -1.172258    1.943916
     70          1           0       -2.302947    1.824346    1.027763
     71          1           0       -2.114495    0.574172    3.527104
     72          1           0       -3.293691    1.904360    3.579047
     73          1           0       -3.560991    0.287557    3.574473
     74          1           0       -1.830908   -1.662550   -0.233617
     75          1           0       -2.253301   -0.072159   -0.783088
     76          1           0       -0.409519    0.819451    0.625428
     77          1           0       -0.262567   -0.804152    1.650056
     78          1           0       -5.449395    6.777085    0.526516
     79          1           0       -5.616439    5.886292    2.261686
     80          1           0       -4.235453    5.530871    1.513792
     81          1           0       -9.610352    5.885630   -0.413611
     82          1           0       -9.043055    8.128652    0.539015
     83          1           0       -7.427092    7.618923    1.292427
     84          1           0      -11.932751    3.500678   -1.883890
     85          1           0      -13.329322    2.346560   -1.372985
     86          1           0      -12.168814    2.967708   -0.248963
     87          1           0      -12.537983   -1.452130   -1.174524
     88          1           0      -13.360116   -0.126656   -1.784926
     89          1           0      -12.937039   -1.671160   -3.429758
     90          1           0      -11.996296   -0.219575   -4.089720
     91          1           0      -11.188351   -1.527358   -3.437478
     92          1           0       -8.719680   -4.839023   -2.163723
     93          1           0       -8.290709   -5.705102   -0.428320
     94          1           0       -9.679597   -4.697494   -0.256669
     95          1           0       -3.432078   -3.587429   -0.234406
     96          1           0       -1.429866   -4.879545    3.554380
     97          1           0       -2.953758   -5.752303    3.534572
     98          1           0       -1.713131   -6.485958    2.504403
     99          1           0        2.713206   -1.638491   -1.867568
    100          1           0        2.582044    0.130867   -2.121424
    101          1           0        4.041736   -1.018202    0.509674
    102          1           0        4.334447    1.633141   -2.693152
    103          1           0        5.490412    2.156744   -1.908683
    104          1           0        5.952116    0.882001   -2.975439
    105          1           0        6.631935    1.398230    0.424516
    106          1           0        6.328899   -0.034474    1.043275
    107          1           0        7.395225   -1.003847   -1.320196
    108          1           0        7.950622    0.719924   -1.564264
    109          1           0        9.225186    0.835708    0.687390
    110          1           0        8.927105   -0.936182    0.911344
    111          1           0       10.411821    0.062590   -1.607569
    112          1           0        9.061488   -2.144754   -2.149712
    113          1           0       11.075225   -2.118750   -1.939077
    114          1           0       10.119363   -2.692246   -0.706870
    115          1           0       11.475069    0.731420    0.411721
    116          1           0       11.332763   -1.015180    0.816194
    117          1           0       12.771692   -1.803286   -0.794474
    118          1           0       12.764761   -0.232554   -1.693787
    119          1           0       13.812816    0.869869    0.486835
    120          1           0       14.087413   -0.790695    1.183436
    121          1           0       15.397527    0.075697   -1.592082
    122          1           0       15.897521   -2.443171    0.100548
    123          1           0       15.032773   -2.285801   -1.380166
    124          1           0       16.760472   -1.988191   -1.239073
    125          1           0       15.761890    1.240383    0.724768
    126          1           0       16.542878   -0.357855    1.358457
    127          1           0       18.142994   -0.306959   -0.419576
    128          1           0       17.587827    1.182265   -0.968021
    129          1           0       18.315750    2.348625    0.825487
    130          1           0       18.610935    1.146241    1.870379
    131          1           0       20.547147    0.432854   -0.017566
    132          1           0       19.848262    3.428107   -0.959556
    133          1           0       21.084226    2.380244   -1.707433
    134          1           0       19.594146    1.921654   -2.056820
    135          1           0       21.222152    1.387595    2.003247
    136          1           0       22.035313    2.106886    0.857539
    137          1           0       20.652658    3.113083    1.482228
 ---------------------------------------------------------------------

 SCF Done:  E(RCAM-B3LYP) =  -2933.40102723     A.U. after   16 cycles

 Excitation energies and oscillator strengths:

 Excited State   1:      Singlet-A      1.9837 eV  625.02 nm  f=0.2829  <S**2>=0.000
     240 -> 243        0.19656
     241 -> 242        0.67500
 This state for optimization and/or second-order correction.
 Total Energy, E(TD-HF/TD-DFT) =  -2933.32812806
 Copying the excited state density for this state as the 1-particle RhoCI density.

 The electronic state is 1-A.
 Alpha  occ. eigenvalues --  -46.78274 -19.22392 -19.21001 -19.15918 -19.15598
 Alpha  occ. eigenvalues --  -19.14933 -14.37943 -14.35522 -14.35279 -14.34147
 Alpha  occ. eigenvalues --  -10.34557 -10.32917 -10.30629 -10.29218 -10.28582
 Alpha  occ. eigenvalues --  -10.26777 -10.25906 -10.25762 -10.25227 -10.25130
 Alpha  occ. eigenvalues --  -10.25120 -10.24645 -10.24376 -10.24369 -10.24167
 Alpha  occ. eigenvalues --  -10.24106 -10.24063 -10.23705 -10.23650 -10.23635
 Alpha  occ. eigenvalues --  -10.23469 -10.23406 -10.23214 -10.23133 -10.23033
 Alpha  occ. eigenvalues --  -10.22972 -10.22944 -10.22657 -10.22454 -10.22335
 Alpha  occ. eigenvalues --  -10.22323 -10.22294 -10.22094 -10.22022 -10.21920
 Alpha  occ. eigenvalues --  -10.21879 -10.21766 -10.21538 -10.21455 -10.21427
 Alpha  occ. eigenvalues --  -10.21369 -10.21328 -10.20951 -10.20877 -10.20769
 Alpha  occ. eigenvalues --  -10.20732 -10.20642 -10.20441 -10.20322 -10.20304
 Alpha  occ. eigenvalues --  -10.20179 -10.20085 -10.19940 -10.19652 -10.18672
 Alpha  occ. eigenvalues --   -3.07300  -1.82204  -1.81772  -1.81751  -1.12654
 Alpha  occ. eigenvalues --   -1.11622  -1.03715  -1.03091  -1.01771  -0.99476
 Alpha  occ. eigenvalues --   -0.98245  -0.97583  -0.96752  -0.86490  -0.86432
 Alpha  occ. eigenvalues --   -0.85673  -0.85449  -0.84876  -0.84439  -0.84204
 Alpha  occ. eigenvalues --   -0.83415  -0.83188  -0.82882  -0.82102  -0.80935
 Alpha  occ. eigenvalues --   -0.80080  -0.79233  -0.78547  -0.78472  -0.77531
 Alpha  occ. eigenvalues --   -0.76876  -0.76419  -0.75711  -0.75319  -0.73562
 Alpha  occ. eigenvalues --   -0.73181  -0.72391  -0.71656  -0.71579  -0.71119
 Alpha  occ. eigenvalues --   -0.70753  -0.70176  -0.70100  -0.69111  -0.67958
 Alpha  occ. eigenvalues --   -0.67434  -0.65876  -0.65330  -0.64681  -0.63838
 Alpha  occ. eigenvalues --   -0.62793  -0.62409  -0.61333  -0.61288  -0.60967
 Alpha  occ. eigenvalues --   -0.59745  -0.59344  -0.58825  -0.58220  -0.57947
 Alpha  occ. eigenvalues --   -0.57877  -0.56739  -0.56577  -0.55493  -0.55110
 Alpha  occ. eigenvalues --   -0.54737  -0.53691  -0.53151  -0.52575  -0.51917
 Alpha  occ. eigenvalues --   -0.51423  -0.51136  -0.51092  -0.50583  -0.50245
 Alpha  occ. eigenvalues --   -0.49928  -0.49691  -0.49585  -0.49164  -0.48989
 Alpha  occ. eigenvalues --   -0.48810  -0.48741  -0.48369  -0.48081  -0.48017
 Alpha  occ. eigenvalues --   -0.47847  -0.47427  -0.46999  -0.46691  -0.46608
 Alpha  occ. eigenvalues --   -0.46353  -0.46291  -0.46190  -0.45780  -0.45590
 Alpha  occ. eigenvalues --   -0.45449  -0.45432  -0.45219  -0.45172  -0.44507
 Alpha  occ. eigenvalues --   -0.44344  -0.44316  -0.43952  -0.43686  -0.43499
 Alpha  occ. eigenvalues --   -0.43258  -0.43086  -0.42985  -0.42816  -0.42581
 Alpha  occ. eigenvalues --   -0.42215  -0.41871  -0.41796  -0.41501  -0.41471
 Alpha  occ. eigenvalues --   -0.41395  -0.41278  -0.41025  -0.40794  -0.40698
 Alpha  occ. eigenvalues --   -0.40213  -0.40062  -0.39949  -0.39800  -0.39658
 Alpha  occ. eigenvalues --   -0.39526  -0.39210  -0.39058  -0.38864  -0.38735
 Alpha  occ. eigenvalues --   -0.38432  -0.38372  -0.38086  -0.38008  -0.37722
 Alpha  occ. eigenvalues --   -0.37575  -0.37440  -0.37151  -0.37049  -0.36904
 Alpha  occ. eigenvalues --   -0.36617  -0.36152  -0.35894  -0.35818  -0.35568
 Alpha  occ. eigenvalues --   -0.35531  -0.35075  -0.34860  -0.34672  -0.34404
 Alpha  occ. eigenvalues --   -0.34187  -0.33873  -0.33576  -0.33435  -0.33390
 Alpha  occ. eigenvalues --   -0.33157  -0.33142  -0.33080  -0.32538  -0.32183
 Alpha  occ. eigenvalues --   -0.32123  -0.32008  -0.31913  -0.30748  -0.30027
 Alpha  occ. eigenvalues --   -0.29475  -0.29340  -0.29154  -0.28335  -0.27672
 Alpha  occ. eigenvalues --   -0.27648  -0.26181  -0.25746  -0.24372  -0.21859
 Alpha  occ. eigenvalues --   -0.19697
 Alpha virt. eigenvalues --   -0.07069  -0.03552   0.00005   0.01907   0.03362
 Alpha virt. eigenvalues --    0.04272   0.04798   0.04887   0.05398   0.05670
 Alpha virt. eigenvalues --    0.06810   0.08562   0.09111   0.09115   0.09580

 Mulliken charges:
               1
     1  Mg   0.815999
     2  C    0.123386
     3  C   -0.163312
     4  C   -0.140679
     5  C   -0.176836
     6  N   -0.658102
     7  C    0.293047
     8  C   -0.159542
     9  C   -0.125852
    10  C    0.343341
    11  C   -0.323520
    12  C   -0.165054
    13  C   -0.244475
    14  C    0.612188
    15  O   -0.498179
    16  O   -0.467894
    17  N   -0.702427
    18  C    0.308701
    19  C    0.005761
    20  C    0.063547
    21  C    0.273619
    22  C   -0.360104
    23  C   -0.080566
    24  C   -0.254260
    25  N   -0.693912
    26  C    0.349146
    27  C    0.031376
    28  C    0.031706
    29  C    0.325355
    30  C   -0.385216
    31  C   -0.258778
    32  C   -0.303893
    33  N   -0.719333
    34  C    0.236364
    35  C   -0.052049
    36  C    0.162409
    37  C    0.235684
    38  C   -0.340685
    39  C    0.304850
    40  O   -0.472989
    41  C   -0.346042
    42  C    0.618553
    43  O   -0.484211
    44  O   -0.446491
    45  C   -0.089285
    46  C    0.007441
    47  C   -0.119583
    48  C    0.111961
    49  C   -0.368635
    50  C   -0.225156
    51  C   -0.169276
    52  C   -0.164715
    53  C   -0.027268
    54  C   -0.298678
    55  C   -0.186821
    56  C   -0.179966
    57  C   -0.159011
    58  C   -0.044049
    59  C   -0.320733
    60  C   -0.162248
    61  C   -0.153291
    62  C   -0.157242
    63  C   -0.055228
    64  C   -0.313703
    65  C   -0.309049
    66  H    0.045143
    67  H    0.042994
    68  H    0.111083
    69  H    0.124843
    70  H    0.106856
    71  H    0.116917
    72  H    0.108933
    73  H    0.133939
    74  H    0.099769
    75  H    0.121849
    76  H    0.115018
    77  H    0.104329
    78  H    0.129465
    79  H    0.156048
    80  H    0.070586
    81  H    0.091725
    82  H    0.095810
    83  H    0.103905
    84  H    0.105931
    85  H    0.114307
    86  H    0.123478
    87  H    0.097569
    88  H    0.097667
    89  H    0.110034
    90  H    0.101985
    91  H    0.107680
    92  H    0.071664
    93  H    0.146834
    94  H    0.125633
    95  H    0.164627
    96  H    0.113360
    97  H    0.153703
    98  H    0.124972
    99  H    0.120665
   100  H    0.133915
   101  H    0.099491
   102  H    0.090417
   103  H    0.136138
   104  H    0.120023
   105  H    0.115766
   106  H    0.081871
   107  H    0.115552
   108  H    0.091883
   109  H    0.036625
   110  H    0.102432
   111  H    0.092345
   112  H    0.065756
   113  H    0.113529
   114  H    0.101046
   115  H    0.061007
   116  H    0.096951
   117  H    0.083780
   118  H    0.080587
   119  H    0.091162
   120  H    0.100274
   121  H    0.068794
   122  H    0.080706
   123  H    0.103454
   124  H    0.099724
   125  H    0.056259
   126  H    0.080403
   127  H    0.100014
   128  H    0.095450
   129  H    0.092083
   130  H    0.069455
   131  H    0.069739
   132  H    0.074294
   133  H    0.095491
   134  H    0.110454
   135  H    0.109657
   136  H    0.108110
   137  H    0.089937
 Sum of Mulliken charges =  -0.00000

 Dipole moment (field-independent basis, Debye):
    X=              2.8636    Y=              4.5009    Z=              1.8662  Tot=              5.6516
 Quadrupole moment (field-independent basis, Debye-Ang):
   XX=           -336.6424   YY=           -386.9476   ZZ=           -396.0572
   XY=            -29.2312   XZ=             -4.0584   YZ=             -5.1661

 Normal termination of Gaussian 16 at Wed Sep  4 16:39:12 2019.
