 Gaussian 09, Revision D.01,
 Gaussian 09:  ES64L-G09RevD.01 24-Apr-2013

 -------------------------------------
 # td=(NStates=1) CAM-B3LYP/6-31G(d,p)
 -------------------------------------

 --
 TD
 --
 Symbolic Z-matrix:
 Charge =  0 Multiplicity = 1

                         Standard orientation:
 ---------------------------------------------------------------------
 Center     Atomic      Atomic             Coordinates (Angstroms)
 Number     Number       Type             X           Y           Z
 ---------------------------------------------------------------------
      1         12           0       -7.078098    0.644569    0.118176
      2          6           0       -4.888317   -1.986709    0.591208
      3          6           0       -4.760533    2.856100    1.142963
      4          6           0       -9.335081    3.112831   -0.417511
      5          6           0       -9.469419   -1.651951   -0.915683
      6          7           0       -5.092523    0.398751    0.758023
      7          6           0       -4.446695   -0.775155    0.874171
      8          6           0       -2.884635   -0.503394    1.311294
      9          6           0       -3.041748    1.055860    1.747700
     10          6           0       -4.375626    1.475230    1.266046
     11          6           0       -2.936601    1.241743    3.308255
     12          6           0       -1.940368   -0.733914    0.158975
     13          6           0       -0.507689   -0.533918    0.611253
     14          6           0        0.498731   -0.795257   -0.488434
     15          8           0        0.238293   -1.226856   -1.589506
     16          8           0        1.785378   -0.389215   -0.144267
     17          7           0       -7.099652    2.663927    0.392865
     18          6           0       -5.983028    3.383699    0.776008
     19          6           0       -6.267208    4.812015    0.748609
     20          6           0       -7.654283    4.887710    0.321079
     21          6           0       -8.045329    3.463345    0.056458
     22          6           0       -5.475345    5.895107    1.143242
     23          6           0       -8.441775    6.053760    0.146205
     24          6           0       -8.326841    7.188366    0.885994
     25          7           0       -9.108441    0.685096   -0.554780
     26          6           0       -9.833707    1.875345   -0.615099
     27          6           0      -11.178016    1.510863   -1.108398
     28          6           0      -11.207659    0.128494   -1.338929
     29          6           0       -9.918316   -0.290128   -0.958057
     30          6           0      -12.272902    2.688362   -1.364757
     31          6           0      -12.375990   -0.690028   -1.881750
     32          6           0      -12.076809   -1.004515   -3.344982
     33          7           0       -7.217706   -1.476421   -0.279210
     34          6           0       -8.262142   -2.279212   -0.619983
     35          6           0       -7.842663   -3.590708   -0.473469
     36          6           0       -6.496647   -3.563715   -0.105352
     37          6           0       -6.225131   -2.215936    0.141884
     38          6           0       -8.648028   -4.909272   -0.787830
     39          6           0       -5.301408   -4.356572    0.209684
     40          8           0       -5.274603   -5.516694    0.177671
     41          6           0       -4.108949   -3.352438    0.513894
     42          6           0       -3.515046   -3.768729    1.795472
     43          8           0       -3.759578   -3.167594    2.860929
     44          8           0       -2.725480   -4.867693    1.702769
     45          6           0       -2.187031   -5.421804    3.000316
     46          6           0        2.782758   -0.662355   -1.161533
     47          6           0        4.080230   -0.433951   -0.567010
     48          6           0        5.086720    0.382985   -1.100091
     49          6           0        5.017612    1.218582   -2.371510
     50          6           0        6.312737    0.484363   -0.324260
     51          6           0        7.602705   -0.015036   -0.932528
     52          6           0        8.909291   -0.074494   -0.085911
     53          6           0       10.144120   -0.468704   -0.895341
     54          6           0       10.100556   -1.890876   -1.475651
     55          6           0       11.329517   -0.182644    0.030193
     56          6           0       12.657193   -0.450405   -0.705087
     57          6           0       13.955304   -0.089281    0.152513
     58          6           0       15.315002   -0.267487   -0.522515
     59          6           0       15.657160   -1.694861   -0.912755
     60          6           0       16.385218    0.471784    0.368975
     61          6           0       17.728013    0.476412   -0.216725
     62          6           0       18.662000    1.343922    0.759327
     63          6           0       20.135213    1.293259    0.237268
     64          6           0       20.326388    2.175407   -1.082290
     65          6           0       21.148306    1.751257    1.368355
     66          1           0       -4.039622    3.451542    1.598275
     67          1           0       -9.966022    4.079346   -0.391065
     68          1           0      -10.167640   -2.346779   -1.429373
     69          1           0       -2.592127   -1.114057    2.190809
     70          1           0       -2.092644    1.673737    1.329895
     71          1           0       -1.795546    1.237359    3.398713
     72          1           0       -3.433191    2.285057    3.477963
     73          1           0       -3.434947    0.352006    3.782516
     74          1           0       -1.930802   -1.736982    0.037113
     75          1           0       -2.068237   -0.122805   -0.681630
     76          1           0       -0.299550    0.561913    0.794830
     77          1           0       -0.381745   -1.117189    1.560126
     78          1           0       -5.770691    6.750217    0.548224
     79          1           0       -5.505386    5.993424    2.221688
     80          1           0       -4.377773    5.524852    0.929080
     81          1           0       -8.984928    6.056401   -0.812230
     82          1           0       -8.854899    8.085314    0.680554
     83          1           0       -7.798179    7.196509    1.942756
     84          1           0      -12.078078    2.996034   -2.172191
     85          1           0      -13.320386    2.218926   -1.712893
     86          1           0      -12.559835    3.166320   -0.299625
     87          1           0      -12.433354   -1.742769   -1.429976
     88          1           0      -13.300119   -0.084828   -1.720173
     89          1           0      -12.990997   -1.493346   -3.846140
     90          1           0      -12.086144    0.019494   -3.916209
     91          1           0      -11.269584   -1.652065   -3.356624
     92          1           0       -9.078119   -4.731619   -1.766570
     93          1           0       -7.888118   -5.853156   -0.677914
     94          1           0       -9.574337   -5.034301   -0.138107
     95          1           0       -3.364190   -3.459601   -0.273979
     96          1           0       -1.909656   -4.454530    3.673655
     97          1           0       -3.071066   -6.028263    3.497520
     98          1           0       -1.458459   -6.127108    2.709942
     99          1           0        2.626325   -1.608899   -1.499580
    100          1           0        2.669865   -0.068196   -2.108021
    101          1           0        4.335957   -0.850042    0.495263
    102          1           0        3.926688    1.430686   -2.451914
    103          1           0        5.875009    2.110425   -1.991269
    104          1           0        5.329353    0.674460   -3.323831
    105          1           0        6.663905    1.432999    0.047297
    106          1           0        6.258513    0.047087    0.740087
    107          1           0        7.412531   -0.984938   -1.488008
    108          1           0        7.672621    0.712355   -1.720908
    109          1           0        9.162464    0.746899    0.426571
    110          1           0        8.795260   -0.768931    0.682430
    111          1           0       10.187524   -0.052115   -1.681661
    112          1           0        9.068916   -2.281274   -2.010694
    113          1           0       10.798413   -2.014743   -2.493656
    114          1           0       10.406479   -2.814246   -0.637021
    115          1           0       11.408941    0.885656    0.272674
    116          1           0       11.009956   -0.606555    0.909259
    117          1           0       12.822063   -1.524558   -1.028420
    118          1           0       12.778195    0.139102   -1.709823
    119          1           0       13.837631    0.909882    0.706707
    120          1           0       13.937238   -0.874259    0.973415
    121          1           0       15.206545    0.262317   -1.348126
    122          1           0       15.879637   -2.298000   -0.060414
    123          1           0       14.797741   -1.957023   -1.620837
    124          1           0       16.776413   -1.462799   -1.333975
    125          1           0       16.057148    1.557725    0.689277
    126          1           0       16.302793   -0.031181    1.374517
    127          1           0       18.193274   -0.482463   -0.359553
    128          1           0       17.752220    1.137143   -1.056945
    129          1           0       18.456861    2.334033    0.987012
    130          1           0       18.845579    0.960391    1.912385
    131          1           0       20.318203    0.226707    0.102366
    132          1           0       19.980075    3.299139   -0.650214
    133          1           0       21.309910    2.019994   -1.264211
    134          1           0       19.679125    1.777678   -1.895871
    135          1           0       20.915862    1.121918    2.167386
    136          1           0       22.218478    1.711008    0.818470
    137          1           0       21.033153    2.903547    1.620328
 ---------------------------------------------------------------------

 SCF Done:  E(RCAM-B3LYP) =  -2932.58264431     A.U. after   16 cycles

 Excitation energies and oscillator strengths:

 Excited State   1:      Singlet-A      1.9699 eV  629.41 nm  f=0.2717  <S**2>=0.000
     240 -> 243        0.22027
     241 -> 242        0.66645
 This state for optimization and/or second-order correction.
 Total Energy, E(TD-HF/TD-KS) =  -2932.51025358
 Copying the excited state density for this state as the 1-particle RhoCI density.

 The electronic state is 1-A.
 Alpha  occ. eigenvalues --  -46.85599 -19.26661 -19.25785 -19.21551 -19.20699
 Alpha  occ. eigenvalues --  -19.20375 -14.42022 -14.39532 -14.38908 -14.38135
 Alpha  occ. eigenvalues --  -10.39539 -10.39294 -10.34953 -10.33508 -10.31569
 Alpha  occ. eigenvalues --  -10.30810 -10.30017 -10.29915 -10.29156 -10.29007
 Alpha  occ. eigenvalues --  -10.28710 -10.28701 -10.28602 -10.28514 -10.28466
 Alpha  occ. eigenvalues --  -10.28150 -10.28015 -10.27865 -10.27834 -10.27771
 Alpha  occ. eigenvalues --  -10.27565 -10.27481 -10.27479 -10.27362 -10.27177
 Alpha  occ. eigenvalues --  -10.27165 -10.27111 -10.26983 -10.26934 -10.26777
 Alpha  occ. eigenvalues --  -10.26751 -10.26726 -10.26617 -10.26565 -10.26564
 Alpha  occ. eigenvalues --  -10.26232 -10.26017 -10.25934 -10.25878 -10.25808
 Alpha  occ. eigenvalues --  -10.25756 -10.25693 -10.25604 -10.25439 -10.25363
 Alpha  occ. eigenvalues --  -10.25291 -10.25226 -10.25168 -10.25134 -10.25096
 Alpha  occ. eigenvalues --  -10.24897 -10.24026 -10.23988 -10.23896 -10.23838
 Alpha  occ. eigenvalues --   -3.14328  -1.89065  -1.88554  -1.88487  -1.17242
 Alpha  occ. eigenvalues --   -1.16494  -1.14499  -1.09105  -1.07334  -1.05228
 Alpha  occ. eigenvalues --   -1.04801  -1.03146  -1.02710  -0.92286  -0.91834
 Alpha  occ. eigenvalues --   -0.90781  -0.90397  -0.90020  -0.89943  -0.89008
 Alpha  occ. eigenvalues --   -0.87981  -0.87505  -0.87210  -0.86282  -0.85696
 Alpha  occ. eigenvalues --   -0.85090  -0.83885  -0.83741  -0.83186  -0.82514
 Alpha  occ. eigenvalues --   -0.81598  -0.81173  -0.80234  -0.79538  -0.77975
 Alpha  occ. eigenvalues --   -0.77434  -0.77115  -0.76544  -0.75918  -0.75259
 Alpha  occ. eigenvalues --   -0.74965  -0.74765  -0.73727  -0.73036  -0.72431
 Alpha  occ. eigenvalues --   -0.71573  -0.70327  -0.69079  -0.68748  -0.68118
 Alpha  occ. eigenvalues --   -0.67401  -0.66240  -0.65065  -0.64684  -0.64410
 Alpha  occ. eigenvalues --   -0.64285  -0.64063  -0.63159  -0.63068  -0.61858
 Alpha  occ. eigenvalues --   -0.61854  -0.60392  -0.60163  -0.59742  -0.58865
 Alpha  occ. eigenvalues --   -0.58458  -0.58099  -0.57510  -0.57472  -0.57299
 Alpha  occ. eigenvalues --   -0.56199  -0.55420  -0.55015  -0.54768  -0.54676
 Alpha  occ. eigenvalues --   -0.54198  -0.53945  -0.53728  -0.53663  -0.52993
 Alpha  occ. eigenvalues --   -0.52796  -0.52710  -0.52391  -0.52137  -0.52019
 Alpha  occ. eigenvalues --   -0.51735  -0.51155  -0.50931  -0.50927  -0.50823
 Alpha  occ. eigenvalues --   -0.50521  -0.50302  -0.49926  -0.49675  -0.49564
 Alpha  occ. eigenvalues --   -0.49325  -0.49196  -0.48980  -0.48805  -0.48573
 Alpha  occ. eigenvalues --   -0.48500  -0.48386  -0.47947  -0.47917  -0.47434
 Alpha  occ. eigenvalues --   -0.46707  -0.46548  -0.46176  -0.46089  -0.45818
 Alpha  occ. eigenvalues --   -0.45792  -0.45681  -0.45462  -0.45340  -0.44843
 Alpha  occ. eigenvalues --   -0.44806  -0.44620  -0.44400  -0.44089  -0.43871
 Alpha  occ. eigenvalues --   -0.43746  -0.43577  -0.43446  -0.43426  -0.43100
 Alpha  occ. eigenvalues --   -0.42707  -0.42672  -0.42472  -0.42411  -0.42291
 Alpha  occ. eigenvalues --   -0.41743  -0.41723  -0.41417  -0.41162  -0.41103
 Alpha  occ. eigenvalues --   -0.40857  -0.40707  -0.40390  -0.40215  -0.40174
 Alpha  occ. eigenvalues --   -0.40098  -0.39859  -0.39638  -0.39513  -0.39257
 Alpha  occ. eigenvalues --   -0.38910  -0.38305  -0.38203  -0.37975  -0.37512
 Alpha  occ. eigenvalues --   -0.37311  -0.37029  -0.37016  -0.36782  -0.36544
 Alpha  occ. eigenvalues --   -0.36176  -0.36064  -0.35838  -0.35714  -0.35246
 Alpha  occ. eigenvalues --   -0.35120  -0.34616  -0.34520  -0.34015  -0.33326
 Alpha  occ. eigenvalues --   -0.32595  -0.32503  -0.32282  -0.31601  -0.29902
 Alpha  occ. eigenvalues --   -0.28754  -0.28714  -0.28096  -0.26938  -0.23497
 Alpha  occ. eigenvalues --   -0.20730
 Alpha virt. eigenvalues --   -0.06633  -0.02920   0.02077   0.03881   0.04750
 Alpha virt. eigenvalues --    0.05607   0.05710   0.06119   0.06355   0.06890
 Alpha virt. eigenvalues --    0.09183   0.10592   0.10782   0.11338   0.11370

 Mulliken charges:
               1
     1  Mg   0.823793
     2  C    0.086624
     3  C   -0.196254
     4  C   -0.182889
     5  C   -0.179967
     6  N   -0.661087
     7  C    0.285711
     8  C   -0.162389
     9  C   -0.178297
    10  C    0.333645
    11  C   -0.293773
    12  C   -0.132943
    13  C   -0.286716
    14  C    0.612234
    15  O   -0.464824
    16  O   -0.498226
    17  N   -0.725962
    18  C    0.318803
    19  C    0.044303
    20  C   -0.012792
    21  C    0.333224
    22  C   -0.383266
    23  C   -0.105654
    24  C   -0.253839
    25  N   -0.683063
    26  C    0.313310
    27  C   -0.059568
    28  C    0.057935
    29  C    0.305358
    30  C   -0.324074
    31  C   -0.240322
    32  C   -0.290789
    33  N   -0.713348
    34  C    0.306192
    35  C   -0.041217
    36  C    0.002714
    37  C    0.297196
    38  C   -0.368564
    39  C    0.367159
    40  O   -0.412770
    41  C   -0.321742
    42  C    0.639872
    43  O   -0.500303
    44  O   -0.479075
    45  C   -0.084696
    46  C    0.024821
    47  C   -0.130726
    48  C    0.125341
    49  C   -0.342799
    50  C   -0.256278
    51  C   -0.176792
    52  C   -0.188961
    53  C   -0.000987
    54  C   -0.301744
    55  C   -0.177689
    56  C   -0.194378
    57  C   -0.180333
    58  C   -0.060509
    59  C   -0.298017
    60  C   -0.173717
    61  C   -0.178515
    62  C   -0.174174
    63  C   -0.084637
    64  C   -0.288701
    65  C   -0.296668
    66  H    0.075911
    67  H    0.095987
    68  H    0.069767
    69  H    0.121032
    70  H    0.087867
    71  H    0.104212
    72  H    0.101166
    73  H    0.134368
    74  H    0.122956
    75  H    0.124465
    76  H    0.127993
    77  H    0.132960
    78  H    0.134866
    79  H    0.133366
    80  H    0.092618
    81  H    0.108417
    82  H    0.108668
    83  H    0.101490
    84  H    0.136154
    85  H    0.075622
    86  H    0.129370
    87  H    0.102619
    88  H    0.107762
    89  H    0.090094
    90  H    0.097528
    91  H    0.122126
    92  H    0.122098
    93  H    0.136142
    94  H    0.116637
    95  H    0.174298
    96  H    0.140303
    97  H    0.132459
    98  H    0.143348
    99  H    0.137320
   100  H    0.102297
   101  H    0.094233
   102  H    0.124951
   103  H    0.092255
   104  H    0.129502
   105  H    0.100463
   106  H    0.076954
   107  H    0.088922
   108  H    0.088304
   109  H    0.097372
   110  H    0.101820
   111  H    0.087223
   112  H    0.088500
   113  H    0.076797
   114  H    0.064440
   115  H    0.095793
   116  H    0.104127
   117  H    0.095842
   118  H    0.076686
   119  H    0.074246
   120  H    0.076943
   121  H    0.094293
   122  H    0.112482
   123  H    0.108028
   124  H    0.078201
   125  H    0.078633
   126  H    0.086581
   127  H    0.108549
   128  H    0.114223
   129  H    0.100012
   130  H    0.044998
   131  H    0.085154
   132  H    0.077079
   133  H    0.115287
   134  H    0.102060
   135  H    0.115024
   136  H    0.081696
   137  H    0.083831
 Sum of Mulliken charges =   0.00000

 Dipole moment (field-independent basis, Debye):
    X=              1.5289    Y=              3.9368    Z=              0.4824  Tot=              4.2507
 Quadrupole moment (field-independent basis, Debye-Ang):
   XX=           -361.3513   YY=           -391.4259   ZZ=           -395.8237
   XY=            -23.0837   XZ=              7.4210   YZ=             -3.9203

 Normal termination of Gaussian 09 at Fri Jul  5 06:29:10 2019.
