 Gaussian 16, Revision A.03,
 Gaussian 16:  ES64L-G16RevA.03 25-Dec-2016

 ----------------------------------------------------------------------
 # td=(NStates=1) iop(3/107=0140000000,3/108=0140000000) CAM-B3LYP/6-31
 G(d,p)
 ----------------------------------------------------------------------

 --
 TD
 --
 Symbolic Z-matrix:
 Charge =  0 Multiplicity = 1

                         Standard orientation:
 ---------------------------------------------------------------------
 Center     Atomic      Atomic             Coordinates (Angstroms)
 Number     Number       Type             X           Y           Z
 ---------------------------------------------------------------------
      1         12           0       -7.127989    0.588859    0.182867
      2          6           0       -4.937195   -1.892694    0.542842
      3          6           0       -4.658667    2.779671    1.077517
      4          6           0       -9.325929    3.064249   -0.288339
      5          6           0       -9.590522   -1.665907   -0.880041
      6          7           0       -5.057147    0.406888    0.775574
      7          6           0       -4.339107   -0.731048    0.812458
      8          6           0       -2.884629   -0.533603    1.147085
      9          6           0       -2.900022    0.973639    1.607312
     10          6           0       -4.260481    1.419925    1.195938
     11          6           0       -2.904838    1.114792    3.209362
     12          6           0       -2.028994   -0.582676    0.033319
     13          6           0       -0.499681   -0.593350    0.322974
     14          6           0        0.459867   -0.845477   -0.885858
     15          8           0        0.122974   -1.199272   -1.977191
     16          8           0        1.802894   -0.385277   -0.444708
     17          7           0       -7.006809    2.657761    0.380652
     18          6           0       -5.880502    3.438639    0.710651
     19          6           0       -6.251314    4.800342    0.808550
     20          6           0       -7.641546    4.920657    0.403759
     21          6           0       -8.097777    3.457610    0.180718
     22          6           0       -5.315599    5.952532    1.259811
     23          6           0       -8.438085    6.046795    0.306462
     24          6           0       -8.251006    7.246664    0.842686
     25          7           0       -9.027757    0.703297   -0.478753
     26          6           0       -9.759764    1.759437   -0.643106
     27          6           0      -11.179090    1.527778   -0.973852
     28          6           0      -11.287930    0.233435   -1.133928
     29          6           0       -9.870700   -0.308417   -0.776653
     30          6           0      -12.190366    2.615557   -1.309418
     31          6           0      -12.345092   -0.603522   -1.749526
     32          6           0      -12.112502   -1.039520   -3.187380
     33          7           0       -7.282437   -1.421449   -0.075570
     34          6           0       -8.363859   -2.162277   -0.598191
     35          6           0       -7.893875   -3.575484   -0.521442
     36          6           0       -6.523599   -3.534904   -0.078013
     37          6           0       -6.168852   -2.233278    0.109403
     38          6           0       -8.692187   -4.869636   -0.899665
     39          6           0       -5.323824   -4.461935    0.260171
     40          8           0       -5.287970   -5.631727    0.344924
     41          6           0       -4.148014   -3.296127    0.568736
     42          6           0       -3.580032   -3.671525    1.932667
     43          8           0       -3.771927   -3.068144    2.934561
     44          8           0       -2.865955   -4.877130    1.756620
     45          6           0       -2.439430   -5.344209    3.068820
     46          6           0        2.794087   -0.669523   -1.423408
     47          6           0        4.076314   -0.411821   -0.740928
     48          6           0        5.052759    0.369508   -1.280686
     49          6           0        5.023716    1.155930   -2.624221
     50          6           0        6.357513    0.482509   -0.485087
     51          6           0        7.628889    0.101568   -1.243022
     52          6           0        8.762638   -0.044075   -0.327417
     53          6           0       10.183192   -0.530371   -0.889718
     54          6           0       10.140802   -1.958162   -1.292071
     55          6           0       11.291622   -0.275215    0.183333
     56          6           0       12.695130   -0.564450   -0.520628
     57          6           0       13.934648   -0.154785    0.323499
     58          6           0       15.305554   -0.228784   -0.301869
     59          6           0       15.684040   -1.687183   -0.781995
     60          6           0       16.369423    0.367957    0.469650
     61          6           0       17.739343    0.626824   -0.044407
     62          6           0       18.703118    1.257770    0.879197
     63          6           0       20.217005    1.266274    0.307357
     64          6           0       20.356137    2.173079   -0.898168
     65          6           0       21.161758    1.709837    1.415353
     66          1           0       -3.896780    3.571502    1.234948
     67          1           0       -9.923286    3.899174   -0.632744
     68          1           0      -10.334664   -2.385631   -1.582967
     69          1           0       -2.644239   -1.255048    1.941075
     70          1           0       -1.990300    1.557430    1.348082
     71          1           0       -1.906823    0.832237    3.653137
     72          1           0       -3.043573    2.243363    3.332826
     73          1           0       -3.492502    0.608479    3.688382
     74          1           0       -2.196227   -1.548511   -0.298324
     75          1           0       -2.371353    0.155279   -0.789439
     76          1           0       -0.157147    0.249631    0.822519
     77          1           0       -0.220672   -1.562360    0.866500
     78          1           0       -5.614751    6.904219    0.640699
     79          1           0       -5.383553    5.993852    2.360471
     80          1           0       -4.148358    5.741038    1.013726
     81          1           0       -9.398929    6.105964   -0.381156
     82          1           0       -8.873761    8.138971    0.418409
     83          1           0       -7.453921    7.464992    1.698485
     84          1           0      -11.761095    3.210616   -2.178318
     85          1           0      -13.165958    2.108749   -1.287573
     86          1           0      -12.461851    3.154786   -0.481266
     87          1           0      -12.492813   -1.401020   -0.966900
     88          1           0      -13.085287    0.087932   -1.610842
     89          1           0      -12.985850   -1.571759   -3.397109
     90          1           0      -12.186908   -0.169355   -3.735714
     91          1           0      -11.306068   -1.716348   -3.470676
     92          1           0       -8.816355   -4.567849   -1.854619
     93          1           0       -8.060965   -5.660650   -0.536684
     94          1           0       -9.600408   -4.796750   -0.190676
     95          1           0       -3.295593   -3.292070   -0.151510
     96          1           0       -1.957518   -4.526370    3.517526
     97          1           0       -3.304772   -5.618906    3.728507
     98          1           0       -1.907897   -6.027298    2.696232
     99          1           0        2.702276   -1.726856   -1.800128
    100          1           0        2.557574   -0.194509   -2.282550
    101          1           0        4.151807   -0.833156    0.301366
    102          1           0        4.100640    1.084941   -2.920832
    103          1           0        5.596778    2.239607   -2.609952
    104          1           0        5.539550    0.514140   -3.298218
    105          1           0        6.597839    1.552416   -0.081020
    106          1           0        6.334594    0.071935    0.323070
    107          1           0        7.331578   -0.867613   -1.653442
    108          1           0        7.941476    0.758057   -2.058646
    109          1           0        9.144098    0.990415    0.016478
    110          1           0        8.460372   -0.538917    0.473893
    111          1           0       10.277735   -0.023789   -1.854690
    112          1           0        9.240848   -2.374751   -2.014362
    113          1           0       11.182946   -2.082999   -1.910414
    114          1           0       10.210430   -2.611102   -0.581934
    115          1           0       11.217833    0.915656    0.179048
    116          1           0       11.090099   -0.882546    1.000992
    117          1           0       12.720196   -1.654088   -0.829356
    118          1           0       12.972496    0.164240   -1.416462
    119          1           0       13.634577    1.026412    0.420382
    120          1           0       13.903472   -0.632091    1.311074
    121          1           0       15.249067    0.557947   -1.263595
    122          1           0       15.612238   -2.223213    0.192011
    123          1           0       14.973924   -2.106130   -1.480723
    124          1           0       16.685645   -1.632656   -0.971473
    125          1           0       15.943650    1.368243    0.596393
    126          1           0       16.487230   -0.110685    1.504080
    127          1           0       18.052664   -0.350848   -0.499806
    128          1           0       17.557625    1.049813   -1.029868
    129          1           0       18.523197    2.294038    1.049273
    130          1           0       18.718222    0.713111    1.857537
    131          1           0       20.323041    0.083950    0.217144
    132          1           0       20.125681    3.167870   -0.854997
    133          1           0       21.384073    2.372759   -1.122531
    134          1           0       19.883004    1.617475   -1.717551
    135          1           0       21.001879    1.041255    2.235260
    136          1           0       22.235023    1.810062    1.096683
    137          1           0       20.814322    2.965846    1.537929
 ---------------------------------------------------------------------

 SCF Done:  E(RCAM-B3LYP) =  -2933.38504262     A.U. after   16 cycles

 Excitation energies and oscillator strengths:

 Excited State   1:      Singlet-A      2.0345 eV  609.40 nm  f=0.2744  <S**2>=0.000
     240 -> 243        0.24780
     241 -> 242        0.65934
 This state for optimization and/or second-order correction.
 Total Energy, E(TD-HF/TD-DFT) =  -2933.31027532
 Copying the excited state density for this state as the 1-particle RhoCI density.

 The electronic state is 1-A.
 Alpha  occ. eigenvalues --  -46.79881 -19.21260 -19.21011 -19.19237 -19.18003
 Alpha  occ. eigenvalues --  -19.17841 -14.37472 -14.35841 -14.34774 -14.34090
 Alpha  occ. eigenvalues --  -10.35649 -10.34337 -10.31781 -10.26463 -10.25678
 Alpha  occ. eigenvalues --  -10.25255 -10.24980 -10.24909 -10.24554 -10.24535
 Alpha  occ. eigenvalues --  -10.24468 -10.24450 -10.24369 -10.23998 -10.23917
 Alpha  occ. eigenvalues --  -10.23835 -10.23591 -10.23355 -10.23304 -10.23159
 Alpha  occ. eigenvalues --  -10.23146 -10.23092 -10.22729 -10.22618 -10.22590
 Alpha  occ. eigenvalues --  -10.22478 -10.22464 -10.22387 -10.22354 -10.22105
 Alpha  occ. eigenvalues --  -10.21955 -10.21936 -10.21886 -10.21772 -10.21627
 Alpha  occ. eigenvalues --  -10.21626 -10.21572 -10.21496 -10.21465 -10.21446
 Alpha  occ. eigenvalues --  -10.21286 -10.21254 -10.21177 -10.20782 -10.20660
 Alpha  occ. eigenvalues --  -10.20378 -10.20286 -10.20208 -10.20177 -10.20159
 Alpha  occ. eigenvalues --  -10.19807 -10.19608 -10.19471 -10.19460 -10.19275
 Alpha  occ. eigenvalues --   -3.08443  -1.83391  -1.82965  -1.82792  -1.12461
 Alpha  occ. eigenvalues --   -1.11478  -1.09325  -1.05327  -1.05129  -1.00606
 Alpha  occ. eigenvalues --   -0.99928  -0.96355  -0.96021  -0.87017  -0.86343
 Alpha  occ. eigenvalues --   -0.86266  -0.85831  -0.85356  -0.84099  -0.83546
 Alpha  occ. eigenvalues --   -0.83238  -0.82830  -0.82318  -0.80972  -0.80569
 Alpha  occ. eigenvalues --   -0.80044  -0.79572  -0.78961  -0.78500  -0.77520
 Alpha  occ. eigenvalues --   -0.76742  -0.76058  -0.75534  -0.75187  -0.74030
 Alpha  occ. eigenvalues --   -0.73633  -0.72250  -0.71738  -0.71597  -0.71224
 Alpha  occ. eigenvalues --   -0.70899  -0.70439  -0.70035  -0.68595  -0.68552
 Alpha  occ. eigenvalues --   -0.67220  -0.66872  -0.66160  -0.64984  -0.62934
 Alpha  occ. eigenvalues --   -0.62465  -0.61841  -0.61401  -0.60432  -0.60020
 Alpha  occ. eigenvalues --   -0.59443  -0.59217  -0.59112  -0.58409  -0.57781
 Alpha  occ. eigenvalues --   -0.56593  -0.56147  -0.55715  -0.55369  -0.54843
 Alpha  occ. eigenvalues --   -0.53865  -0.53709  -0.53277  -0.53143  -0.52705
 Alpha  occ. eigenvalues --   -0.51779  -0.51412  -0.51123  -0.51060  -0.50829
 Alpha  occ. eigenvalues --   -0.50503  -0.50360  -0.49987  -0.49843  -0.49471
 Alpha  occ. eigenvalues --   -0.49429  -0.49295  -0.48994  -0.48734  -0.48356
 Alpha  occ. eigenvalues --   -0.48180  -0.47814  -0.47384  -0.47310  -0.47048
 Alpha  occ. eigenvalues --   -0.46846  -0.46704  -0.46269  -0.46198  -0.45728
 Alpha  occ. eigenvalues --   -0.45523  -0.45462  -0.45332  -0.45223  -0.45107
 Alpha  occ. eigenvalues --   -0.44861  -0.44799  -0.44412  -0.44155  -0.43742
 Alpha  occ. eigenvalues --   -0.43580  -0.43471  -0.43299  -0.43179  -0.43005
 Alpha  occ. eigenvalues --   -0.42693  -0.42368  -0.42219  -0.42113  -0.41907
 Alpha  occ. eigenvalues --   -0.41705  -0.41627  -0.41466  -0.41406  -0.41304
 Alpha  occ. eigenvalues --   -0.41226  -0.40842  -0.40724  -0.40555  -0.40384
 Alpha  occ. eigenvalues --   -0.39881  -0.39766  -0.39577  -0.39503  -0.39411
 Alpha  occ. eigenvalues --   -0.39297  -0.39082  -0.38712  -0.38450  -0.38397
 Alpha  occ. eigenvalues --   -0.38215  -0.38204  -0.37853  -0.36926  -0.36830
 Alpha  occ. eigenvalues --   -0.36700  -0.36433  -0.36328  -0.36023  -0.35839
 Alpha  occ. eigenvalues --   -0.35624  -0.35467  -0.35413  -0.34864  -0.34557
 Alpha  occ. eigenvalues --   -0.34428  -0.34215  -0.33724  -0.33141  -0.32995
 Alpha  occ. eigenvalues --   -0.32845  -0.32661  -0.32566  -0.32326  -0.32266
 Alpha  occ. eigenvalues --   -0.31944  -0.31288  -0.31160  -0.31057  -0.30745
 Alpha  occ. eigenvalues --   -0.30198  -0.30062  -0.29987  -0.28077  -0.27490
 Alpha  occ. eigenvalues --   -0.27004  -0.26222  -0.25309  -0.23974  -0.21224
 Alpha  occ. eigenvalues --   -0.19550
 Alpha virt. eigenvalues --   -0.06705  -0.03399   0.00323   0.02253   0.03106
 Alpha virt. eigenvalues --    0.04497   0.04572   0.04965   0.05404   0.06063
 Alpha virt. eigenvalues --    0.06811   0.08513   0.08701   0.09344   0.10055

 Mulliken charges:
               1
     1  Mg   0.807224
     2  C    0.069724
     3  C   -0.209021
     4  C   -0.168876
     5  C   -0.194573
     6  N   -0.620793
     7  C    0.297627
     8  C   -0.137727
     9  C   -0.174507
    10  C    0.367871
    11  C   -0.294381
    12  C   -0.138916
    13  C   -0.259256
    14  C    0.583082
    15  O   -0.422706
    16  O   -0.505357
    17  N   -0.712061
    18  C    0.299369
    19  C    0.024809
    20  C    0.028671
    21  C    0.317154
    22  C   -0.375248
    23  C   -0.092383
    24  C   -0.257082
    25  N   -0.647743
    26  C    0.297329
    27  C    0.024563
    28  C    0.014116
    29  C    0.261964
    30  C   -0.370000
    31  C   -0.233640
    32  C   -0.310064
    33  N   -0.753713
    34  C    0.321711
    35  C   -0.103881
    36  C    0.005306
    37  C    0.305405
    38  C   -0.346326
    39  C    0.386483
    40  O   -0.404456
    41  C   -0.354839
    42  C    0.615184
    43  O   -0.445233
    44  O   -0.477852
    45  C   -0.069965
    46  C    0.021615
    47  C   -0.133157
    48  C    0.091341
    49  C   -0.341674
    50  C   -0.182265
    51  C   -0.175248
    52  C   -0.164619
    53  C   -0.066063
    54  C   -0.292426
    55  C   -0.159958
    56  C   -0.181325
    57  C   -0.158495
    58  C   -0.051972
    59  C   -0.310698
    60  C   -0.151087
    61  C   -0.175248
    62  C   -0.156833
    63  C   -0.062455
    64  C   -0.312713
    65  C   -0.273843
    66  H    0.063224
    67  H    0.073908
    68  H    0.087220
    69  H    0.120793
    70  H    0.106464
    71  H    0.089941
    72  H    0.097052
    73  H    0.133000
    74  H    0.103414
    75  H    0.112280
    76  H    0.139548
    77  H    0.130120
    78  H    0.123400
    79  H    0.137979
    80  H    0.094197
    81  H    0.084605
    82  H    0.091430
    83  H    0.095775
    84  H    0.131185
    85  H    0.104715
    86  H    0.133936
    87  H    0.105415
    88  H    0.101700
    89  H    0.118844
    90  H    0.123021
    91  H    0.115651
    92  H    0.142051
    93  H    0.149525
    94  H    0.119009
    95  H    0.153290
    96  H    0.127680
    97  H    0.125969
    98  H    0.126229
    99  H    0.102245
   100  H    0.118332
   101  H    0.096190
   102  H    0.115350
   103  H    0.107344
   104  H    0.132241
   105  H    0.069518
   106  H    0.086876
   107  H    0.092428
   108  H    0.090189
   109  H    0.064884
   110  H    0.089588
   111  H    0.087640
   112  H    0.073497
   113  H    0.072010
   114  H    0.111483
   115  H    0.090168
   116  H    0.109947
   117  H    0.091433
   118  H    0.082588
   119  H    0.060476
   120  H    0.083907
   121  H    0.035094
   122  H    0.093076
   123  H    0.111688
   124  H    0.109047
   125  H    0.090455
   126  H    0.064891
   127  H    0.075686
   128  H    0.091354
   129  H    0.098108
   130  H    0.083856
   131  H    0.072069
   132  H    0.113801
   133  H    0.099186
   134  H    0.107801
   135  H    0.104826
   136  H    0.102383
   137  H    0.045909
 Sum of Mulliken charges =  -0.00000

 Dipole moment (field-independent basis, Debye):
    X=              0.4067    Y=              2.9031    Z=             -0.2068  Tot=              2.9387
 Quadrupole moment (field-independent basis, Debye-Ang):
   XX=           -335.0942   YY=           -398.2781   ZZ=           -395.5733
   XY=            -16.9495   XZ=             15.4018   YZ=             -7.5196

 Normal termination of Gaussian 16 at Wed Sep  4 23:20:31 2019.
