 Gaussian 16, Revision A.03,
 Gaussian 16:  ES64L-G16RevA.03 25-Dec-2016

 ----------------------------------------------------------------------
 # td=(NStates=1) iop(3/107=0140000000,3/108=0140000000) CAM-B3LYP/6-31
 G(d,p)
 ----------------------------------------------------------------------

 --
 TD
 --
 Symbolic Z-matrix:
 Charge =  0 Multiplicity = 1

                         Standard orientation:
 ---------------------------------------------------------------------
 Center     Atomic      Atomic             Coordinates (Angstroms)
 Number     Number       Type             X           Y           Z
 ---------------------------------------------------------------------
      1         12           0       -7.133544    0.641670    0.261647
      2          6           0       -4.970848   -1.974562    0.643414
      3          6           0       -4.650811    2.735298    1.197501
      4          6           0       -9.287083    3.249245   -0.421067
      5          6           0       -9.485305   -1.589943   -0.917153
      6          7           0       -5.083247    0.302462    0.806705
      7          6           0       -4.334654   -0.812792    0.872538
      8          6           0       -2.939664   -0.499811    1.294857
      9          6           0       -3.006030    0.957138    1.725345
     10          6           0       -4.283093    1.345137    1.211682
     11          6           0       -2.819551    1.074996    3.203014
     12          6           0       -1.997708   -0.797146    0.191831
     13          6           0       -0.452176   -0.579928    0.429386
     14          6           0        0.474352   -0.663464   -0.776873
     15          8           0        0.170870   -0.927267   -1.933308
     16          8           0        1.752940   -0.533047   -0.395188
     17          7           0       -6.982897    2.596939    0.463604
     18          6           0       -5.904023    3.348376    0.873454
     19          6           0       -6.189096    4.759979    0.762333
     20          6           0       -7.487513    4.884885    0.289978
     21          6           0       -7.973267    3.596843    0.062742
     22          6           0       -5.165136    5.714432    1.130614
     23          6           0       -8.220894    6.146534    0.213200
     24          6           0       -8.065969    7.242931    0.916955
     25          7           0       -9.063396    0.744519   -0.463540
     26          6           0       -9.801596    1.887209   -0.583021
     27          6           0      -11.220815    1.641597   -1.041983
     28          6           0      -11.216375    0.298873   -1.238218
     29          6           0       -9.955088   -0.278870   -0.862821
     30          6           0      -12.173586    2.774809   -1.325906
     31          6           0      -12.382162   -0.418690   -1.690017
     32          6           0      -12.213247   -0.928465   -3.255629
     33          7           0       -7.335527   -1.369142   -0.003302
     34          6           0       -8.337887   -2.105630   -0.548457
     35          6           0       -7.924841   -3.573171   -0.583890
     36          6           0       -6.606627   -3.578311   -0.105075
     37          6           0       -6.308805   -2.172796    0.146949
     38          6           0       -8.785281   -4.671508   -0.922456
     39          6           0       -5.422408   -4.476491    0.168033
     40          8           0       -5.303929   -5.637833    0.101032
     41          6           0       -4.362684   -3.370922    0.442778
     42          6           0       -3.601947   -3.832251    1.738338
     43          8           0       -3.675412   -3.405847    2.912347
     44          8           0       -2.838102   -4.896549    1.574687
     45          6           0       -2.150016   -5.489937    2.738845
     46          6           0        2.812428   -0.656924   -1.353017
     47          6           0        4.069878   -0.423545   -0.556974
     48          6           0        5.056936    0.288385   -1.008153
     49          6           0        5.143526    1.144849   -2.273716
     50          6           0        6.344414    0.292558   -0.198749
     51          6           0        7.538366   -0.234120   -0.984820
     52          6           0        8.762523   -0.226603   -0.063383
     53          6           0       10.096181   -0.483234   -0.774536
     54          6           0       10.099000   -1.997916   -1.433165
     55          6           0       11.310028   -0.301811    0.047177
     56          6           0       12.743236   -0.487114   -0.542938
     57          6           0       13.999793   -0.016660    0.465171
     58          6           0       15.179574   -0.128820   -0.370982
     59          6           0       15.566023   -1.566087   -0.833494
     60          6           0       16.376163    0.475006    0.437987
     61          6           0       17.705562    0.762874   -0.224677
     62          6           0       18.701273    1.251201    0.707447
     63          6           0       20.125084    1.289289    0.149046
     64          6           0       20.289514    2.183855   -1.091792
     65          6           0       21.155785    1.697061    1.266491
     66          1           0       -3.934670    3.490113    1.563308
     67          1           0       -9.893302    4.159064   -0.893806
     68          1           0      -10.237560   -2.143963   -1.434924
     69          1           0       -2.594694   -1.152723    2.315100
     70          1           0       -2.097371    1.654116    1.163152
     71          1           0       -1.758784    0.747370    3.531781
     72          1           0       -2.960576    2.044101    3.577544
     73          1           0       -3.613947    0.530181    3.700394
     74          1           0       -2.068267   -1.802204   -0.255106
     75          1           0       -2.286844   -0.331699   -0.677457
     76          1           0       -0.208984    0.525997    0.564784
     77          1           0       -0.109665   -1.484452    1.236264
     78          1           0       -5.356076    6.648906    0.418777
     79          1           0       -5.199063    6.004406    2.126839
     80          1           0       -4.309896    5.463553    1.075298
     81          1           0       -9.052912    6.067143   -0.505366
     82          1           0       -8.937652    8.000233    0.969910
     83          1           0       -7.329060    7.307553    1.616888
     84          1           0      -12.092131    3.181402   -2.400159
     85          1           0      -13.284724    2.389241   -1.156872
     86          1           0      -12.193108    3.660889   -0.582127
     87          1           0      -12.458347   -1.251663   -1.117577
     88          1           0      -13.472458    0.178873   -1.681990
     89          1           0      -13.015031   -1.463386   -3.480960
     90          1           0      -12.133242    0.017863   -3.819133
     91          1           0      -11.399939   -1.525843   -3.415472
     92          1           0       -9.021624   -4.386520   -1.841650
     93          1           0       -8.213357   -5.469949   -0.781127
     94          1           0       -9.827273   -4.625791   -0.375274
     95          1           0       -3.773364   -3.493207   -0.469030
     96          1           0       -1.699886   -4.582685    3.203771
     97          1           0       -3.105857   -6.066826    3.287455
     98          1           0       -1.418953   -6.243264    2.331354
     99          1           0        2.702359   -1.688281   -1.906354
    100          1           0        2.593723   -0.011118   -2.044219
    101          1           0        4.280118   -1.100017    0.307363
    102          1           0        3.950595    1.602639   -2.592450
    103          1           0        6.004419    2.048129   -1.927204
    104          1           0        5.814031    0.754117   -3.242413
    105          1           0        6.661655    1.350991    0.052560
    106          1           0        6.004933   -0.364081    0.614469
    107          1           0        7.164624   -1.342408   -1.435374
    108          1           0        7.984826    0.357843   -1.792699
    109          1           0        8.922404    0.837259    0.428083
    110          1           0        8.600776   -1.059537    0.723897
    111          1           0       10.027011    0.100907   -1.688972
    112          1           0        8.979445   -2.313742   -1.793801
    113          1           0       10.917673   -1.917300   -2.104595
    114          1           0       10.312303   -2.740964   -0.720145
    115          1           0       11.135688    0.762069    0.457754
    116          1           0       11.220620   -0.974281    0.984449
    117          1           0       12.875961   -1.574419   -0.821969
    118          1           0       12.749308    0.157944   -1.477331
    119          1           0       13.803808    1.076503    0.603061
    120          1           0       13.973222   -0.472424    1.451916
    121          1           0       15.056856    0.488024   -1.294635
    122          1           0       15.535421   -2.115497    0.024791
    123          1           0       14.858909   -1.962099   -1.732727
    124          1           0       16.657881   -1.518682   -1.328807
    125          1           0       16.075420    1.573772    0.685292
    126          1           0       16.476021   -0.029901    1.359914
    127          1           0       18.011764   -0.355104   -0.395585
    128          1           0       17.617595    1.169574   -1.205285
    129          1           0       18.552746    2.507169    1.102517
    130          1           0       18.887577    0.889925    1.705223
    131          1           0       20.406717    0.306444   -0.107325
    132          1           0       19.887241    3.171448   -0.822368
    133          1           0       21.307983    2.356756   -1.458119
    134          1           0       19.645764    1.835821   -1.881283
    135          1           0       21.042558    1.229811    2.164277
    136          1           0       22.119195    1.532986    0.943495
    137          1           0       21.125818    2.728747    1.464549
 ---------------------------------------------------------------------

 SCF Done:  E(RCAM-B3LYP) =  -2933.43286173     A.U. after   15 cycles

 Excitation energies and oscillator strengths:

 Excited State   1:      Singlet-A      2.0766 eV  597.05 nm  f=0.1912  <S**2>=0.000
     240 -> 243        0.26295
     241 -> 242        0.64824
 This state for optimization and/or second-order correction.
 Total Energy, E(TD-HF/TD-DFT) =  -2933.35654722
 Copying the excited state density for this state as the 1-particle RhoCI density.

 The electronic state is 1-A.
 Alpha  occ. eigenvalues --  -46.79612 -19.21252 -19.20651 -19.17473 -19.15952
 Alpha  occ. eigenvalues --  -19.14762 -14.37342 -14.35223 -14.35178 -14.34854
 Alpha  occ. eigenvalues --  -10.34208 -10.33858 -10.31193 -10.28616 -10.26996
 Alpha  occ. eigenvalues --  -10.26832 -10.26166 -10.25519 -10.25402 -10.25037
 Alpha  occ. eigenvalues --  -10.24784 -10.24765 -10.24701 -10.24561 -10.24240
 Alpha  occ. eigenvalues --  -10.24137 -10.24109 -10.24088 -10.23849 -10.23831
 Alpha  occ. eigenvalues --  -10.23801 -10.23030 -10.22980 -10.22579 -10.22455
 Alpha  occ. eigenvalues --  -10.22321 -10.22223 -10.22184 -10.22156 -10.22001
 Alpha  occ. eigenvalues --  -10.21999 -10.21891 -10.21831 -10.21722 -10.21715
 Alpha  occ. eigenvalues --  -10.21712 -10.21689 -10.21665 -10.21659 -10.21633
 Alpha  occ. eigenvalues --  -10.21625 -10.21606 -10.21300 -10.21169 -10.21169
 Alpha  occ. eigenvalues --  -10.21160 -10.21146 -10.20873 -10.20529 -10.20359
 Alpha  occ. eigenvalues --  -10.20314 -10.19563 -10.19561 -10.19556 -10.17888
 Alpha  occ. eigenvalues --   -3.08268  -1.83200  -1.82740  -1.82685  -1.12877
 Alpha  occ. eigenvalues --   -1.12076  -1.09673  -1.03335  -1.00603  -1.00341
 Alpha  occ. eigenvalues --   -0.99383  -0.96750  -0.95945  -0.87448  -0.86864
 Alpha  occ. eigenvalues --   -0.85972  -0.85438  -0.84500  -0.84347  -0.84223
 Alpha  occ. eigenvalues --   -0.83586  -0.83567  -0.82885  -0.82503  -0.81432
 Alpha  occ. eigenvalues --   -0.80607  -0.79278  -0.78648  -0.78195  -0.77502
 Alpha  occ. eigenvalues --   -0.76662  -0.76074  -0.75298  -0.74525  -0.74099
 Alpha  occ. eigenvalues --   -0.73190  -0.72568  -0.71863  -0.71781  -0.70459
 Alpha  occ. eigenvalues --   -0.70396  -0.70085  -0.69795  -0.69437  -0.67830
 Alpha  occ. eigenvalues --   -0.67293  -0.66632  -0.65999  -0.65123  -0.63838
 Alpha  occ. eigenvalues --   -0.62713  -0.62385  -0.60789  -0.60278  -0.59727
 Alpha  occ. eigenvalues --   -0.59188  -0.59108  -0.59033  -0.58370  -0.57789
 Alpha  occ. eigenvalues --   -0.57118  -0.56305  -0.55998  -0.55185  -0.54810
 Alpha  occ. eigenvalues --   -0.54466  -0.54143  -0.53602  -0.53268  -0.52677
 Alpha  occ. eigenvalues --   -0.51685  -0.51306  -0.51120  -0.50709  -0.50465
 Alpha  occ. eigenvalues --   -0.50266  -0.50122  -0.50005  -0.49550  -0.49270
 Alpha  occ. eigenvalues --   -0.48682  -0.48494  -0.48480  -0.48214  -0.47952
 Alpha  occ. eigenvalues --   -0.47722  -0.47314  -0.47225  -0.47120  -0.46945
 Alpha  occ. eigenvalues --   -0.46744  -0.46737  -0.46472  -0.46152  -0.46026
 Alpha  occ. eigenvalues --   -0.45816  -0.45659  -0.45495  -0.45318  -0.44871
 Alpha  occ. eigenvalues --   -0.44812  -0.44561  -0.44405  -0.44214  -0.44035
 Alpha  occ. eigenvalues --   -0.43799  -0.43210  -0.43023  -0.42860  -0.42512
 Alpha  occ. eigenvalues --   -0.42270  -0.42142  -0.41981  -0.41807  -0.41432
 Alpha  occ. eigenvalues --   -0.41325  -0.41268  -0.41211  -0.41012  -0.40817
 Alpha  occ. eigenvalues --   -0.40595  -0.40468  -0.40367  -0.40146  -0.39899
 Alpha  occ. eigenvalues --   -0.39699  -0.39612  -0.39584  -0.39168  -0.38769
 Alpha  occ. eigenvalues --   -0.38464  -0.38372  -0.38122  -0.37979  -0.37851
 Alpha  occ. eigenvalues --   -0.37742  -0.37594  -0.37390  -0.37242  -0.36848
 Alpha  occ. eigenvalues --   -0.36760  -0.36452  -0.36367  -0.36171  -0.36047
 Alpha  occ. eigenvalues --   -0.35766  -0.35428  -0.35384  -0.34963  -0.34684
 Alpha  occ. eigenvalues --   -0.34475  -0.34441  -0.33929  -0.33870  -0.33420
 Alpha  occ. eigenvalues --   -0.33311  -0.33239  -0.32905  -0.32617  -0.32347
 Alpha  occ. eigenvalues --   -0.31369  -0.31055  -0.30933  -0.30815  -0.30022
 Alpha  occ. eigenvalues --   -0.29576  -0.29287  -0.28583  -0.27959  -0.27872
 Alpha  occ. eigenvalues --   -0.27313  -0.26977  -0.25711  -0.24685  -0.21245
 Alpha  occ. eigenvalues --   -0.19685
 Alpha virt. eigenvalues --   -0.06363  -0.03771   0.00130   0.02618   0.03602
 Alpha virt. eigenvalues --    0.04258   0.04333   0.04666   0.05194   0.05778
 Alpha virt. eigenvalues --    0.06821   0.08077   0.08574   0.09020   0.09335

 Mulliken charges:
               1
     1  Mg   0.815528
     2  C    0.045973
     3  C   -0.204032
     4  C   -0.185030
     5  C   -0.212445
     6  N   -0.633811
     7  C    0.348137
     8  C   -0.150105
     9  C   -0.128213
    10  C    0.359646
    11  C   -0.305783
    12  C   -0.179863
    13  C   -0.234477
    14  C    0.569120
    15  O   -0.486297
    16  O   -0.463262
    17  N   -0.724415
    18  C    0.319348
    19  C    0.001366
    20  C    0.037972
    21  C    0.269436
    22  C   -0.348521
    23  C   -0.049920
    24  C   -0.242606
    25  N   -0.672355
    26  C    0.270028
    27  C    0.060770
    28  C    0.060690
    29  C    0.277586
    30  C   -0.386942
    31  C   -0.271269
    32  C   -0.324430
    33  N   -0.703567
    34  C    0.329215
    35  C   -0.020274
    36  C   -0.008279
    37  C    0.287790
    38  C   -0.346000
    39  C    0.385134
    40  O   -0.415182
    41  C   -0.338456
    42  C    0.601170
    43  O   -0.512491
    44  O   -0.445105
    45  C   -0.068874
    46  C    0.035065
    47  C   -0.144826
    48  C    0.173125
    49  C   -0.331829
    50  C   -0.220057
    51  C   -0.157257
    52  C   -0.155185
    53  C   -0.064398
    54  C   -0.325542
    55  C   -0.158406
    56  C   -0.197150
    57  C   -0.168528
    58  C   -0.048485
    59  C   -0.297673
    60  C   -0.180858
    61  C   -0.169651
    62  C   -0.128086
    63  C   -0.059733
    64  C   -0.314696
    65  C   -0.334516
    66  H    0.063928
    67  H    0.091472
    68  H    0.067535
    69  H    0.112355
    70  H    0.075488
    71  H    0.105558
    72  H    0.111547
    73  H    0.129295
    74  H    0.114705
    75  H    0.126246
    76  H    0.129196
    77  H    0.117858
    78  H    0.101653
    79  H    0.125665
    80  H    0.112463
    81  H    0.074720
    82  H    0.098525
    83  H    0.101399
    84  H    0.123960
    85  H    0.098390
    86  H    0.119653
    87  H    0.113265
    88  H    0.079430
    89  H    0.115247
    90  H    0.111360
    91  H    0.114315
    92  H    0.141764
    93  H    0.142685
    94  H    0.117834
    95  H    0.166494
    96  H    0.142036
    97  H    0.124154
    98  H    0.129149
    99  H    0.113632
   100  H    0.117645
   101  H    0.093832
   102  H    0.088666
   103  H    0.073521
   104  H    0.118662
   105  H    0.098077
   106  H    0.096701
   107  H    0.071987
   108  H    0.097114
   109  H    0.072834
   110  H    0.082602
   111  H    0.079822
   112  H    0.077608
   113  H    0.110037
   114  H    0.107186
   115  H    0.068360
   116  H    0.078773
   117  H    0.100588
   118  H    0.087836
   119  H    0.100195
   120  H    0.097775
   121  H    0.081298
   122  H    0.114334
   123  H    0.085986
   124  H    0.085610
   125  H    0.070175
   126  H    0.092562
   127  H    0.078476
   128  H    0.107944
   129  H    0.017755
   130  H    0.103589
   131  H    0.091328
   132  H    0.099051
   133  H    0.100257
   134  H    0.099937
   135  H    0.101803
   136  H    0.104360
   137  H    0.104512
 Sum of Mulliken charges =  -0.00000

 Dipole moment (field-independent basis, Debye):
    X=              2.3198    Y=              2.7051    Z=             -0.0306  Tot=              3.5637
 Quadrupole moment (field-independent basis, Debye-Ang):
   XX=           -337.1519   YY=           -394.8504   ZZ=           -400.0343
   XY=            -19.1306   XZ=             15.0746   YZ=              0.5744

 Normal termination of Gaussian 16 at Sat Sep  7 11:01:11 2019.
