 Gaussian 09, Revision D.01,
 Gaussian 09:  ES64L-G09RevD.01 24-Apr-2013

 -------------------------------------
 # td=(NStates=1) CAM-B3LYP/6-31G(d,p)
 -------------------------------------

 --
 TD
 --
 Symbolic Z-matrix:
 Charge =  0 Multiplicity = 1

                         Standard orientation:
 ---------------------------------------------------------------------
 Center     Atomic      Atomic             Coordinates (Angstroms)
 Number     Number       Type             X           Y           Z
 ---------------------------------------------------------------------
      1         12           0       -7.117828    0.595156    0.110733
      2          6           0       -4.813163   -2.007534    0.370412
      3          6           0       -4.658430    2.832919    1.118173
      4          6           0       -9.366623    3.171143   -0.306798
      5          6           0       -9.487974   -1.674223   -0.720565
      6          7           0       -5.088006    0.495055    0.696745
      7          6           0       -4.344756   -0.712302    0.722484
      8          6           0       -2.845487   -0.434693    1.202047
      9          6           0       -2.916147    1.003104    1.687915
     10          6           0       -4.259330    1.502415    1.164294
     11          6           0       -2.960855    1.130960    3.256813
     12          6           0       -1.801759   -0.631611    0.037056
     13          6           0       -0.382336   -0.588059    0.611079
     14          6           0        0.543133   -0.708724   -0.591682
     15          8           0        0.122624   -1.048336   -1.699469
     16          8           0        1.750823   -0.509870   -0.213429
     17          7           0       -7.046570    2.598282    0.421450
     18          6           0       -5.991042    3.310473    0.886423
     19          6           0       -6.384564    4.762182    0.906901
     20          6           0       -7.658759    4.809006    0.452201
     21          6           0       -8.086374    3.470070    0.161038
     22          6           0       -5.335028    5.757010    1.341134
     23          6           0       -8.382694    6.080064    0.005507
     24          6           0       -8.231239    7.290257    0.739687
     25          7           0       -9.086338    0.791563   -0.517851
     26          6           0       -9.900736    1.915104   -0.699724
     27          6           0      -11.130626    1.493189   -1.148220
     28          6           0      -11.172564    0.152002   -1.302279
     29          6           0       -9.951137   -0.269104   -0.846852
     30          6           0      -12.266955    2.467552   -1.530171
     31          6           0      -12.379551   -0.597820   -1.696198
     32          6           0      -12.286871   -0.956339   -3.276641
     33          7           0       -7.163808   -1.324721   -0.236292
     34          6           0       -8.181946   -2.156621   -0.584834
     35          6           0       -7.769811   -3.601501   -0.563983
     36          6           0       -6.386709   -3.491886   -0.173765
     37          6           0       -6.061300   -2.154470    0.033268
     38          6           0       -8.622606   -4.843725   -0.833276
     39          6           0       -5.233969   -4.398554    0.005654
     40          8           0       -5.121761   -5.548872   -0.067602
     41          6           0       -4.091931   -3.418552    0.472296
     42          6           0       -3.657057   -3.787308    1.862668
     43          8           0       -3.862177   -3.172213    2.911419
     44          8           0       -2.840667   -4.929864    1.809911
     45          6           0       -2.368583   -5.299179    3.206952
     46          6           0        2.763110   -0.665239   -1.204304
     47          6           0        4.138857   -0.519016   -0.651149
     48          6           0        5.062158    0.377624   -0.890287
     49          6           0        5.029106    1.388504   -2.067249
     50          6           0        6.373597    0.484925   -0.139683
     51          6           0        7.544512   -0.191541   -0.955955
     52          6           0        8.792465   -0.181079   -0.200830
     53          6           0       10.128533   -0.683872   -0.819990
     54          6           0        9.977672   -2.091974   -1.278344
     55          6           0       11.433768   -0.349234    0.041268
     56          6           0       12.693695   -0.546292   -0.734532
     57          6           0       13.868335   -0.216053    0.306475
     58          6           0       15.299110   -0.153885   -0.465504
     59          6           0       15.529203   -1.625189   -0.842606
     60          6           0       16.366859    0.459426    0.371800
     61          6           0       17.728817    0.658606   -0.247601
     62          6           0       18.679472    1.411807    0.656023
     63          6           0       20.157381    1.418380    0.189867
     64          6           0       20.335790    2.040655   -1.217340
     65          6           0       20.989301    1.982345    1.328340
     66          1           0       -4.070116    3.384722    1.796629
     67          1           0      -10.178285    3.895106   -0.420232
     68          1           0      -10.284872   -2.270427   -1.031439
     69          1           0       -2.536116   -1.131900    2.006456
     70          1           0       -1.952406    1.693680    1.325851
     71          1           0       -2.016940    0.868889    3.573514
     72          1           0       -2.979286    2.154338    3.481684
     73          1           0       -3.642344    0.382758    3.835834
     74          1           0       -1.954444   -1.704131   -0.604073
     75          1           0       -1.959555   -0.033900   -0.659495
     76          1           0       -0.216563    0.371923    1.097240
     77          1           0        0.069381   -1.192327    1.412364
     78          1           0       -5.479802    6.743541    1.018173
     79          1           0       -5.399954    5.510828    2.388236
     80          1           0       -4.333447    5.513183    0.966841
     81          1           0       -9.002922    6.134663   -0.648418
     82          1           0       -8.901634    8.192506    0.276927
     83          1           0       -7.461364    7.360424    1.526792
     84          1           0      -12.016470    3.201899   -2.394151
     85          1           0      -13.296902    1.989310   -1.545987
     86          1           0      -12.303845    3.304986   -0.743767
     87          1           0      -12.487025   -1.660952   -1.345651
     88          1           0      -13.458166   -0.111370   -1.637386
     89          1           0      -13.290160   -1.286055   -3.721719
     90          1           0      -12.056505   -0.014562   -3.763218
     91          1           0      -11.557018   -1.688810   -3.502452
     92          1           0       -9.232792   -4.709507   -1.839000
     93          1           0       -8.044664   -5.650714   -0.879135
     94          1           0       -9.274662   -4.853047   -0.081611
     95          1           0       -3.344586   -3.285895   -0.169908
     96          1           0       -1.801197   -4.592807    3.628867
     97          1           0       -2.849183   -5.619066    4.077530
     98          1           0       -1.608054   -6.021344    2.656064
     99          1           0        2.617291   -1.760992   -1.664521
    100          1           0        2.710226    0.101125   -1.813965
    101          1           0        4.421838   -1.148140    0.227943
    102          1           0        4.081024    1.668550   -2.490449
    103          1           0        5.541399    2.197108   -1.825321
    104          1           0        5.512435    1.333117   -3.070950
    105          1           0        6.742496    1.452638    0.224516
    106          1           0        6.072395    0.033842    0.784585
    107          1           0        7.185255   -1.179642   -1.500185
    108          1           0        7.613991    0.487804   -1.766744
    109          1           0        9.140903    0.805489    0.177479
    110          1           0        8.703091   -0.869006    0.699029
    111          1           0       10.219128   -0.221901   -1.868926
    112          1           0        9.117856   -2.484552   -1.864539
    113          1           0       10.737364   -2.497208   -1.845172
    114          1           0        9.860860   -2.640892   -0.414997
    115          1           0       11.181158    0.658880    0.298679
    116          1           0       11.104798   -1.148968    0.862756
    117          1           0       12.728036   -1.502716   -1.097329
    118          1           0       12.966931    0.120145   -1.630528
    119          1           0       13.714498    0.731722    0.760530
    120          1           0       13.800738   -0.891477    1.334587
    121          1           0       15.213542    0.643745   -1.217205
    122          1           0       15.931226   -1.888507    0.183356
    123          1           0       14.640219   -2.137437   -1.444635
    124          1           0       16.472820   -1.554674   -1.476475
    125          1           0       16.087739    1.428712    0.735774
    126          1           0       16.446512   -0.295120    1.235446
    127          1           0       18.165058   -0.544824   -0.522011
    128          1           0       17.761720    1.153770   -1.208743
    129          1           0       18.304952    2.442464    0.602549
    130          1           0       18.651152    0.953222    1.640470
    131          1           0       20.386397    0.428315   -0.015125
    132          1           0       20.098495    2.987375   -1.026945
    133          1           0       21.445035    2.081077   -1.591293
    134          1           0       19.659469    1.662731   -2.043079
    135          1           0       20.881263    1.461579    2.117811
    136          1           0       21.970968    2.157862    1.202432
    137          1           0       20.352092    3.024118    1.541574
 ---------------------------------------------------------------------

 SCF Done:  E(RCAM-B3LYP) =  -2932.54962701     A.U. after   15 cycles

 Excitation energies and oscillator strengths:

 Excited State   1:      Singlet-A      2.0851 eV  594.63 nm  f=0.1697  <S**2>=0.000
     240 -> 243        0.28519
     241 -> 242        0.63548
 This state for optimization and/or second-order correction.
 Total Energy, E(TD-HF/TD-KS) =  -2932.47300214
 Copying the excited state density for this state as the 1-particle RhoCI density.

 The electronic state is 1-A.
 Alpha  occ. eigenvalues --  -46.82825 -19.27901 -19.26738 -19.21894 -19.21509
 Alpha  occ. eigenvalues --  -19.20289 -14.41929 -14.39252 -14.39046 -14.37763
 Alpha  occ. eigenvalues --  -10.39942 -10.38977 -10.35432 -10.32557 -10.32039
 Alpha  occ. eigenvalues --  -10.30917 -10.30735 -10.30015 -10.29797 -10.29575
 Alpha  occ. eigenvalues --  -10.29381 -10.28680 -10.28571 -10.28330 -10.28066
 Alpha  occ. eigenvalues --  -10.27914 -10.27794 -10.27572 -10.27448 -10.27314
 Alpha  occ. eigenvalues --  -10.27273 -10.27100 -10.26868 -10.26802 -10.26647
 Alpha  occ. eigenvalues --  -10.26604 -10.26589 -10.26488 -10.26423 -10.26380
 Alpha  occ. eigenvalues --  -10.26375 -10.26342 -10.26279 -10.26154 -10.26153
 Alpha  occ. eigenvalues --  -10.26146 -10.25911 -10.25881 -10.25874 -10.25829
 Alpha  occ. eigenvalues --  -10.25686 -10.25621 -10.25488 -10.25219 -10.25121
 Alpha  occ. eigenvalues --  -10.25109 -10.24993 -10.24957 -10.24920 -10.24875
 Alpha  occ. eigenvalues --  -10.24663 -10.24574 -10.24404 -10.23588 -10.22694
 Alpha  occ. eigenvalues --   -3.12045  -1.86738  -1.86284  -1.86243  -1.21262
 Alpha  occ. eigenvalues --   -1.16063  -1.15070  -1.09106  -1.07800  -1.03504
 Alpha  occ. eigenvalues --   -1.02874  -1.01826  -1.01192  -0.93423  -0.92298
 Alpha  occ. eigenvalues --   -0.91091  -0.90404  -0.89740  -0.88778  -0.88337
 Alpha  occ. eigenvalues --   -0.87915  -0.87348  -0.86935  -0.86543  -0.86026
 Alpha  occ. eigenvalues --   -0.85352  -0.84352  -0.83595  -0.82916  -0.82287
 Alpha  occ. eigenvalues --   -0.81590  -0.81004  -0.80610  -0.80212  -0.79010
 Alpha  occ. eigenvalues --   -0.78116  -0.77705  -0.77577  -0.77311  -0.76319
 Alpha  occ. eigenvalues --   -0.75557  -0.74874  -0.74475  -0.73973  -0.72010
 Alpha  occ. eigenvalues --   -0.71758  -0.70804  -0.69811  -0.68943  -0.68344
 Alpha  occ. eigenvalues --   -0.67274  -0.66310  -0.65617  -0.64982  -0.64923
 Alpha  occ. eigenvalues --   -0.64739  -0.64326  -0.63219  -0.62851  -0.62058
 Alpha  occ. eigenvalues --   -0.61950  -0.61412  -0.60431  -0.60118  -0.59113
 Alpha  occ. eigenvalues --   -0.58764  -0.58683  -0.58283  -0.58105  -0.57159
 Alpha  occ. eigenvalues --   -0.56584  -0.55834  -0.55365  -0.55250  -0.54794
 Alpha  occ. eigenvalues --   -0.54480  -0.54145  -0.54026  -0.53777  -0.53541
 Alpha  occ. eigenvalues --   -0.53242  -0.52526  -0.52246  -0.52012  -0.51920
 Alpha  occ. eigenvalues --   -0.51607  -0.51414  -0.51066  -0.50963  -0.50862
 Alpha  occ. eigenvalues --   -0.50781  -0.50219  -0.49994  -0.49740  -0.49627
 Alpha  occ. eigenvalues --   -0.49475  -0.49056  -0.48721  -0.48615  -0.48531
 Alpha  occ. eigenvalues --   -0.47764  -0.47661  -0.47458  -0.47345  -0.47088
 Alpha  occ. eigenvalues --   -0.46969  -0.46842  -0.46313  -0.46237  -0.46070
 Alpha  occ. eigenvalues --   -0.45838  -0.45700  -0.45337  -0.45219  -0.45091
 Alpha  occ. eigenvalues --   -0.44938  -0.44744  -0.44671  -0.44277  -0.44146
 Alpha  occ. eigenvalues --   -0.44038  -0.43870  -0.43740  -0.43307  -0.43261
 Alpha  occ. eigenvalues --   -0.43010  -0.42892  -0.42815  -0.42346  -0.42195
 Alpha  occ. eigenvalues --   -0.41980  -0.41860  -0.41618  -0.41470  -0.41352
 Alpha  occ. eigenvalues --   -0.41169  -0.40957  -0.40794  -0.40616  -0.40430
 Alpha  occ. eigenvalues --   -0.40105  -0.39828  -0.39603  -0.39527  -0.39287
 Alpha  occ. eigenvalues --   -0.38850  -0.38767  -0.38487  -0.38354  -0.38092
 Alpha  occ. eigenvalues --   -0.37703  -0.37645  -0.37212  -0.36867  -0.36725
 Alpha  occ. eigenvalues --   -0.36409  -0.36305  -0.36226  -0.35996  -0.35870
 Alpha  occ. eigenvalues --   -0.35615  -0.34584  -0.34560  -0.34272  -0.33731
 Alpha  occ. eigenvalues --   -0.33356  -0.32507  -0.32141  -0.30712  -0.30660
 Alpha  occ. eigenvalues --   -0.30317  -0.29159  -0.27214  -0.26641  -0.23031
 Alpha  occ. eigenvalues --   -0.20816
 Alpha virt. eigenvalues --   -0.05507  -0.03461   0.01425   0.04183   0.05159
 Alpha virt. eigenvalues --    0.05385   0.06444   0.06979   0.07306   0.07452
 Alpha virt. eigenvalues --    0.08554   0.11012   0.11387   0.11694   0.11862

 Mulliken charges:
               1
     1  Mg   0.814589
     2  C   -0.034238
     3  C   -0.188660
     4  C   -0.158515
     5  C   -0.157687
     6  N   -0.621934
     7  C    0.277032
     8  C   -0.151023
     9  C   -0.156930
    10  C    0.331828
    11  C   -0.310147
    12  C   -0.135808
    13  C   -0.288557
    14  C    0.617500
    15  O   -0.501371
    16  O   -0.437446
    17  N   -0.688286
    18  C    0.290639
    19  C   -0.004991
    20  C   -0.005076
    21  C    0.299488
    22  C   -0.367474
    23  C   -0.026115
    24  C   -0.252387
    25  N   -0.679241
    26  C    0.276858
    27  C    0.008183
    28  C    0.118439
    29  C    0.213836
    30  C   -0.377310
    31  C   -0.277442
    32  C   -0.324161
    33  N   -0.745433
    34  C    0.283937
    35  C    0.005803
    36  C   -0.055394
    37  C    0.391258
    38  C   -0.345653
    39  C    0.370116
    40  O   -0.400529
    41  C   -0.280146
    42  C    0.635060
    43  O   -0.475439
    44  O   -0.474672
    45  C   -0.095859
    46  C    0.044205
    47  C   -0.150816
    48  C    0.122012
    49  C   -0.386706
    50  C   -0.237972
    51  C   -0.165266
    52  C   -0.157831
    53  C   -0.108169
    54  C   -0.312875
    55  C   -0.159838
    56  C   -0.170477
    57  C   -0.176481
    58  C   -0.074766
    59  C   -0.286900
    60  C   -0.172192
    61  C   -0.163317
    62  C   -0.171623
    63  C   -0.068178
    64  C   -0.319076
    65  C   -0.284017
    66  H    0.075051
    67  H    0.086738
    68  H    0.074428
    69  H    0.121375
    70  H    0.091946
    71  H    0.112062
    72  H    0.114801
    73  H    0.130474
    74  H    0.093283
    75  H    0.127142
    76  H    0.126689
    77  H    0.140053
    78  H    0.120167
    79  H    0.135241
    80  H    0.123505
    81  H    0.062443
    82  H    0.091181
    83  H    0.109731
    84  H    0.114727
    85  H    0.110449
    86  H    0.102137
    87  H    0.107679
    88  H    0.104478
    89  H    0.087325
    90  H    0.116466
    91  H    0.115783
    92  H    0.111520
    93  H    0.150594
    94  H    0.148344
    95  H    0.166592
    96  H    0.135474
    97  H    0.144998
    98  H    0.117617
    99  H    0.123567
   100  H    0.119502
   101  H    0.079749
   102  H    0.110908
   103  H    0.123624
   104  H    0.115450
   105  H    0.107580
   106  H    0.098571
   107  H    0.098399
   108  H    0.109754
   109  H    0.084515
   110  H    0.078547
   111  H    0.060884
   112  H    0.095900
   113  H    0.103271
   114  H    0.094271
   115  H    0.102861
   116  H    0.090093
   117  H    0.112433
   118  H    0.097426
   119  H    0.091684
   120  H    0.062225
   121  H    0.076660
   122  H    0.105426
   123  H    0.104243
   124  H    0.094024
   125  H    0.093984
   126  H    0.076524
   127  H    0.036253
   128  H    0.095420
   129  H    0.090159
   130  H    0.098095
   131  H    0.097026
   132  H    0.112361
   133  H    0.086170
   134  H    0.101479
   135  H    0.118334
   136  H    0.105817
   137  H    0.059967
 Sum of Mulliken charges =   0.00000

 Dipole moment (field-independent basis, Debye):
    X=              4.6664    Y=              3.2642    Z=              1.3340  Tot=              5.8489
 Quadrupole moment (field-independent basis, Debye-Ang):
   XX=           -359.8709   YY=           -395.9085   ZZ=           -393.7801
   XY=              2.1275   XZ=              7.6129   YZ=             -5.3358

 Normal termination of Gaussian 09 at Wed Jul  3 01:43:43 2019.
