 Gaussian 16, Revision A.03,
 Gaussian 16:  ES64L-G16RevA.03 25-Dec-2016

 ----------------------------------------------------------------------
 # td=(NStates=1) iop(3/107=0140000000,3/108=0140000000) CAM-B3LYP/6-31
 G(d,p)
 ----------------------------------------------------------------------

 --
 TD
 --
 Symbolic Z-matrix:
 Charge =  0 Multiplicity = 1

                         Standard orientation:
 ---------------------------------------------------------------------
 Center     Atomic      Atomic             Coordinates (Angstroms)
 Number     Number       Type             X           Y           Z
 ---------------------------------------------------------------------
      1         12           0       -7.196899    0.505891    0.061873
      2          6           0       -4.788576   -1.911291    0.375494
      3          6           0       -4.798042    2.833203    1.198834
      4          6           0       -9.356678    3.031964   -0.436748
      5          6           0       -9.514034   -1.706006   -0.874918
      6          7           0       -5.111405    0.405830    0.687298
      7          6           0       -4.311597   -0.754835    0.678881
      8          6           0       -2.870795   -0.384600    1.163147
      9          6           0       -3.080264    1.068707    1.662369
     10          6           0       -4.516121    1.471228    1.223723
     11          6           0       -2.981191    1.267241    3.254120
     12          6           0       -1.907990   -0.522326    0.027512
     13          6           0       -0.534508   -0.291519    0.571091
     14          6           0        0.470468   -0.568036   -0.562970
     15          8           0        0.203987   -0.918084   -1.689378
     16          8           0        1.755363   -0.362732   -0.199592
     17          7           0       -7.127386    2.611295    0.283662
     18          6           0       -6.131921    3.361411    0.857875
     19          6           0       -6.454507    4.738900    0.814486
     20          6           0       -7.765369    4.805042    0.292890
     21          6           0       -8.199847    3.465097    0.023562
     22          6           0       -5.525340    5.870016    1.193822
     23          6           0       -8.630625    5.997501    0.138170
     24          6           0       -8.447915    7.223460    0.768008
     25          7           0       -9.114385    0.668196   -0.649428
     26          6           0       -9.862274    1.737334   -0.735812
     27          6           0      -11.252204    1.453876   -1.113097
     28          6           0      -11.315101    0.086550   -1.184219
     29          6           0       -9.920044   -0.391281   -0.896966
     30          6           0      -12.386575    2.339638   -1.302119
     31          6           0      -12.453071   -0.850289   -1.654537
     32          6           0      -12.310539   -1.092339   -3.187376
     33          7           0       -7.198213   -1.378183   -0.152446
     34          6           0       -8.190951   -2.180358   -0.642481
     35          6           0       -7.818354   -3.576152   -0.524896
     36          6           0       -6.472219   -3.518850   -0.144732
     37          6           0       -6.162883   -2.210450    0.122074
     38          6           0       -8.479803   -4.801698   -0.875579
     39          6           0       -5.338303   -4.386621    0.244421
     40          8           0       -5.164628   -5.582866    0.294583
     41          6           0       -4.079969   -3.321171    0.550056
     42          6           0       -3.486615   -3.672720    1.887631
     43          8           0       -3.694080   -3.127082    2.938928
     44          8           0       -2.694530   -4.838672    1.687297
     45          6           0       -2.035130   -5.194289    3.006533
     46          6           0        2.798582   -0.549238   -1.204198
     47          6           0        4.073158   -0.427621   -0.523555
     48          6           0        5.145809    0.421755   -0.910753
     49          6           0        5.106268    1.402465   -2.086743
     50          6           0        6.385486    0.415321   -0.107067
     51          6           0        7.587313   -0.190354   -0.834189
     52          6           0        8.865950   -0.185154   -0.037800
     53          6           0       10.137810   -0.628587   -0.802709
     54          6           0       10.083733   -2.099097   -1.387026
     55          6           0       11.493737   -0.348647   -0.084378
     56          6           0       12.858459   -0.526776   -0.712401
     57          6           0       13.941978   -0.049756    0.144063
     58          6           0       15.426071   -0.239509   -0.451337
     59          6           0       15.642079   -1.758784   -0.774667
     60          6           0       16.454489    0.416817    0.432196
     61          6           0       17.797795    0.632897   -0.232148
     62          6           0       18.832575    1.256204    0.636001
     63          6           0       20.339621    1.349970    0.140730
     64          6           0       20.317647    2.019496   -1.156876
     65          6           0       21.143891    1.992119    1.312656
     66          1           0       -4.066992    3.555722    1.521619
     67          1           0      -10.113849    3.870021   -0.852264
     68          1           0      -10.218294   -2.617765   -1.183934
     69          1           0       -2.863481   -0.993205    1.989236
     70          1           0       -2.108161    1.760097    1.341294
     71          1           0       -1.991105    0.693866    3.455291
     72          1           0       -3.191403    2.261712    3.568758
     73          1           0       -3.610263    0.439352    3.599508
     74          1           0       -1.891591   -1.598995   -0.208988
     75          1           0       -2.002287    0.180867   -0.727694
     76          1           0       -0.394304    0.676614    0.853523
     77          1           0       -0.218061   -0.822902    1.427649
     78          1           0       -5.816778    6.740428    0.627509
     79          1           0       -5.887636    6.006109    2.393425
     80          1           0       -4.467121    5.717665    0.975306
     81          1           0       -9.413839    5.807077   -0.491557
     82          1           0       -8.967442    8.061450    0.254246
     83          1           0       -7.614836    7.524860    1.438449
     84          1           0      -12.304026    2.994265   -2.324871
     85          1           0      -13.256904    1.897254   -1.478605
     86          1           0      -12.598327    3.129101   -0.488452
     87          1           0      -12.127723   -1.951765   -1.301308
     88          1           0      -13.341772   -0.614132   -1.534609
     89          1           0      -13.214639   -1.741240   -3.438278
     90          1           0      -12.381686   -0.138359   -3.706642
     91          1           0      -11.385465   -1.364940   -3.515927
     92          1           0       -9.068647   -4.620051   -2.012992
     93          1           0       -7.876417   -5.722174   -0.999190
     94          1           0       -9.075548   -5.130364    0.031886
     95          1           0       -3.311380   -3.631000   -0.101456
     96          1           0       -1.748706   -4.111901    3.661605
     97          1           0       -2.858389   -5.816674    3.512030
     98          1           0       -1.328028   -5.776116    2.557069
     99          1           0        2.534421   -1.616875   -1.840538
    100          1           0        2.748108    0.383800   -1.937177
    101          1           0        4.392538   -1.208765    0.319260
    102          1           0        4.126371    1.665671   -2.430293
    103          1           0        5.743453    2.415527   -1.861480
    104          1           0        5.717610    0.959778   -2.953634
    105          1           0        6.585428    1.580519    0.242048
    106          1           0        6.161518   -0.237106    0.712851
    107          1           0        7.349272   -1.106300   -1.308034
    108          1           0        7.760214    0.474982   -1.697934
    109          1           0        9.138857    0.768153    0.319709
    110          1           0        8.716558   -0.814760    0.916104
    111          1           0       10.141414    0.029307   -1.650702
    112          1           0        9.093478   -2.321417   -1.872736
    113          1           0       10.905175   -2.359305   -2.029838
    114          1           0       10.139572   -2.948018   -0.682703
    115          1           0       11.297955    0.728184    0.428437
    116          1           0       11.539610   -0.961712    0.828244
    117          1           0       13.079412   -1.592020   -0.977773
    118          1           0       12.875566    0.197834   -1.682501
    119          1           0       13.744380    1.086888    0.429455
    120          1           0       13.792088   -0.648150    1.133696
    121          1           0       15.539076    0.125827   -1.384344
    122          1           0       15.637005   -2.488085   -0.042743
    123          1           0       14.964438   -1.880105   -1.500603
    124          1           0       16.677837   -1.788944   -1.198961
    125          1           0       16.073503    1.403040    0.796438
    126          1           0       16.696312   -0.109196    1.335102
    127          1           0       18.237676   -0.266166   -0.667097
    128          1           0       17.734689    1.287573   -1.138820
    129          1           0       18.601746    2.314072    0.869546
    130          1           0       19.006081    0.906577    1.616448
    131          1           0       20.761870    0.394028    0.101700
    132          1           0       19.946919    3.163241   -1.126003
    133          1           0       21.343291    2.053844   -1.590855
    134          1           0       19.784293    1.598697   -1.988570
    135          1           0       21.255857    1.305327    2.142222
    136          1           0       22.067039    2.402083    1.015851
    137          1           0       20.636702    2.932785    1.665508
 ---------------------------------------------------------------------

 SCF Done:  E(RCAM-B3LYP) =  -2933.54151465     A.U. after   15 cycles

 Excitation energies and oscillator strengths:

 Excited State   1:      Singlet-A      2.1716 eV  570.93 nm  f=0.2337  <S**2>=0.000
     240 -> 242       -0.10684
     240 -> 243        0.23869
     241 -> 242        0.64923
 This state for optimization and/or second-order correction.
 Total Energy, E(TD-HF/TD-DFT) =  -2933.46170942
 Copying the excited state density for this state as the 1-particle RhoCI density.

 The electronic state is 1-A.
 Alpha  occ. eigenvalues --  -46.79529 -19.20919 -19.20768 -19.17145 -19.16567
 Alpha  occ. eigenvalues --  -19.15812 -14.36551 -14.35927 -14.35079 -14.34793
 Alpha  occ. eigenvalues --  -10.33901 -10.33516 -10.30963 -10.29110 -10.27514
 Alpha  occ. eigenvalues --  -10.26048 -10.25493 -10.25490 -10.24881 -10.24725
 Alpha  occ. eigenvalues --  -10.24604 -10.24474 -10.24412 -10.24231 -10.24077
 Alpha  occ. eigenvalues --  -10.23623 -10.23611 -10.23489 -10.23394 -10.23341
 Alpha  occ. eigenvalues --  -10.23249 -10.23041 -10.23011 -10.22958 -10.22947
 Alpha  occ. eigenvalues --  -10.22847 -10.22683 -10.22611 -10.22506 -10.22421
 Alpha  occ. eigenvalues --  -10.22342 -10.22296 -10.22107 -10.21945 -10.21916
 Alpha  occ. eigenvalues --  -10.21902 -10.21746 -10.21667 -10.21664 -10.21523
 Alpha  occ. eigenvalues --  -10.21438 -10.21161 -10.21151 -10.21124 -10.21043
 Alpha  occ. eigenvalues --  -10.20892 -10.20628 -10.20529 -10.20405 -10.20280
 Alpha  occ. eigenvalues --  -10.20249 -10.20035 -10.19875 -10.19302 -10.18748
 Alpha  occ. eigenvalues --   -3.08291  -1.83220  -1.82750  -1.82729  -1.12163
 Alpha  occ. eigenvalues --   -1.10518  -1.06383  -1.03265  -1.03042  -1.00600
 Alpha  occ. eigenvalues --   -0.99322  -0.97905  -0.96997  -0.86757  -0.86104
 Alpha  occ. eigenvalues --   -0.85680  -0.85451  -0.84446  -0.84218  -0.83754
 Alpha  occ. eigenvalues --   -0.83236  -0.83082  -0.82993  -0.82009  -0.80873
 Alpha  occ. eigenvalues --   -0.80078  -0.79660  -0.79013  -0.78277  -0.77813
 Alpha  occ. eigenvalues --   -0.76805  -0.76199  -0.75612  -0.75273  -0.73383
 Alpha  occ. eigenvalues --   -0.73028  -0.72552  -0.71642  -0.71527  -0.70944
 Alpha  occ. eigenvalues --   -0.70880  -0.70302  -0.69778  -0.68344  -0.67648
 Alpha  occ. eigenvalues --   -0.66708  -0.65935  -0.65869  -0.64297  -0.63832
 Alpha  occ. eigenvalues --   -0.63084  -0.62494  -0.60979  -0.60646  -0.60169
 Alpha  occ. eigenvalues --   -0.59334  -0.59315  -0.58735  -0.58314  -0.58272
 Alpha  occ. eigenvalues --   -0.57251  -0.55872  -0.55713  -0.55153  -0.54726
 Alpha  occ. eigenvalues --   -0.54609  -0.53980  -0.53794  -0.52648  -0.52390
 Alpha  occ. eigenvalues --   -0.52305  -0.52040  -0.51109  -0.50656  -0.50316
 Alpha  occ. eigenvalues --   -0.50198  -0.50123  -0.50019  -0.49853  -0.48974
 Alpha  occ. eigenvalues --   -0.48788  -0.48538  -0.48365  -0.47918  -0.47656
 Alpha  occ. eigenvalues --   -0.47401  -0.47325  -0.47182  -0.46932  -0.46732
 Alpha  occ. eigenvalues --   -0.46594  -0.46285  -0.46160  -0.45944  -0.45899
 Alpha  occ. eigenvalues --   -0.45747  -0.45274  -0.45096  -0.44918  -0.44568
 Alpha  occ. eigenvalues --   -0.44518  -0.44412  -0.44113  -0.43956  -0.43711
 Alpha  occ. eigenvalues --   -0.43573  -0.43402  -0.43180  -0.42755  -0.42629
 Alpha  occ. eigenvalues --   -0.42432  -0.42303  -0.42117  -0.41938  -0.41575
 Alpha  occ. eigenvalues --   -0.41450  -0.41123  -0.41034  -0.40952  -0.40600
 Alpha  occ. eigenvalues --   -0.40418  -0.40358  -0.40267  -0.40246  -0.39902
 Alpha  occ. eigenvalues --   -0.39698  -0.39371  -0.39347  -0.39160  -0.39093
 Alpha  occ. eigenvalues --   -0.38963  -0.38781  -0.38433  -0.38278  -0.38139
 Alpha  occ. eigenvalues --   -0.38103  -0.37926  -0.37859  -0.37381  -0.37265
 Alpha  occ. eigenvalues --   -0.37176  -0.36651  -0.36447  -0.36196  -0.35924
 Alpha  occ. eigenvalues --   -0.35652  -0.35455  -0.34972  -0.34754  -0.34607
 Alpha  occ. eigenvalues --   -0.34468  -0.34140  -0.33972  -0.33637  -0.33407
 Alpha  occ. eigenvalues --   -0.33378  -0.33019  -0.32902  -0.32587  -0.32245
 Alpha  occ. eigenvalues --   -0.32019  -0.31837  -0.31787  -0.30866  -0.30540
 Alpha  occ. eigenvalues --   -0.30109  -0.29698  -0.29381  -0.28609  -0.27117
 Alpha  occ. eigenvalues --   -0.26597  -0.26494  -0.25943  -0.24393  -0.21538
 Alpha  occ. eigenvalues --   -0.20831
 Alpha virt. eigenvalues --   -0.07248  -0.03689   0.00271   0.02017   0.02082
 Alpha virt. eigenvalues --    0.04022   0.04894   0.05016   0.05290   0.05674
 Alpha virt. eigenvalues --    0.06760   0.08559   0.09279   0.09647   0.09997

 Mulliken charges:
               1
     1  Mg   0.832767
     2  C    0.077081
     3  C   -0.178756
     4  C   -0.215984
     5  C   -0.175192
     6  N   -0.634927
     7  C    0.223612
     8  C   -0.129976
     9  C   -0.180417
    10  C    0.378075
    11  C   -0.313316
    12  C   -0.134587
    13  C   -0.275028
    14  C    0.589099
    15  O   -0.471450
    16  O   -0.473082
    17  N   -0.696729
    18  C    0.297780
    19  C   -0.000362
    20  C    0.011321
    21  C    0.360811
    22  C   -0.363011
    23  C   -0.053773
    24  C   -0.254585
    25  N   -0.678131
    26  C    0.307072
    27  C    0.062236
    28  C    0.022241
    29  C    0.292897
    30  C   -0.385563
    31  C   -0.200397
    32  C   -0.317322
    33  N   -0.746827
    34  C    0.252993
    35  C    0.046912
    36  C    0.006148
    37  C    0.290570
    38  C   -0.393440
    39  C    0.365682
    40  O   -0.447213
    41  C   -0.306294
    42  C    0.619523
    43  O   -0.466708
    44  O   -0.486731
    45  C   -0.087918
    46  C    0.019923
    47  C   -0.115867
    48  C    0.128511
    49  C   -0.362606
    50  C   -0.216452
    51  C   -0.175529
    52  C   -0.165228
    53  C   -0.048657
    54  C   -0.333603
    55  C   -0.171000
    56  C   -0.161751
    57  C   -0.157668
    58  C   -0.053486
    59  C   -0.328905
    60  C   -0.162197
    61  C   -0.188263
    62  C   -0.168140
    63  C   -0.054404
    64  C   -0.301650
    65  C   -0.328300
    66  H    0.079405
    67  H    0.076828
    68  H    0.095022
    69  H    0.125424
    70  H    0.068243
    71  H    0.093948
    72  H    0.121472
    73  H    0.126785
    74  H    0.122023
    75  H    0.128270
    76  H    0.138020
    77  H    0.135399
    78  H    0.131961
    79  H    0.106651
    80  H    0.123002
    81  H    0.084324
    82  H    0.099509
    83  H    0.104667
    84  H    0.090466
    85  H    0.126002
    86  H    0.115933
    87  H    0.091119
    88  H    0.099592
    89  H    0.097478
    90  H    0.103113
    91  H    0.124576
    92  H    0.087186
    93  H    0.152064
    94  H    0.129721
    95  H    0.156640
    96  H    0.120348
    97  H    0.137256
    98  H    0.140333
    99  H    0.113768
   100  H    0.098480
   101  H    0.078658
   102  H    0.124602
   103  H    0.092464
   104  H    0.125007
   105  H    0.080369
   106  H    0.103254
   107  H    0.109473
   108  H    0.089292
   109  H    0.096903
   110  H    0.076932
   111  H    0.090064
   112  H    0.092107
   113  H    0.108203
   114  H    0.097247
   115  H    0.058775
   116  H    0.087507
   117  H    0.100489
   118  H    0.063596
   119  H    0.071111
   120  H    0.075104
   121  H    0.095356
   122  H    0.110436
   123  H    0.115856
   124  H    0.088917
   125  H    0.085109
   126  H    0.095554
   127  H    0.091173
   128  H    0.087974
   129  H    0.080642
   130  H    0.081686
   131  H    0.094050
   132  H    0.076950
   133  H    0.085626
   134  H    0.112685
   135  H    0.109548
   136  H    0.105626
   137  H    0.092798
 Sum of Mulliken charges =  -0.00000

 Dipole moment (field-independent basis, Debye):
    X=              0.6314    Y=              3.9625    Z=             -0.3389  Tot=              4.0268
 Quadrupole moment (field-independent basis, Debye-Ang):
   XX=           -319.9262   YY=           -393.4839   ZZ=           -399.1488
   XY=            -21.6890   XZ=             11.8524   YZ=             -3.2145

 Normal termination of Gaussian 16 at Tue Sep 17 14:14:58 2019.
