 Gaussian 09, Revision D.01,
 Gaussian 09:  ES64L-G09RevD.01 24-Apr-2013

 -------------------------------------
 # td=(NStates=1) CAM-B3LYP/6-31G(d,p)
 -------------------------------------

 --
 TD
 --
 Symbolic Z-matrix:
 Charge =  0 Multiplicity = 1

                         Standard orientation:
 ---------------------------------------------------------------------
 Center     Atomic      Atomic             Coordinates (Angstroms)
 Number     Number       Type             X           Y           Z
 ---------------------------------------------------------------------
      1         12           0       -7.126405    0.577504    0.193410
      2          6           0       -4.885322   -1.940226    0.597763
      3          6           0       -4.764220    2.867667    1.207511
      4          6           0       -9.395124    3.069118   -0.307059
      5          6           0       -9.553217   -1.728811   -1.014929
      6          7           0       -5.123748    0.438594    0.747647
      7          6           0       -4.272943   -0.678340    0.782099
      8          6           0       -2.955266   -0.289098    1.195876
      9          6           0       -2.993436    0.981963    1.760441
     10          6           0       -4.358282    1.491309    1.209304
     11          6           0       -2.820919    1.178643    3.222950
     12          6           0       -2.026505   -0.561595    0.021650
     13          6           0       -0.497828   -0.353030    0.395282
     14          6           0        0.527818   -0.661308   -0.664695
     15          8           0        0.254660   -1.147567   -1.778962
     16          8           0        1.790205   -0.527674   -0.225976
     17          7           0       -7.035309    2.660133    0.312242
     18          6           0       -6.017681    3.393451    0.776136
     19          6           0       -6.331008    4.719126    0.784469
     20          6           0       -7.764506    4.810905    0.415797
     21          6           0       -8.088814    3.457230    0.086046
     22          6           0       -5.442671    5.907288    0.992803
     23          6           0       -8.541889    5.998303    0.144012
     24          6           0       -8.454641    7.102726    0.898726
     25          7           0       -9.197975    0.603946   -0.441095
     26          6           0       -9.898802    1.767583   -0.545712
     27          6           0      -11.262807    1.452271   -1.088962
     28          6           0      -11.269239    0.109841   -1.238968
     29          6           0      -10.000702   -0.384737   -0.899256
     30          6           0      -12.355434    2.513394   -1.476964
     31          6           0      -12.367183   -0.783486   -1.766304
     32          6           0      -12.440114   -1.056859   -3.317918
     33          7           0       -7.302470   -1.343872   -0.001325
     34          6           0       -8.322821   -2.224186   -0.493163
     35          6           0       -7.884772   -3.603157   -0.561155
     36          6           0       -6.617585   -3.456488   -0.012795
     37          6           0       -6.209255   -2.233950    0.116084
     38          6           0       -8.603656   -4.832880   -1.000083
     39          6           0       -5.400086   -4.378371    0.290132
     40          8           0       -5.204126   -5.583343    0.325514
     41          6           0       -4.187489   -3.337409    0.607329
     42          6           0       -3.618265   -3.654610    2.000631
     43          8           0       -3.798884   -3.117122    3.016832
     44          8           0       -2.763459   -4.656178    1.904280
     45          6           0       -2.222081   -5.136939    3.207041
     46          6           0        2.773071   -0.789652   -1.205165
     47          6           0        4.064868   -0.464740   -0.664342
     48          6           0        5.098079    0.349585   -1.119833
     49          6           0        4.992569    1.116596   -2.375057
     50          6           0        6.355132    0.448871   -0.245441
     51          6           0        7.630637   -0.129422   -1.081280
     52          6           0        8.961305    0.083469   -0.294306
     53          6           0       10.223605   -0.521210   -1.049831
     54          6           0       10.166010   -1.972460   -1.446239
     55          6           0       11.495890   -0.123211   -0.207394
     56          6           0       12.810007   -0.403118   -0.850983
     57          6           0       14.066823   -0.038704    0.015655
     58          6           0       15.424074   -0.173769   -0.606819
     59          6           0       15.512912   -1.702902   -0.883071
     60          6           0       16.439810    0.319041    0.362086
     61          6           0       17.941614    0.352577   -0.006101
     62          6           0       18.877461    1.213670    0.856211
     63          6           0       20.304052    1.369138    0.374977
     64          6           0       20.503428    2.108062   -0.872161
     65          6           0       21.251197    1.847490    1.595947
     66          1           0       -3.918882    3.671332    1.314154
     67          1           0      -10.075103    3.942953   -0.500975
     68          1           0      -10.106361   -2.419707   -1.492150
     69          1           0       -2.598906   -1.050573    1.920036
     70          1           0       -2.391357    1.739240    1.237372
     71          1           0       -1.915227    0.756204    3.365001
     72          1           0       -2.899999    2.270221    3.491549
     73          1           0       -3.432096    0.707951    3.782644
     74          1           0       -2.355081   -1.538643   -0.169025
     75          1           0       -2.380348    0.118125   -0.765966
     76          1           0       -0.316307    0.628505    0.850039
     77          1           0       -0.140032   -1.008563    1.167262
     78          1           0       -5.892495    6.887981    0.604192
     79          1           0       -5.434181    6.273935    2.040199
     80          1           0       -4.340950    5.598389    0.800086
     81          1           0       -9.295786    5.933448   -0.674071
     82          1           0       -8.840734    7.986614    0.614281
     83          1           0       -7.730452    7.064569    1.656474
     84          1           0      -12.079928    3.240494   -2.199911
     85          1           0      -13.279463    1.897432   -1.875265
     86          1           0      -12.612191    3.160886   -0.642644
     87          1           0      -12.360800   -1.716085   -1.198365
     88          1           0      -13.257961   -0.384197   -1.410760
     89          1           0      -13.356127   -1.474522   -3.576285
     90          1           0      -12.461105   -0.048958   -3.807871
     91          1           0      -11.640129   -1.638689   -3.755931
     92          1           0       -8.850338   -4.867563   -2.193559
     93          1           0       -7.801547   -5.590118   -0.702545
     94          1           0       -9.555834   -4.954582   -0.249903
     95          1           0       -3.300721   -3.534808   -0.106010
     96          1           0       -1.857076   -4.175861    3.793100
     97          1           0       -3.000915   -5.674560    3.700159
     98          1           0       -1.465533   -5.861628    2.883797
     99          1           0        2.657282   -1.896629   -1.523039
    100          1           0        2.499254   -0.270916   -2.317914
    101          1           0        4.412593   -0.961885    0.235626
    102          1           0        3.960591    1.481139   -2.801588
    103          1           0        5.337916    2.116390   -2.378982
    104          1           0        5.523534    0.661433   -3.155055
    105          1           0        6.548481    1.498151   -0.112105
    106          1           0        6.327518   -0.077592    0.666235
    107          1           0        7.458670   -1.129700   -1.109839
    108          1           0        7.706792    0.617870   -1.843887
    109          1           0        9.185322    1.186991    0.030826
    110          1           0        8.801801   -0.545027    0.627804
    111          1           0       10.334943   -0.005394   -2.095014
    112          1           0        9.307405   -2.311840   -1.834336
    113          1           0       11.021116   -2.334726   -2.054278
    114          1           0       10.255377   -2.693765   -0.588139
    115          1           0       11.416599    0.933543    0.107451
    116          1           0       11.445978   -0.684616    0.735865
    117          1           0       12.862223   -1.445107   -1.061597
    118          1           0       12.940151    0.202176   -1.744585
    119          1           0       13.817708    0.915358    0.242467
    120          1           0       14.059030   -0.749110    0.870115
    121          1           0       15.590105    0.245946   -1.764446
    122          1           0       15.205541   -2.326561    0.083031
    123          1           0       14.911898   -1.849758   -1.847213
    124          1           0       16.691059   -1.837038   -1.183550
    125          1           0       16.125888    1.405748    0.696979
    126          1           0       16.522177   -0.388049    1.298881
    127          1           0       18.281610   -0.615507   -0.382229
    128          1           0       18.038708    0.964077   -1.177649
    129          1           0       18.601572    2.296703    0.655277
    130          1           0       18.840012    1.025518    2.091771
    131          1           0       20.565163    0.238394    0.272806
    132          1           0       20.049624    3.108744   -0.760241
    133          1           0       21.561876    2.012233   -0.968692
    134          1           0       20.167816    1.865106   -1.980378
    135          1           0       21.030425    1.087003    2.381651
    136          1           0       22.298043    1.894148    1.561967
    137          1           0       20.913585    2.752869    1.924362
 ---------------------------------------------------------------------

 SCF Done:  E(RCAM-B3LYP) =  -2932.69641213     A.U. after   18 cycles

 Excitation energies and oscillator strengths:

 Excited State   1:      Singlet-A      1.9461 eV  637.11 nm  f=0.2320  <S**2>=0.000
     240 -> 242       -0.12338
     240 -> 243        0.25067
     241 -> 242        0.64177
 This state for optimization and/or second-order correction.
 Total Energy, E(TD-HF/TD-KS) =  -2932.62489603
 Copying the excited state density for this state as the 1-particle RhoCI density.

 The electronic state is 1-A.
 Alpha  occ. eigenvalues --  -46.83966 -19.26925 -19.24977 -19.21605 -19.20344
 Alpha  occ. eigenvalues --  -19.20085 -14.41722 -14.39199 -14.38820 -14.38534
 Alpha  occ. eigenvalues --  -10.39354 -10.37782 -10.36385 -10.32831 -10.31737
 Alpha  occ. eigenvalues --  -10.31118 -10.30755 -10.29303 -10.29179 -10.29060
 Alpha  occ. eigenvalues --  -10.28848 -10.28788 -10.28724 -10.28417 -10.28310
 Alpha  occ. eigenvalues --  -10.28274 -10.28152 -10.28152 -10.27929 -10.27597
 Alpha  occ. eigenvalues --  -10.27239 -10.27203 -10.27182 -10.27146 -10.27000
 Alpha  occ. eigenvalues --  -10.26961 -10.26901 -10.26885 -10.26875 -10.26833
 Alpha  occ. eigenvalues --  -10.26828 -10.26770 -10.26736 -10.26694 -10.26672
 Alpha  occ. eigenvalues --  -10.26609 -10.26531 -10.26405 -10.26212 -10.25974
 Alpha  occ. eigenvalues --  -10.25839 -10.25483 -10.25479 -10.25404 -10.25394
 Alpha  occ. eigenvalues --  -10.25315 -10.25156 -10.24914 -10.24852 -10.24573
 Alpha  occ. eigenvalues --  -10.24044 -10.24029 -10.24014 -10.23885 -10.23671
 Alpha  occ. eigenvalues --   -3.12998  -1.87703  -1.87262  -1.87157  -1.19199
 Alpha  occ. eigenvalues --   -1.18835  -1.11345  -1.09353  -1.07788  -1.04719
 Alpha  occ. eigenvalues --   -1.03942  -1.03435  -1.02174  -0.92000  -0.91197
 Alpha  occ. eigenvalues --   -0.91031  -0.90554  -0.89434  -0.88783  -0.88518
 Alpha  occ. eigenvalues --   -0.88498  -0.87850  -0.87410  -0.86697  -0.86327
 Alpha  occ. eigenvalues --   -0.85180  -0.84278  -0.83013  -0.82845  -0.82336
 Alpha  occ. eigenvalues --   -0.81854  -0.80906  -0.80425  -0.80149  -0.79451
 Alpha  occ. eigenvalues --   -0.77620  -0.76844  -0.76795  -0.76672  -0.75895
 Alpha  occ. eigenvalues --   -0.75202  -0.74912  -0.74370  -0.74069  -0.72395
 Alpha  occ. eigenvalues --   -0.71895  -0.71418  -0.70394  -0.69295  -0.68118
 Alpha  occ. eigenvalues --   -0.66806  -0.66548  -0.65168  -0.64561  -0.64077
 Alpha  occ. eigenvalues --   -0.63219  -0.62972  -0.62706  -0.61515  -0.61322
 Alpha  occ. eigenvalues --   -0.61255  -0.60434  -0.60272  -0.59876  -0.59761
 Alpha  occ. eigenvalues --   -0.58330  -0.58219  -0.57369  -0.56985  -0.56732
 Alpha  occ. eigenvalues --   -0.56551  -0.56125  -0.55825  -0.55623  -0.55055
 Alpha  occ. eigenvalues --   -0.54550  -0.54187  -0.53757  -0.53388  -0.53352
 Alpha  occ. eigenvalues --   -0.52623  -0.52423  -0.52241  -0.51650  -0.51299
 Alpha  occ. eigenvalues --   -0.51270  -0.51073  -0.50875  -0.50687  -0.50426
 Alpha  occ. eigenvalues --   -0.50334  -0.50129  -0.49637  -0.49450  -0.49378
 Alpha  occ. eigenvalues --   -0.49195  -0.49071  -0.48943  -0.48704  -0.48610
 Alpha  occ. eigenvalues --   -0.48364  -0.47900  -0.47816  -0.47761  -0.47545
 Alpha  occ. eigenvalues --   -0.47163  -0.47051  -0.46557  -0.46359  -0.46143
 Alpha  occ. eigenvalues --   -0.45807  -0.45772  -0.45454  -0.45339  -0.45273
 Alpha  occ. eigenvalues --   -0.44926  -0.44827  -0.44788  -0.44478  -0.44073
 Alpha  occ. eigenvalues --   -0.44000  -0.43878  -0.43541  -0.43509  -0.43360
 Alpha  occ. eigenvalues --   -0.43279  -0.43038  -0.42890  -0.42870  -0.42711
 Alpha  occ. eigenvalues --   -0.42176  -0.42094  -0.41976  -0.41642  -0.41378
 Alpha  occ. eigenvalues --   -0.41238  -0.40788  -0.40546  -0.40491  -0.40377
 Alpha  occ. eigenvalues --   -0.40226  -0.40039  -0.39991  -0.39714  -0.39385
 Alpha  occ. eigenvalues --   -0.39355  -0.39172  -0.38815  -0.38536  -0.38110
 Alpha  occ. eigenvalues --   -0.37794  -0.37409  -0.37046  -0.36843  -0.36227
 Alpha  occ. eigenvalues --   -0.35890  -0.35786  -0.35758  -0.35335  -0.35186
 Alpha  occ. eigenvalues --   -0.35019  -0.34464  -0.34261  -0.33532  -0.33434
 Alpha  occ. eigenvalues --   -0.33251  -0.33134  -0.32205  -0.30477  -0.30042
 Alpha  occ. eigenvalues --   -0.29167  -0.28672  -0.28394  -0.26358  -0.22515
 Alpha  occ. eigenvalues --   -0.21399
 Alpha virt. eigenvalues --   -0.07121  -0.02995   0.01723   0.04266   0.05235
 Alpha virt. eigenvalues --    0.05786   0.06265   0.06667   0.07052   0.07945
 Alpha virt. eigenvalues --    0.08772   0.10742   0.10987   0.11684   0.11905

 Mulliken charges:
               1
     1  Mg   0.821196
     2  C    0.044681
     3  C   -0.215211
     4  C   -0.163518
     5  C   -0.147185
     6  N   -0.622530
     7  C    0.298550
     8  C   -0.181106
     9  C   -0.128423
    10  C    0.287251
    11  C   -0.278107
    12  C   -0.142978
    13  C   -0.282327
    14  C    0.607102
    15  O   -0.492296
    16  O   -0.452163
    17  N   -0.722533
    18  C    0.349990
    19  C    0.023018
    20  C   -0.023063
    21  C    0.312858
    22  C   -0.386910
    23  C   -0.079184
    24  C   -0.236636
    25  N   -0.666333
    26  C    0.284230
    27  C    0.008903
    28  C    0.024245
    29  C    0.299176
    30  C   -0.368828
    31  C   -0.242826
    32  C   -0.315375
    33  N   -0.715657
    34  C    0.239149
    35  C    0.044784
    36  C   -0.020958
    37  C    0.276388
    38  C   -0.376396
    39  C    0.392663
    40  O   -0.452715
    41  C   -0.350440
    42  C    0.617028
    43  O   -0.454466
    44  O   -0.462771
    45  C   -0.089236
    46  C    0.013010
    47  C   -0.125016
    48  C    0.127995
    49  C   -0.389080
    50  C   -0.247019
    51  C   -0.179234
    52  C   -0.189033
    53  C   -0.041546
    54  C   -0.325417
    55  C   -0.170777
    56  C   -0.196602
    57  C   -0.156670
    58  C   -0.053690
    59  C   -0.292448
    60  C   -0.139144
    61  C   -0.169365
    62  C   -0.149987
    63  C   -0.063845
    64  C   -0.297536
    65  C   -0.322936
    66  H    0.074810
    67  H    0.087650
    68  H    0.084658
    69  H    0.120323
    70  H    0.107725
    71  H    0.109952
    72  H    0.105361
    73  H    0.135365
    74  H    0.122013
    75  H    0.117901
    76  H    0.136766
    77  H    0.144068
    78  H    0.121102
    79  H    0.120213
    80  H    0.103829
    81  H    0.094317
    82  H    0.102507
    83  H    0.098473
    84  H    0.130288
    85  H    0.102844
    86  H    0.124375
    87  H    0.101243
    88  H    0.110188
    89  H    0.116168
    90  H    0.104741
    91  H    0.113657
    92  H    0.119962
    93  H    0.152017
    94  H    0.119473
    95  H    0.160357
    96  H    0.130218
    97  H    0.144112
    98  H    0.129911
    99  H    0.121398
   100  H    0.104869
   101  H    0.081294
   102  H    0.106546
   103  H    0.115254
   104  H    0.136802
   105  H    0.106332
   106  H    0.105136
   107  H    0.117248
   108  H    0.111758
   109  H    0.083130
   110  H    0.082345
   111  H    0.068338
   112  H    0.114925
   113  H    0.108278
   114  H    0.083754
   115  H    0.082364
   116  H    0.087614
   117  H    0.099320
   118  H    0.089738
   119  H    0.090788
   120  H    0.087295
   121  H    0.063575
   122  H    0.090675
   123  H    0.110008
   124  H    0.071272
   125  H    0.082845
   126  H    0.080968
   127  H    0.102923
   128  H    0.028714
   129  H    0.082688
   130  H    0.063798
   131  H    0.071162
   132  H    0.097897
   133  H    0.114648
   134  H    0.093968
   135  H    0.099500
   136  H    0.108820
   137  H    0.112722
 Sum of Mulliken charges =   0.00000

 Dipole moment (field-independent basis, Debye):
    X=              1.6453    Y=              3.6215    Z=              0.1462  Tot=              3.9804
 Quadrupole moment (field-independent basis, Debye-Ang):
   XX=           -342.6644   YY=           -391.4423   ZZ=           -395.5988
   XY=            -12.7667   XZ=             18.7938   YZ=             -4.5180

 Normal termination of Gaussian 09 at Thu Jul  4 23:31:32 2019.
