 Gaussian 16, Revision A.03,
 Gaussian 16:  ES64L-G16RevA.03 25-Dec-2016

 ----------------------------------------------------------------------
 # td=(NStates=1) iop(3/107=0140000000,3/108=0140000000) CAM-B3LYP/6-31
 G(d,p)
 ----------------------------------------------------------------------

 --
 TD
 --
 Symbolic Z-matrix:
 Charge =  0 Multiplicity = 1

                         Standard orientation:
 ---------------------------------------------------------------------
 Center     Atomic      Atomic             Coordinates (Angstroms)
 Number     Number       Type             X           Y           Z
 ---------------------------------------------------------------------
      1         12           0       -7.098437    0.680015    0.062451
      2          6           0       -4.772460   -1.903689    0.478073
      3          6           0       -4.812081    2.915953    1.117169
      4          6           0       -9.457609    3.069708   -0.216013
      5          6           0       -9.557160   -1.807430   -0.791666
      6          7           0       -5.120638    0.519303    0.659080
      7          6           0       -4.420495   -0.715052    0.851070
      8          6           0       -2.922660   -0.345758    1.184293
      9          6           0       -3.012678    1.176299    1.673048
     10          6           0       -4.443060    1.593277    1.066802
     11          6           0       -2.986995    1.214262    3.180723
     12          6           0       -1.885149   -0.532898    0.122077
     13          6           0       -0.377464   -0.315582    0.523664
     14          6           0        0.496126   -0.666838   -0.685499
     15          8           0        0.171730   -0.961415   -1.791657
     16          8           0        1.822279   -0.311733   -0.218000
     17          7           0       -7.224161    2.629009    0.409629
     18          6           0       -6.143368    3.374783    0.727012
     19          6           0       -6.418614    4.803898    0.661284
     20          6           0       -7.793401    4.819765    0.321886
     21          6           0       -8.139953    3.513109    0.032006
     22          6           0       -5.520313    5.964752    1.072541
     23          6           0       -8.553315    6.011739    0.001988
     24          6           0       -8.424053    7.281324    0.584794
     25          7           0       -9.173885    0.653045   -0.408946
     26          6           0       -9.966681    1.744674   -0.429413
     27          6           0      -11.286209    1.392107   -1.007583
     28          6           0      -11.214819   -0.011831   -1.211486
     29          6           0       -9.941883   -0.471760   -0.758459
     30          6           0      -12.436779    2.266100   -1.167223
     31          6           0      -12.335729   -0.885863   -1.744914
     32          6           0      -12.122739   -1.357707   -3.173269
     33          7           0       -7.141639   -1.356724   -0.098991
     34          6           0       -8.220437   -2.287285   -0.456561
     35          6           0       -7.786909   -3.643773   -0.520636
     36          6           0       -6.401461   -3.531624   -0.126986
     37          6           0       -6.094391   -2.180109    0.107136
     38          6           0       -8.696134   -4.818433   -0.809209
     39          6           0       -5.261767   -4.301733    0.159649
     40          8           0       -5.141544   -5.531772    0.241358
     41          6           0       -4.094313   -3.282747    0.495082
     42          6           0       -3.442593   -3.704564    1.895355
     43          8           0       -3.758903   -3.167226    2.956582
     44          8           0       -2.677031   -4.821254    1.734833
     45          6           0       -2.171801   -5.363907    2.982006
     46          6           0        2.840169   -0.481263   -1.330245
     47          6           0        4.122094   -0.403006   -0.636132
     48          6           0        5.195935    0.430360   -1.083837
     49          6           0        5.170788    1.236560   -2.370701
     50          6           0        6.376221    0.551305   -0.244359
     51          6           0        7.637061    0.096544   -1.015657
     52          6           0        8.900923   -0.010275   -0.124494
     53          6           0       10.125328   -0.555190   -0.889428
     54          6           0       10.023700   -1.971570   -1.402423
     55          6           0       11.468017   -0.249144   -0.053938
     56          6           0       12.683759   -0.677840   -0.768972
     57          6           0       14.045413   -0.299613    0.171713
     58          6           0       15.340417   -0.232525   -0.559124
     59          6           0       15.853214   -1.707529   -0.905317
     60          6           0       16.327911    0.310927    0.439725
     61          6           0       17.772997    0.481725   -0.159908
     62          6           0       18.724839    1.229173    0.819523
     63          6           0       20.239175    1.384181    0.366867
     64          6           0       20.422310    2.285588   -0.843436
     65          6           0       21.044682    1.774220    1.451966
     66          1           0       -4.089043    3.658745    1.274313
     67          1           0      -10.327908    3.964247   -0.484732
     68          1           0      -10.258715   -2.596549   -1.098687
     69          1           0       -2.632844   -1.145230    1.975545
     70          1           0       -2.122454    1.627564    1.015768
     71          1           0       -2.236205    0.818379    3.462128
     72          1           0       -3.402675    2.390761    3.436662
     73          1           0       -3.936914    0.825379    3.630550
     74          1           0       -1.910454   -1.398763   -0.314303
     75          1           0       -2.089263    0.124314   -0.810994
     76          1           0       -0.247371    0.771394    0.817347
     77          1           0       -0.198268   -0.982965    1.487264
     78          1           0       -5.912440    6.805598    0.618480
     79          1           0       -5.584616    6.392007    2.092630
     80          1           0       -4.561012    5.635754    0.993721
     81          1           0       -9.310216    5.624321   -0.769276
     82          1           0       -9.027289    8.272424    0.207403
     83          1           0       -7.845081    7.253344    1.387933
     84          1           0      -12.105232    3.146904   -1.679493
     85          1           0      -13.218373    1.882624   -1.872640
     86          1           0      -12.881858    2.694545   -0.189421
     87          1           0      -12.292948   -1.753565   -1.123076
     88          1           0      -13.242008   -0.259438   -1.537241
     89          1           0      -12.924403   -2.234319   -3.505926
     90          1           0      -12.092598   -0.705294   -4.016562
     91          1           0      -11.156382   -1.841209   -3.258622
     92          1           0       -9.102629   -4.831182   -1.619817
     93          1           0       -7.909537   -5.679106   -0.815764
     94          1           0       -9.638319   -5.091847   -0.028124
     95          1           0       -3.292249   -3.530904   -0.212042
     96          1           0       -1.802531   -4.616919    3.627657
     97          1           0       -2.975281   -6.039001    3.551877
     98          1           0       -1.298910   -5.903751    2.523933
     99          1           0        2.686545   -1.582343   -1.812442
    100          1           0        2.650802    0.408168   -2.188088
    101          1           0        4.435639   -1.052615    0.031002
    102          1           0        4.184351    1.378917   -2.637394
    103          1           0        5.652898    2.212649   -2.320780
    104          1           0        5.620091    0.751132   -3.272545
    105          1           0        6.534917    1.524642    0.365641
    106          1           0        6.243486   -0.194247    0.480350
    107          1           0        7.432831   -0.897871   -1.668379
    108          1           0        7.873132    0.942584   -1.814991
    109          1           0        9.138306    0.899364    0.519606
    110          1           0        8.466424   -0.790366    0.815788
    111          1           0       10.139906   -0.044366   -1.757414
    112          1           0        9.207409   -2.175112   -2.194622
    113          1           0       10.687277   -2.352353   -2.145175
    114          1           0       10.035589   -2.724716   -0.654245
    115          1           0       11.459831    0.825201    0.198681
    116          1           0       11.351243   -1.007236    0.754122
    117          1           0       12.630332   -1.542053   -1.012899
    118          1           0       12.858846    0.065238   -1.735880
    119          1           0       13.736119    0.662818    0.818375
    120          1           0       13.887140   -1.009919    0.988626
    121          1           0       15.271272    0.373905   -1.434097
    122          1           0       16.323408   -2.268729    0.084979
    123          1           0       14.889229   -2.273770   -1.482298
    124          1           0       16.731703   -1.732710   -1.381861
    125          1           0       16.121521    1.245539    1.060764
    126          1           0       16.397209   -0.159060    1.352333
    127          1           0       18.059049   -0.544301   -0.394947
    128          1           0       17.661469    0.975715   -1.107780
    129          1           0       18.424780    2.254843    0.983741
    130          1           0       18.780435    0.536203    1.654791
    131          1           0       20.672997    0.319451    0.017201
    132          1           0       20.239741    3.320613   -0.348518
    133          1           0       21.555169    2.069146   -1.084150
    134          1           0       19.935353    2.072130   -1.815826
    135          1           0       21.308902    1.121550    2.410454
    136          1           0       21.983731    2.138308    1.041092
    137          1           0       20.654560    2.815199    1.857173
 ---------------------------------------------------------------------

 SCF Done:  E(RCAM-B3LYP) =  -2933.35146637     A.U. after   16 cycles

 Excitation energies and oscillator strengths:

 Excited State   1:      Singlet-A      2.0636 eV  600.82 nm  f=0.2664  <S**2>=0.000
     240 -> 243       -0.21338
     241 -> 242        0.66751
 This state for optimization and/or second-order correction.
 Total Energy, E(TD-HF/TD-DFT) =  -2933.27563160
 Copying the excited state density for this state as the 1-particle RhoCI density.

 The electronic state is 1-A.
 Alpha  occ. eigenvalues --  -46.79884 -19.22400 -19.20768 -19.18861 -19.16635
 Alpha  occ. eigenvalues --  -19.14500 -14.37522 -14.35797 -14.35520 -14.35426
 Alpha  occ. eigenvalues --  -10.35105 -10.34654 -10.29065 -10.28944 -10.27356
 Alpha  occ. eigenvalues --  -10.26684 -10.26330 -10.25839 -10.25599 -10.25322
 Alpha  occ. eigenvalues --  -10.25121 -10.25116 -10.24708 -10.24580 -10.24437
 Alpha  occ. eigenvalues --  -10.24312 -10.24282 -10.24266 -10.23964 -10.23871
 Alpha  occ. eigenvalues --  -10.23457 -10.23340 -10.23337 -10.23180 -10.23059
 Alpha  occ. eigenvalues --  -10.22601 -10.22517 -10.22506 -10.22465 -10.22381
 Alpha  occ. eigenvalues --  -10.22243 -10.22069 -10.21998 -10.21955 -10.21908
 Alpha  occ. eigenvalues --  -10.21881 -10.21851 -10.21818 -10.21635 -10.21591
 Alpha  occ. eigenvalues --  -10.21383 -10.21172 -10.21130 -10.21021 -10.20967
 Alpha  occ. eigenvalues --  -10.20909 -10.20834 -10.20710 -10.20690 -10.20583
 Alpha  occ. eigenvalues --  -10.20560 -10.20174 -10.20109 -10.19970 -10.19667
 Alpha  occ. eigenvalues --   -3.08544  -1.83482  -1.82999  -1.82971  -1.11867
 Alpha  occ. eigenvalues --   -1.11416  -1.03584  -1.03528  -1.03464  -1.01178
 Alpha  occ. eigenvalues --   -0.97896  -0.97477  -0.96332  -0.87218  -0.85867
 Alpha  occ. eigenvalues --   -0.85338  -0.84754  -0.84567  -0.84126  -0.84083
 Alpha  occ. eigenvalues --   -0.83619  -0.83140  -0.82237  -0.82150  -0.80357
 Alpha  occ. eigenvalues --   -0.79726  -0.79080  -0.78340  -0.77825  -0.77530
 Alpha  occ. eigenvalues --   -0.76628  -0.76259  -0.76124  -0.75121  -0.74782
 Alpha  occ. eigenvalues --   -0.73360  -0.72710  -0.72034  -0.71484  -0.70664
 Alpha  occ. eigenvalues --   -0.70218  -0.70085  -0.69468  -0.69046  -0.67508
 Alpha  occ. eigenvalues --   -0.66655  -0.66007  -0.65581  -0.64456  -0.63562
 Alpha  occ. eigenvalues --   -0.63017  -0.61918  -0.60833  -0.60282  -0.60165
 Alpha  occ. eigenvalues --   -0.59844  -0.59326  -0.58931  -0.58093  -0.57232
 Alpha  occ. eigenvalues --   -0.57133  -0.56896  -0.56166  -0.55852  -0.55223
 Alpha  occ. eigenvalues --   -0.54989  -0.54169  -0.53337  -0.52156  -0.52020
 Alpha  occ. eigenvalues --   -0.51839  -0.51565  -0.51295  -0.51104  -0.50807
 Alpha  occ. eigenvalues --   -0.50689  -0.49890  -0.49727  -0.49185  -0.49027
 Alpha  occ. eigenvalues --   -0.48763  -0.48506  -0.48431  -0.48220  -0.47927
 Alpha  occ. eigenvalues --   -0.47745  -0.47561  -0.47237  -0.47145  -0.46770
 Alpha  occ. eigenvalues --   -0.46598  -0.46098  -0.45980  -0.45663  -0.45544
 Alpha  occ. eigenvalues --   -0.45414  -0.45284  -0.45048  -0.44935  -0.44763
 Alpha  occ. eigenvalues --   -0.44560  -0.44279  -0.44143  -0.43865  -0.43562
 Alpha  occ. eigenvalues --   -0.43419  -0.43216  -0.43044  -0.42782  -0.42740
 Alpha  occ. eigenvalues --   -0.42627  -0.41934  -0.41866  -0.41726  -0.41419
 Alpha  occ. eigenvalues --   -0.41320  -0.41069  -0.40982  -0.40754  -0.40536
 Alpha  occ. eigenvalues --   -0.40328  -0.40214  -0.39887  -0.39790  -0.39494
 Alpha  occ. eigenvalues --   -0.39458  -0.39144  -0.39062  -0.38858  -0.38777
 Alpha  occ. eigenvalues --   -0.38641  -0.38616  -0.38536  -0.38212  -0.38191
 Alpha  occ. eigenvalues --   -0.37985  -0.37887  -0.37609  -0.37498  -0.37385
 Alpha  occ. eigenvalues --   -0.37079  -0.36906  -0.36700  -0.36661  -0.36042
 Alpha  occ. eigenvalues --   -0.35929  -0.35498  -0.35345  -0.34833  -0.34600
 Alpha  occ. eigenvalues --   -0.34310  -0.33765  -0.33728  -0.33649  -0.32733
 Alpha  occ. eigenvalues --   -0.32569  -0.32542  -0.32425  -0.32249  -0.32016
 Alpha  occ. eigenvalues --   -0.31969  -0.31489  -0.31344  -0.31328  -0.30199
 Alpha  occ. eigenvalues --   -0.30029  -0.29339  -0.29019  -0.28924  -0.26535
 Alpha  occ. eigenvalues --   -0.25819  -0.25385  -0.25247  -0.25138  -0.22015
 Alpha  occ. eigenvalues --   -0.21048
 Alpha virt. eigenvalues --   -0.08049  -0.04137   0.00056   0.01620   0.02089
 Alpha virt. eigenvalues --    0.02939   0.03741   0.03997   0.04986   0.06178
 Alpha virt. eigenvalues --    0.06455   0.08730   0.09130   0.09223   0.09573

 Mulliken charges:
               1
     1  Mg   0.809260
     2  C    0.161537
     3  C   -0.186650
     4  C   -0.182656
     5  C   -0.165765
     6  N   -0.656538
     7  C    0.245166
     8  C   -0.152136
     9  C   -0.149562
    10  C    0.355471
    11  C   -0.251953
    12  C   -0.171391
    13  C   -0.267925
    14  C    0.620518
    15  O   -0.426556
    16  O   -0.503717
    17  N   -0.689957
    18  C    0.318122
    19  C   -0.000370
    20  C    0.014045
    21  C    0.295882
    22  C   -0.361682
    23  C   -0.061209
    24  C   -0.259880
    25  N   -0.674991
    26  C    0.302695
    27  C    0.028641
    28  C    0.009327
    29  C    0.315665
    30  C   -0.394931
    31  C   -0.221820
    32  C   -0.308077
    33  N   -0.721829
    34  C    0.214508
    35  C    0.050797
    36  C    0.026783
    37  C    0.299764
    38  C   -0.352420
    39  C    0.320885
    40  O   -0.490396
    41  C   -0.317789
    42  C    0.608866
    43  O   -0.474561
    44  O   -0.434281
    45  C   -0.090417
    46  C    0.005932
    47  C   -0.083227
    48  C    0.101833
    49  C   -0.362251
    50  C   -0.223454
    51  C   -0.170723
    52  C   -0.149561
    53  C   -0.041805
    54  C   -0.337012
    55  C   -0.182031
    56  C   -0.143802
    57  C   -0.178994
    58  C   -0.032196
    59  C   -0.301331
    60  C   -0.180065
    61  C   -0.188621
    62  C   -0.157552
    63  C   -0.051401
    64  C   -0.293698
    65  C   -0.288537
    66  H    0.081369
    67  H    0.069557
    68  H    0.099401
    69  H    0.094630
    70  H    0.084447
    71  H    0.107322
    72  H    0.065936
    73  H    0.132088
    74  H    0.117782
    75  H    0.091764
    76  H    0.138781
    77  H    0.121025
    78  H    0.129730
    79  H    0.123504
    80  H    0.119793
    81  H    0.082975
    82  H    0.108191
    83  H    0.107599
    84  H    0.122120
    85  H    0.115089
    86  H    0.121796
    87  H    0.115412
    88  H    0.101023
    89  H    0.073046
    90  H    0.120343
    91  H    0.112104
    92  H    0.137188
    93  H    0.137611
    94  H    0.098818
    95  H    0.152960
    96  H    0.141066
    97  H    0.128242
    98  H    0.124451
    99  H    0.111490
   100  H    0.103115
   101  H    0.086019
   102  H    0.108022
   103  H    0.112993
   104  H    0.122942
   105  H    0.103079
   106  H    0.104665
   107  H    0.091406
   108  H    0.074016
   109  H    0.091578
   110  H    0.034112
   111  H    0.096992
   112  H    0.083935
   113  H    0.109050
   114  H    0.109294
   115  H    0.093834
   116  H    0.091129
   117  H    0.095737
   118  H    0.046939
   119  H    0.066570
   120  H    0.097535
   121  H    0.097393
   122  H    0.077892
   123  H    0.079113
   124  H    0.124341
   125  H    0.065277
   126  H    0.098536
   127  H    0.087104
   128  H    0.088695
   129  H    0.090673
   130  H    0.094845
   131  H    0.056423
   132  H    0.088385
   133  H    0.088368
   134  H    0.112985
   135  H    0.098513
   136  H    0.100192
   137  H    0.069681
 Sum of Mulliken charges =  -0.00000

 Dipole moment (field-independent basis, Debye):
    X=              1.4812    Y=              4.5373    Z=             -1.0207  Tot=              4.8809
 Quadrupole moment (field-independent basis, Debye-Ang):
   XX=           -332.3122   YY=           -393.6882   ZZ=           -395.6480
   XY=            -30.2460   XZ=             12.5022   YZ=              0.2438

 Normal termination of Gaussian 16 at Wed Sep  4 17:25:17 2019.
