 Gaussian 09, Revision D.01,
 Gaussian 09:  ES64L-G09RevD.01 24-Apr-2013

 -------------------------------------
 # td=(NStates=1) CAM-B3LYP/6-31G(d,p)
 -------------------------------------

 --
 TD
 --
 Symbolic Z-matrix:
 Charge =  0 Multiplicity = 1

                         Standard orientation:
 ---------------------------------------------------------------------
 Center     Atomic      Atomic             Coordinates (Angstroms)
 Number     Number       Type             X           Y           Z
 ---------------------------------------------------------------------
      1         12           0       -7.171182    0.632539   -0.009991
      2          6           0       -4.867593   -1.910791    0.483098
      3          6           0       -4.857855    2.865581    1.139395
      4          6           0       -9.495325    3.157161   -0.589424
      5          6           0       -9.523022   -1.682191   -0.808043
      6          7           0       -5.100585    0.525246    0.711458
      7          6           0       -4.415292   -0.669670    0.827484
      8          6           0       -2.919112   -0.386726    1.220361
      9          6           0       -3.032414    1.142124    1.671926
     10          6           0       -4.412931    1.515121    1.174199
     11          6           0       -3.024373    1.191021    3.295924
     12          6           0       -2.038752   -0.533307    0.022286
     13          6           0       -0.535052   -0.418500    0.460322
     14          6           0        0.564376   -0.627029   -0.651749
     15          8           0        0.272804   -0.941025   -1.767013
     16          8           0        1.834540   -0.438237   -0.222786
     17          7           0       -7.159111    2.554606    0.290241
     18          6           0       -6.103602    3.370314    0.850571
     19          6           0       -6.457762    4.768701    0.881898
     20          6           0       -7.723786    4.798705    0.235736
     21          6           0       -8.165244    3.450195   -0.006588
     22          6           0       -5.470374    5.820615    1.112788
     23          6           0       -8.606263    5.980927    0.155647
     24          6           0       -8.490259    7.190703    0.831503
     25          7           0       -9.146305    0.653700   -0.566370
     26          6           0       -9.908645    1.694788   -0.769422
     27          6           0      -11.259495    1.369304   -1.115321
     28          6           0      -11.236498   -0.023864   -1.201591
     29          6           0       -9.916350   -0.416899   -0.843154
     30          6           0      -12.446981    2.335797   -1.429125
     31          6           0      -12.422227   -0.859250   -1.547761
     32          6           0      -12.513372   -1.179834   -3.091514
     33          7           0       -7.222531   -1.410434   -0.151041
     34          6           0       -8.228303   -2.219738   -0.544782
     35          6           0       -7.886764   -3.574445   -0.552308
     36          6           0       -6.484977   -3.489649   -0.036458
     37          6           0       -6.098229   -2.178625    0.040347
     38          6           0       -8.610342   -4.814393   -0.595869
     39          6           0       -5.323418   -4.365700    0.263452
     40          8           0       -5.114341   -5.528896    0.131864
     41          6           0       -4.158778   -3.335162    0.525493
     42          6           0       -3.493377   -3.625669    1.866962
     43          8           0       -3.652043   -3.145023    2.981173
     44          8           0       -2.677349   -4.695860    1.745297
     45          6           0       -1.986786   -5.227504    2.882479
     46          6           0        2.836123   -0.634710   -1.217332
     47          6           0        4.198571   -0.505636   -0.538294
     48          6           0        5.127494    0.271520   -0.952245
     49          6           0        5.103099    1.260628   -2.055865
     50          6           0        6.480402    0.375997   -0.143291
     51          6           0        7.659643   -0.058679   -0.976001
     52          6           0        8.903234   -0.097723   -0.148579
     53          6           0       10.210714   -0.518979   -0.976453
     54          6           0       10.176192   -1.991457   -1.279767
     55          6           0       11.463621   -0.204313   -0.088201
     56          6           0       12.850232   -0.425419   -0.804626
     57          6           0       14.030614   -0.015459    0.107343
     58          6           0       15.441096   -0.228412   -0.520298
     59          6           0       15.559040   -1.786860   -0.871721
     60          6           0       16.439202    0.437737    0.431150
     61          6           0       17.814182    0.619150   -0.234594
     62          6           0       18.839113    1.350871    0.803915
     63          6           0       20.296381    1.307345    0.315855
     64          6           0       20.401085    2.010047   -1.018779
     65          6           0       21.269850    1.754262    1.343162
     66          1           0       -3.984614    3.563996    1.402322
     67          1           0      -10.250269    4.040941   -0.871105
     68          1           0      -10.193081   -2.480437   -1.199435
     69          1           0       -2.584840   -1.140670    1.927267
     70          1           0       -2.207705    1.787691    1.336187
     71          1           0       -2.012096    0.860320    3.456371
     72          1           0       -3.117974    2.196391    3.656449
     73          1           0       -3.888336    0.638970    3.650259
     74          1           0       -2.133016   -1.371980   -0.525670
     75          1           0       -2.200904    0.160387   -0.715136
     76          1           0       -0.459708    0.575664    0.852947
     77          1           0       -0.533466   -1.196480    1.275886
     78          1           0       -5.828142    6.743509    0.773530
     79          1           0       -5.630993    5.919390    2.249434
     80          1           0       -4.454654    5.718149    0.711723
     81          1           0       -9.495423    5.836892   -0.541718
     82          1           0       -9.121172    8.080352    0.363083
     83          1           0       -7.801675    7.508918    1.709223
     84          1           0      -12.238245    2.759002   -2.259416
     85          1           0      -13.324793    1.656398   -1.280521
     86          1           0      -12.414532    3.323902   -0.687377
     87          1           0      -12.252598   -1.949732   -1.060424
     88          1           0      -13.292451   -0.466296   -1.062260
     89          1           0      -13.302658   -1.682180   -3.541430
     90          1           0      -12.643270   -0.238304   -3.652544
     91          1           0      -11.575596   -1.630734   -3.602827
     92          1           0       -8.752628   -5.041640   -1.761315
     93          1           0       -8.156605   -5.664657   -0.205458
     94          1           0       -9.719850   -4.700019   -0.021247
     95          1           0       -3.441789   -3.468049   -0.346911
     96          1           0       -1.211521   -4.498028    3.310782
     97          1           0       -2.857487   -5.339777    3.582295
     98          1           0       -1.558279   -6.199583    2.607684
     99          1           0        2.577596   -1.642859   -1.822624
    100          1           0        2.670924   -0.012858   -2.064825
    101          1           0        4.150105   -1.020209    0.407076
    102          1           0        4.094217    1.574702   -2.545142
    103          1           0        5.547656    2.145010   -1.579009
    104          1           0        5.657681    0.779214   -2.869849
    105          1           0        6.691200    1.401159    0.211806
    106          1           0        6.469523   -0.066675    0.699887
    107          1           0        7.394348   -1.093213   -1.455693
    108          1           0        7.815030    0.764160   -1.833880
    109          1           0        9.062338    0.878768    0.223386
    110          1           0        8.825520   -0.635503    0.985476
    111          1           0       10.372574   -0.017825   -1.865662
    112          1           0        9.288571   -2.278919   -1.793855
    113          1           0       10.957514   -2.241250   -2.033605
    114          1           0       10.057504   -2.572438   -0.420565
    115          1           0       11.372715    0.891035    0.199602
    116          1           0       11.317913   -0.702304    0.856783
    117          1           0       12.884512   -1.451731   -1.233052
    118          1           0       12.673300    0.163389   -1.572943
    119          1           0       13.756523    1.147692    0.141566
    120          1           0       13.925687   -0.527602    1.100601
    121          1           0       15.455395    0.287609   -1.395778
    122          1           0       15.502986   -2.248145    0.030023
    123          1           0       15.003567   -2.105372   -1.769280
    124          1           0       16.611103   -1.902275   -1.089156
    125          1           0       16.147477    1.365349    0.633308
    126          1           0       16.581327   -0.054109    1.307135
    127          1           0       18.268554   -0.347876   -0.417907
    128          1           0       17.822295    1.243229   -0.996363
    129          1           0       18.447048    2.457851    0.819437
    130          1           0       18.770117    0.707905    1.823625
    131          1           0       20.536463    0.291688    0.176796
    132          1           0       19.873051    3.052508   -0.964752
    133          1           0       21.401961    2.172748   -1.212658
    134          1           0       19.820469    1.680105   -1.830978
    135          1           0       21.206072    1.173062    2.211910
    136          1           0       22.317350    1.655668    0.969677
    137          1           0       21.152948    2.733910    1.615589
 ---------------------------------------------------------------------

 SCF Done:  E(RCAM-B3LYP) =  -2932.71591724     A.U. after   17 cycles

 Excitation energies and oscillator strengths:

 Excited State   1:      Singlet-A      2.2256 eV  557.09 nm  f=0.1998  <S**2>=0.000
     240 -> 242       -0.21281
     240 -> 243        0.23306
     241 -> 242        0.60994
     241 -> 243        0.13656
 This state for optimization and/or second-order correction.
 Total Energy, E(TD-HF/TD-KS) =  -2932.63412877
 Copying the excited state density for this state as the 1-particle RhoCI density.

 The electronic state is 1-A.
 Alpha  occ. eigenvalues --  -46.83969 -19.26495 -19.24714 -19.21190 -19.20183
 Alpha  occ. eigenvalues --  -19.19896 -14.42127 -14.39687 -14.39314 -14.38155
 Alpha  occ. eigenvalues --  -10.39497 -10.38985 -10.34409 -10.31635 -10.31407
 Alpha  occ. eigenvalues --  -10.31373 -10.30989 -10.30695 -10.30196 -10.30096
 Alpha  occ. eigenvalues --  -10.29134 -10.29063 -10.28871 -10.28710 -10.28560
 Alpha  occ. eigenvalues --  -10.28180 -10.27986 -10.27856 -10.27838 -10.27833
 Alpha  occ. eigenvalues --  -10.27645 -10.27305 -10.27044 -10.27032 -10.26935
 Alpha  occ. eigenvalues --  -10.26890 -10.26834 -10.26785 -10.26746 -10.26666
 Alpha  occ. eigenvalues --  -10.26644 -10.26644 -10.26457 -10.26446 -10.26430
 Alpha  occ. eigenvalues --  -10.26369 -10.26258 -10.25780 -10.25749 -10.25681
 Alpha  occ. eigenvalues --  -10.25332 -10.25164 -10.24860 -10.24693 -10.24517
 Alpha  occ. eigenvalues --  -10.24495 -10.24280 -10.24163 -10.23715 -10.23691
 Alpha  occ. eigenvalues --  -10.23657 -10.23572 -10.23065 -10.22869 -10.22748
 Alpha  occ. eigenvalues --   -3.13118  -1.87815  -1.87381  -1.87284  -1.18739
 Alpha  occ. eigenvalues --   -1.17215  -1.11948  -1.10159  -1.07500  -1.05805
 Alpha  occ. eigenvalues --   -1.05366  -1.03054  -1.01977  -0.92746  -0.91660
 Alpha  occ. eigenvalues --   -0.90257  -0.90148  -0.89399  -0.89200  -0.88719
 Alpha  occ. eigenvalues --   -0.88383  -0.88039  -0.87362  -0.86312  -0.85733
 Alpha  occ. eigenvalues --   -0.85072  -0.83804  -0.83211  -0.83008  -0.82045
 Alpha  occ. eigenvalues --   -0.81459  -0.80605  -0.80122  -0.79971  -0.78172
 Alpha  occ. eigenvalues --   -0.77667  -0.77526  -0.76977  -0.76181  -0.75886
 Alpha  occ. eigenvalues --   -0.75452  -0.75176  -0.74344  -0.73356  -0.72271
 Alpha  occ. eigenvalues --   -0.72052  -0.70869  -0.70304  -0.69427  -0.67623
 Alpha  occ. eigenvalues --   -0.66816  -0.66471  -0.65613  -0.64827  -0.64726
 Alpha  occ. eigenvalues --   -0.64155  -0.64020  -0.63444  -0.63262  -0.62292
 Alpha  occ. eigenvalues --   -0.61737  -0.60933  -0.60369  -0.59640  -0.59184
 Alpha  occ. eigenvalues --   -0.58376  -0.57949  -0.57717  -0.56737  -0.56386
 Alpha  occ. eigenvalues --   -0.55862  -0.55368  -0.55110  -0.55019  -0.54763
 Alpha  occ. eigenvalues --   -0.54378  -0.54180  -0.53627  -0.53264  -0.53120
 Alpha  occ. eigenvalues --   -0.52852  -0.52652  -0.52325  -0.52295  -0.52078
 Alpha  occ. eigenvalues --   -0.51737  -0.51330  -0.50764  -0.50698  -0.50430
 Alpha  occ. eigenvalues --   -0.50291  -0.50237  -0.50109  -0.49844  -0.49530
 Alpha  occ. eigenvalues --   -0.49358  -0.49273  -0.49133  -0.48816  -0.48508
 Alpha  occ. eigenvalues --   -0.48270  -0.48082  -0.47884  -0.47741  -0.47442
 Alpha  occ. eigenvalues --   -0.47150  -0.46800  -0.46567  -0.46320  -0.46300
 Alpha  occ. eigenvalues --   -0.46112  -0.45776  -0.45599  -0.45099  -0.44942
 Alpha  occ. eigenvalues --   -0.44761  -0.44319  -0.44277  -0.44184  -0.43991
 Alpha  occ. eigenvalues --   -0.43869  -0.43739  -0.43609  -0.43272  -0.43218
 Alpha  occ. eigenvalues --   -0.43045  -0.42906  -0.42696  -0.42653  -0.42483
 Alpha  occ. eigenvalues --   -0.42400  -0.42210  -0.41909  -0.41709  -0.41517
 Alpha  occ. eigenvalues --   -0.41427  -0.40902  -0.40622  -0.40607  -0.40224
 Alpha  occ. eigenvalues --   -0.40156  -0.39865  -0.39739  -0.39452  -0.39262
 Alpha  occ. eigenvalues --   -0.39149  -0.39036  -0.38760  -0.38221  -0.38124
 Alpha  occ. eigenvalues --   -0.37823  -0.37580  -0.37113  -0.37092  -0.36455
 Alpha  occ. eigenvalues --   -0.36429  -0.35847  -0.35762  -0.35725  -0.35581
 Alpha  occ. eigenvalues --   -0.35192  -0.34974  -0.34724  -0.34003  -0.33413
 Alpha  occ. eigenvalues --   -0.33052  -0.32571  -0.32357  -0.31221  -0.30556
 Alpha  occ. eigenvalues --   -0.29461  -0.28974  -0.27269  -0.27031  -0.22769
 Alpha  occ. eigenvalues --   -0.21785
 Alpha virt. eigenvalues --   -0.06543  -0.03126   0.01152   0.03700   0.05618
 Alpha virt. eigenvalues --    0.05994   0.06865   0.06994   0.07564   0.07720
 Alpha virt. eigenvalues --    0.08966   0.10406   0.11099   0.11745   0.12262

 Mulliken charges:
               1
     1  Mg   0.827984
     2  C    0.091133
     3  C   -0.232020
     4  C   -0.208584
     5  C   -0.186380
     6  N   -0.609868
     7  C    0.244427
     8  C   -0.148875
     9  C   -0.187361
    10  C    0.376466
    11  C   -0.304249
    12  C   -0.164525
    13  C   -0.274915
    14  C    0.597929
    15  O   -0.452955
    16  O   -0.466090
    17  N   -0.731111
    18  C    0.315725
    19  C    0.017116
    20  C   -0.007172
    21  C    0.338439
    22  C   -0.361662
    23  C   -0.070080
    24  C   -0.260163
    25  N   -0.686645
    26  C    0.299826
    27  C   -0.020964
    28  C    0.044490
    29  C    0.343049
    30  C   -0.329927
    31  C   -0.248610
    32  C   -0.321218
    33  N   -0.726119
    34  C    0.287499
    35  C    0.038787
    36  C   -0.066870
    37  C    0.281705
    38  C   -0.365801
    39  C    0.369335
    40  O   -0.438468
    41  C   -0.314403
    42  C    0.609801
    43  O   -0.490706
    44  O   -0.453828
    45  C   -0.073740
    46  C    0.002505
    47  C   -0.143350
    48  C    0.122436
    49  C   -0.355608
    50  C   -0.211332
    51  C   -0.163041
    52  C   -0.174628
    53  C   -0.065285
    54  C   -0.300971
    55  C   -0.184828
    56  C   -0.188290
    57  C   -0.163862
    58  C   -0.065926
    59  C   -0.322919
    60  C   -0.161636
    61  C   -0.192393
    62  C   -0.181187
    63  C   -0.041106
    64  C   -0.312786
    65  C   -0.310411
    66  H    0.082187
    67  H    0.096463
    68  H    0.098530
    69  H    0.122154
    70  H    0.105836
    71  H    0.119000
    72  H    0.109135
    73  H    0.137070
    74  H    0.122422
    75  H    0.112938
    76  H    0.123402
    77  H    0.124899
    78  H    0.130908
    79  H    0.122239
    80  H    0.130676
    81  H    0.089601
    82  H    0.096516
    83  H    0.110304
    84  H    0.147583
    85  H    0.114861
    86  H    0.088871
    87  H    0.088518
    88  H    0.117840
    89  H    0.118030
    90  H    0.103532
    91  H    0.105779
    92  H    0.104692
    93  H    0.157225
    94  H    0.088719
    95  H    0.170255
    96  H    0.113528
    97  H    0.133282
    98  H    0.131815
    99  H    0.104856
   100  H    0.118162
   101  H    0.099116
   102  H    0.104336
   103  H    0.122253
   104  H    0.132505
   105  H    0.088759
   106  H    0.102324
   107  H    0.091456
   108  H    0.083747
   109  H    0.099240
   110  H    0.059663
   111  H    0.086906
   112  H    0.094787
   113  H    0.094865
   114  H    0.107796
   115  H    0.069447
   116  H    0.085661
   117  H    0.089686
   118  H    0.102960
   119  H    0.065927
   120  H    0.088882
   121  H    0.086191
   122  H    0.113893
   123  H    0.114394
   124  H    0.095736
   125  H    0.102973
   126  H    0.093287
   127  H    0.093052
   128  H    0.101441
   129  H    0.074542
   130  H    0.061529
   131  H    0.092363
   132  H    0.072084
   133  H    0.104374
   134  H    0.114909
   135  H    0.105148
   136  H    0.087514
   137  H    0.108642
 Sum of Mulliken charges =   0.00000

 Dipole moment (field-independent basis, Debye):
    X=              1.5704    Y=              5.8000    Z=             -0.5851  Tot=              6.0372
 Quadrupole moment (field-independent basis, Debye-Ang):
   XX=           -338.8405   YY=           -392.4395   ZZ=           -396.3785
   XY=            -25.7440   XZ=             12.2323   YZ=             -1.4093

 Normal termination of Gaussian 09 at Thu Jul  4 14:01:10 2019.
