 Gaussian 09, Revision D.01,
 Gaussian 09:  ES64L-G09RevD.01 24-Apr-2013

 -------------------------------------
 # td=(NStates=1) CAM-B3LYP/6-31G(d,p)
 -------------------------------------

 --
 TD
 --
 Symbolic Z-matrix:
 Charge =  0 Multiplicity = 1

                         Standard orientation:
 ---------------------------------------------------------------------
 Center     Atomic      Atomic             Coordinates (Angstroms)
 Number     Number       Type             X           Y           Z
 ---------------------------------------------------------------------
      1         12           0       -7.208977    0.585345    0.162104
      2          6           0       -4.878704   -1.979522    0.485316
      3          6           0       -4.843748    2.925365    1.057599
      4          6           0       -9.408653    3.129940   -0.418891
      5          6           0       -9.586408   -1.751732   -0.776549
      6          7           0       -5.132210    0.418399    0.786740
      7          6           0       -4.353293   -0.684490    0.779971
      8          6           0       -2.971539   -0.402419    1.293469
      9          6           0       -2.917414    1.110648    1.639011
     10          6           0       -4.450684    1.539959    1.139578
     11          6           0       -2.931008    1.364208    3.145049
     12          6           0       -1.880718   -0.627708    0.179496
     13          6           0       -0.452645   -0.341150    0.551989
     14          6           0        0.434917   -0.656782   -0.569239
     15          8           0        0.146627   -0.900575   -1.742459
     16          8           0        1.761080   -0.558513   -0.182517
     17          7           0       -7.150597    2.637878    0.241502
     18          6           0       -6.144277    3.364046    0.773054
     19          6           0       -6.456215    4.799671    0.758976
     20          6           0       -7.859498    4.914536    0.476892
     21          6           0       -8.137507    3.489245    0.143827
     22          6           0       -5.566126    5.862536    1.245431
     23          6           0       -8.536790    6.159200    0.148460
     24          6           0       -8.537616    7.302493    0.729144
     25          7           0       -9.115488    0.625127   -0.554355
     26          6           0       -9.824408    1.806936   -0.763548
     27          6           0      -11.169091    1.431678   -1.191955
     28          6           0      -11.158570    0.080602   -1.372472
     29          6           0       -9.919113   -0.377358   -0.946805
     30          6           0      -12.297769    2.380014   -1.522383
     31          6           0      -12.272718   -0.808818   -1.752929
     32          6           0      -12.312742   -0.981245   -3.303621
     33          7           0       -7.275931   -1.471428    0.055591
     34          6           0       -8.297671   -2.228213   -0.383100
     35          6           0       -7.852580   -3.655348   -0.443191
     36          6           0       -6.463635   -3.618517    0.016222
     37          6           0       -6.204472   -2.222494    0.262460
     38          6           0       -8.607792   -4.851231   -0.979159
     39          6           0       -5.259322   -4.371317    0.302856
     40          8           0       -5.144514   -5.541801    0.272105
     41          6           0       -4.174812   -3.315288    0.484436
     42          6           0       -3.470945   -3.682258    1.819375
     43          8           0       -3.682690   -3.176652    2.946883
     44          8           0       -2.611994   -4.682418    1.765496
     45          6           0       -2.155243   -5.335436    2.882617
     46          6           0        2.735697   -0.725185   -1.188189
     47          6           0        4.128546   -0.523829   -0.614152
     48          6           0        5.189054    0.250642   -1.084497
     49          6           0        5.078682    1.012556   -2.404719
     50          6           0        6.418651    0.404844   -0.262820
     51          6           0        7.750560   -0.169527   -0.925074
     52          6           0        8.983819   -0.125104   -0.064034
     53          6           0       10.264094   -0.519601   -0.812760
     54          6           0       10.197582   -1.981782   -1.374285
     55          6           0       11.470288   -0.255318    0.063274
     56          6           0       12.828738   -0.487675   -0.710780
     57          6           0       13.983924   -0.154436    0.167303
     58          6           0       15.331960   -0.211185   -0.466353
     59          6           0       15.712863   -1.731084   -0.678419
     60          6           0       16.372595    0.490545    0.401063
     61          6           0       17.695476    0.638151   -0.124712
     62          6           0       18.774165    1.360067    0.624947
     63          6           0       20.214184    1.415104    0.157860
     64          6           0       20.348940    2.222126   -1.013502
     65          6           0       21.195887    1.925993    1.275268
     66          1           0       -4.050272    3.500367    1.462573
     67          1           0      -10.337582    3.734184   -0.426260
     68          1           0      -10.378312   -2.441362   -0.919580
     69          1           0       -2.596704   -1.134146    2.274696
     70          1           0       -2.350188    1.863777    0.994712
     71          1           0       -1.795900    1.306796    3.413527
     72          1           0       -3.134147    2.387629    3.441218
     73          1           0       -3.531330    0.774803    3.646132
     74          1           0       -2.112584   -1.734013   -0.043951
     75          1           0       -2.190044   -0.104790   -0.802886
     76          1           0       -0.287409    0.674050    0.696802
     77          1           0       -0.141360   -0.877968    1.485057
     78          1           0       -5.720800    6.619449    0.429148
     79          1           0       -5.990270    6.174008    2.438936
     80          1           0       -4.499531    5.490132    1.623036
     81          1           0       -9.418950    6.029181   -0.434213
     82          1           0       -9.233099    8.026379    0.286534
     83          1           0       -7.848297    7.654724    1.579994
     84          1           0      -12.057066    2.881545   -2.445927
     85          1           0      -13.362422    1.604811   -1.725769
     86          1           0      -12.662504    3.083163   -0.764282
     87          1           0      -12.191333   -1.871719   -1.358436
     88          1           0      -13.238514   -0.324380   -1.330415
     89          1           0      -13.184465   -1.512129   -3.674792
     90          1           0      -12.233910   -0.115155   -3.774253
     91          1           0      -11.579731   -1.728153   -3.577376
     92          1           0       -8.843137   -4.844944   -2.020256
     93          1           0       -8.002236   -5.809006   -0.681177
     94          1           0       -9.529412   -5.184193   -0.445825
     95          1           0       -3.393521   -3.381108   -0.314576
     96          1           0       -1.389668   -4.496560    3.373315
     97          1           0       -3.055927   -5.612689    3.366658
     98          1           0       -1.498500   -6.239068    2.695515
     99          1           0        2.700151   -1.832095   -1.483049
    100          1           0        2.492627    0.117031   -2.026065
    101          1           0        4.323625   -1.050971    0.392899
    102          1           0        4.149829    0.886302   -3.005763
    103          1           0        5.183137    2.030341   -2.115597
    104          1           0        5.729283    0.625943   -3.089597
    105          1           0        6.630763    1.500364   -0.265919
    106          1           0        6.383431   -0.159890    0.704405
    107          1           0        7.608147   -1.089370   -1.375306
    108          1           0        7.757112    0.538195   -1.792239
    109          1           0        9.172753    0.861061    0.426092
    110          1           0        8.932148   -0.864710    0.825656
    111          1           0       10.097678    0.038452   -1.768112
    112          1           0        9.492274   -2.172256   -1.830372
    113          1           0       10.995089   -2.331328   -2.199441
    114          1           0       10.257964   -2.692624   -0.596670
    115          1           0       11.413976    0.747096    0.502906
    116          1           0       11.462258   -0.968371    0.878951
    117          1           0       12.743045   -1.488257   -1.092464
    118          1           0       12.879557    0.058028   -1.587015
    119          1           0       13.967646    0.800321    0.577703
    120          1           0       13.991791   -0.770162    1.001168
    121          1           0       15.338151    0.380371   -1.569501
    122          1           0       15.569877   -2.129338    0.254272
    123          1           0       15.222897   -2.411627   -1.470505
    124          1           0       16.819521   -1.956404   -1.031638
    125          1           0       15.863406    1.466874    0.743385
    126          1           0       16.516446    0.159861    1.393701
    127          1           0       18.138998   -0.598194   -0.388340
    128          1           0       17.671881    1.305096   -1.068686
    129          1           0       18.248275    2.429818    0.564887
    130          1           0       18.649985    0.872003    1.692820
    131          1           0       20.526204    0.378728   -0.090855
    132          1           0       20.209034    3.397749   -1.296546
    133          1           0       21.367043    2.162553   -1.362720
    134          1           0       19.749238    1.752813   -1.936936
    135          1           0       21.335929    1.371294    2.233462
    136          1           0       22.209399    2.025912    1.041881
    137          1           0       20.976405    2.971166    1.472786
 ---------------------------------------------------------------------

 SCF Done:  E(RCAM-B3LYP) =  -2932.62051285     A.U. after   18 cycles

 Excitation energies and oscillator strengths:

 Excited State   1:      Singlet-A      1.9738 eV  628.16 nm  f=0.2175  <S**2>=0.000
     240 -> 243        0.27753
     241 -> 242        0.64685
 This state for optimization and/or second-order correction.
 Total Energy, E(TD-HF/TD-KS) =  -2932.54797782
 Copying the excited state density for this state as the 1-particle RhoCI density.

 The electronic state is 1-A.
 Alpha  occ. eigenvalues --  -46.85301 -19.26095 -19.25427 -19.21033 -19.20470
 Alpha  occ. eigenvalues --  -19.19863 -14.42510 -14.40377 -14.39229 -14.38806
 Alpha  occ. eigenvalues --  -10.39723 -10.39380 -10.34752 -10.32856 -10.32444
 Alpha  occ. eigenvalues --  -10.31366 -10.31365 -10.30313 -10.30109 -10.29675
 Alpha  occ. eigenvalues --  -10.29503 -10.29413 -10.29143 -10.29021 -10.28936
 Alpha  occ. eigenvalues --  -10.28788 -10.28310 -10.28010 -10.27963 -10.27791
 Alpha  occ. eigenvalues --  -10.27757 -10.27749 -10.27421 -10.27342 -10.27286
 Alpha  occ. eigenvalues --  -10.27273 -10.27223 -10.27221 -10.27128 -10.26904
 Alpha  occ. eigenvalues --  -10.26611 -10.26511 -10.26506 -10.26469 -10.26452
 Alpha  occ. eigenvalues --  -10.26441 -10.26333 -10.26194 -10.26149 -10.25999
 Alpha  occ. eigenvalues --  -10.25858 -10.25659 -10.25296 -10.25264 -10.25165
 Alpha  occ. eigenvalues --  -10.25141 -10.24976 -10.24936 -10.24726 -10.24704
 Alpha  occ. eigenvalues --  -10.24069 -10.23753 -10.23582 -10.23048 -10.22812
 Alpha  occ. eigenvalues --   -3.14215  -1.88934  -1.88420  -1.88411  -1.19666
 Alpha  occ. eigenvalues --   -1.17266  -1.13588  -1.08366  -1.07094  -1.05859
 Alpha  occ. eigenvalues --   -1.04705  -1.03608  -1.02914  -0.93575  -0.91622
 Alpha  occ. eigenvalues --   -0.90884  -0.90527  -0.89891  -0.89796  -0.88942
 Alpha  occ. eigenvalues --   -0.88862  -0.88233  -0.86948  -0.86531  -0.85901
 Alpha  occ. eigenvalues --   -0.85614  -0.84672  -0.83977  -0.83435  -0.82742
 Alpha  occ. eigenvalues --   -0.81767  -0.81274  -0.80701  -0.80191  -0.78406
 Alpha  occ. eigenvalues --   -0.78117  -0.77500  -0.77144  -0.76559  -0.76121
 Alpha  occ. eigenvalues --   -0.75776  -0.75123  -0.74790  -0.73170  -0.71965
 Alpha  occ. eigenvalues --   -0.71397  -0.70757  -0.69830  -0.68985  -0.68164
 Alpha  occ. eigenvalues --   -0.67173  -0.66549  -0.65642  -0.64854  -0.64479
 Alpha  occ. eigenvalues --   -0.63839  -0.63753  -0.62534  -0.62429  -0.61652
 Alpha  occ. eigenvalues --   -0.61010  -0.60108  -0.59929  -0.59421  -0.59098
 Alpha  occ. eigenvalues --   -0.58707  -0.58278  -0.58136  -0.57641  -0.57000
 Alpha  occ. eigenvalues --   -0.56579  -0.56450  -0.55526  -0.55221  -0.54806
 Alpha  occ. eigenvalues --   -0.54530  -0.54270  -0.54131  -0.53947  -0.53354
 Alpha  occ. eigenvalues --   -0.53101  -0.52802  -0.52470  -0.52071  -0.51869
 Alpha  occ. eigenvalues --   -0.51707  -0.51509  -0.51401  -0.51217  -0.50729
 Alpha  occ. eigenvalues --   -0.50474  -0.50378  -0.50251  -0.50185  -0.49951
 Alpha  occ. eigenvalues --   -0.49673  -0.49469  -0.49199  -0.48956  -0.48665
 Alpha  occ. eigenvalues --   -0.48464  -0.48280  -0.47915  -0.47861  -0.47487
 Alpha  occ. eigenvalues --   -0.47189  -0.46977  -0.46789  -0.46679  -0.46452
 Alpha  occ. eigenvalues --   -0.46118  -0.45941  -0.45807  -0.45134  -0.44961
 Alpha  occ. eigenvalues --   -0.44703  -0.44613  -0.44308  -0.44108  -0.43798
 Alpha  occ. eigenvalues --   -0.43702  -0.43452  -0.43316  -0.43155  -0.43123
 Alpha  occ. eigenvalues --   -0.43001  -0.42872  -0.42789  -0.42572  -0.42128
 Alpha  occ. eigenvalues --   -0.42020  -0.41838  -0.41551  -0.41482  -0.41228
 Alpha  occ. eigenvalues --   -0.41030  -0.40881  -0.40831  -0.40613  -0.39980
 Alpha  occ. eigenvalues --   -0.39761  -0.39666  -0.39098  -0.38862  -0.38695
 Alpha  occ. eigenvalues --   -0.38653  -0.38397  -0.38134  -0.38106  -0.37930
 Alpha  occ. eigenvalues --   -0.37585  -0.37571  -0.37315  -0.36992  -0.36540
 Alpha  occ. eigenvalues --   -0.36466  -0.36443  -0.35656  -0.35484  -0.34886
 Alpha  occ. eigenvalues --   -0.34377  -0.34119  -0.33846  -0.33652  -0.33603
 Alpha  occ. eigenvalues --   -0.32915  -0.32876  -0.32138  -0.30860  -0.30312
 Alpha  occ. eigenvalues --   -0.29141  -0.28364  -0.28350  -0.27521  -0.22730
 Alpha  occ. eigenvalues --   -0.20836
 Alpha virt. eigenvalues --   -0.06374  -0.03504   0.01072   0.04161   0.05400
 Alpha virt. eigenvalues --    0.05726   0.05966   0.06295   0.06349   0.07344
 Alpha virt. eigenvalues --    0.07919   0.10094   0.10406   0.11299   0.11711

 Mulliken charges:
               1
     1  Mg   0.831687
     2  C    0.081715
     3  C   -0.173610
     4  C   -0.183367
     5  C   -0.163117
     6  N   -0.616433
     7  C    0.326460
     8  C   -0.174805
     9  C   -0.137327
    10  C    0.242239
    11  C   -0.289344
    12  C   -0.178033
    13  C   -0.252456
    14  C    0.615492
    15  O   -0.480784
    16  O   -0.492607
    17  N   -0.657235
    18  C    0.313963
    19  C   -0.003199
    20  C    0.018785
    21  C    0.293730
    22  C   -0.349508
    23  C   -0.066968
    24  C   -0.240378
    25  N   -0.702402
    26  C    0.261095
    27  C    0.005430
    28  C    0.068505
    29  C    0.310485
    30  C   -0.368029
    31  C   -0.261168
    32  C   -0.308746
    33  N   -0.723372
    34  C    0.284266
    35  C    0.002791
    36  C   -0.015272
    37  C    0.302323
    38  C   -0.398228
    39  C    0.376651
    40  O   -0.432271
    41  C   -0.331603
    42  C    0.587943
    43  O   -0.501943
    44  O   -0.411001
    45  C   -0.059129
    46  C    0.046434
    47  C   -0.154513
    48  C    0.118695
    49  C   -0.365948
    50  C   -0.236548
    51  C   -0.194178
    52  C   -0.164261
    53  C   -0.065170
    54  C   -0.283958
    55  C   -0.181823
    56  C   -0.180871
    57  C   -0.161323
    58  C   -0.047572
    59  C   -0.308092
    60  C   -0.165700
    61  C   -0.138103
    62  C   -0.148634
    63  C   -0.035342
    64  C   -0.314978
    65  C   -0.325095
    66  H    0.078345
    67  H    0.092983
    68  H    0.090918
    69  H    0.122367
    70  H    0.110847
    71  H    0.087645
    72  H    0.104570
    73  H    0.141119
    74  H    0.093540
    75  H    0.121404
    76  H    0.153863
    77  H    0.143104
    78  H    0.138021
    79  H    0.088279
    80  H    0.108194
    81  H    0.091999
    82  H    0.100977
    83  H    0.104714
    84  H    0.138553
    85  H    0.063987
    86  H    0.126667
    87  H    0.099347
    88  H    0.097121
    89  H    0.098447
    90  H    0.123654
    91  H    0.110320
    92  H    0.137018
    93  H    0.134187
    94  H    0.120232
    95  H    0.173209
    96  H    0.093016
    97  H    0.138216
    98  H    0.124821
    99  H    0.117122
   100  H    0.103956
   101  H    0.080666
   102  H    0.108866
   103  H    0.122014
   104  H    0.133275
   105  H    0.101839
   106  H    0.104120
   107  H    0.111284
   108  H    0.086447
   109  H    0.089541
   110  H    0.073465
   111  H    0.082409
   112  H    0.097120
   113  H    0.071547
   114  H    0.098533
   115  H    0.088429
   116  H    0.095563
   117  H    0.104853
   118  H    0.098034
   119  H    0.089874
   120  H    0.094719
   121  H    0.053371
   122  H    0.110930
   123  H    0.093360
   124  H    0.083764
   125  H    0.075233
   126  H    0.094538
   127  H    0.030418
   128  H    0.076718
   129  H    0.072132
   130  H    0.062895
   131  H    0.101735
   132  H    0.092696
   133  H    0.106973
   134  H    0.087525
   135  H    0.096996
   136  H    0.105309
   137  H    0.105805
 Sum of Mulliken charges =   0.00000

 Dipole moment (field-independent basis, Debye):
    X=              1.1474    Y=              3.9190    Z=              0.2820  Tot=              4.0933
 Quadrupole moment (field-independent basis, Debye-Ang):
   XX=           -348.0406   YY=           -388.7509   ZZ=           -399.9257
   XY=            -17.6172   XZ=             11.6470   YZ=              0.7597

 Normal termination of Gaussian 09 at Wed Jul  3 16:22:10 2019.
