 Gaussian 16, Revision A.03,
 Gaussian 16:  ES64L-G16RevA.03 25-Dec-2016

 ----------------------------------------------------------------------
 # td=(NStates=1) iop(3/107=0140000000,3/108=0140000000) CAM-B3LYP/6-31
 G(d,p)
 ----------------------------------------------------------------------

 --
 TD
 --
 Symbolic Z-matrix:
 Charge =  0 Multiplicity = 1

                         Standard orientation:
 ---------------------------------------------------------------------
 Center     Atomic      Atomic             Coordinates (Angstroms)
 Number     Number       Type             X           Y           Z
 ---------------------------------------------------------------------
      1         12           0       -7.182940    0.491836    0.079696
      2          6           0       -4.842635   -2.052112    0.551063
      3          6           0       -4.786063    2.858591    1.093963
      4          6           0       -9.439481    3.138353   -0.231159
      5          6           0       -9.509266   -1.675413   -1.008820
      6          7           0       -5.110414    0.387615    0.613670
      7          6           0       -4.343006   -0.723661    0.738232
      8          6           0       -2.926151   -0.396177    1.137826
      9          6           0       -3.099810    1.154501    1.770104
     10          6           0       -4.426282    1.572212    1.170250
     11          6           0       -2.962505    1.104230    3.222575
     12          6           0       -1.911699   -0.625803    0.125510
     13          6           0       -0.434759   -0.500818    0.607992
     14          6           0        0.582161   -0.807644   -0.506376
     15          8           0        0.316917   -1.237381   -1.610904
     16          8           0        1.714758   -0.300615   -0.058660
     17          7           0       -7.071957    2.645013    0.279606
     18          6           0       -5.964566    3.355777    0.813277
     19          6           0       -6.308778    4.815086    0.839071
     20          6           0       -7.627824    4.912852    0.352678
     21          6           0       -8.161269    3.513473    0.065208
     22          6           0       -5.321724    5.843693    1.213677
     23          6           0       -8.506857    5.996254    0.210446
     24          6           0       -8.298553    7.271679    0.769017
     25          7           0       -9.095974    0.734162   -0.608551
     26          6           0       -9.906481    1.880403   -0.677178
     27          6           0      -11.154247    1.537632   -1.188742
     28          6           0      -11.236621    0.189035   -1.434138
     29          6           0       -9.922594   -0.295748   -1.008132
     30          6           0      -12.346224    2.462782   -1.490289
     31          6           0      -12.486200   -0.625460   -1.764175
     32          6           0      -12.229160   -1.285559   -3.200439
     33          7           0       -7.205177   -1.350643   -0.353034
     34          6           0       -8.209070   -2.138099   -0.732426
     35          6           0       -7.819494   -3.617581   -0.642226
     36          6           0       -6.488348   -3.606277   -0.170619
     37          6           0       -6.210020   -2.178485   -0.016748
     38          6           0       -8.741251   -4.757729   -0.987370
     39          6           0       -5.409113   -4.377789    0.191690
     40          8           0       -5.371075   -5.611802    0.239449
     41          6           0       -4.236380   -3.365734    0.713142
     42          6           0       -3.544871   -3.814040    1.907327
     43          8           0       -3.720308   -3.276850    2.997957
     44          8           0       -2.775815   -4.815899    1.759587
     45          6           0       -2.101380   -5.138361    2.958398
     46          6           0        2.835256   -0.555098   -0.955961
     47          6           0        4.122201   -0.276021   -0.308089
     48          6           0        5.110383    0.494350   -0.782516
     49          6           0        5.170975    1.385286   -2.018020
     50          6           0        6.433199    0.535053   -0.042296
     51          6           0        7.621775   -0.033430   -0.823836
     52          6           0        8.892548   -0.127984    0.017180
     53          6           0       10.139541   -0.552677   -0.820552
     54          6           0        9.997822   -2.071903   -1.241483
     55          6           0       11.455674   -0.427057    0.084329
     56          6           0       12.714481   -0.521774   -0.788479
     57          6           0       13.953289   -0.244062    0.073458
     58          6           0       15.332339   -0.311830   -0.585842
     59          6           0       15.713528   -1.817580   -0.861152
     60          6           0       16.370631    0.388568    0.296944
     61          6           0       17.836309    0.539524   -0.160890
     62          6           0       18.761694    1.259568    0.629653
     63          6           0       20.263385    1.313376    0.070685
     64          6           0       20.319722    2.148374   -1.230183
     65          6           0       21.214275    2.019228    1.046594
     66          1           0       -3.974795    3.523356    1.763270
     67          1           0      -10.155485    3.918282   -0.244915
     68          1           0      -10.242766   -2.526491   -1.221036
     69          1           0       -2.621113   -0.983871    2.067356
     70          1           0       -2.352751    1.804971    1.385786
     71          1           0       -2.079700    0.902659    3.511726
     72          1           0       -2.851026    2.210608    3.728969
     73          1           0       -3.628058    0.294335    3.642487
     74          1           0       -1.993359   -1.534007   -0.316470
     75          1           0       -2.025693    0.009332   -0.834288
     76          1           0       -0.042558    0.556009    1.019698
     77          1           0       -0.209303   -1.349591    1.298777
     78          1           0       -5.371615    6.660020    0.413426
     79          1           0       -5.516272    6.272020    2.175621
     80          1           0       -4.234702    5.554926    1.092495
     81          1           0       -9.149732    5.928702   -0.609798
     82          1           0       -9.121778    8.052775    0.429083
     83          1           0       -7.553789    7.620603    1.496330
     84          1           0      -11.791676    3.071328   -2.314832
     85          1           0      -13.252135    1.952111   -1.830972
     86          1           0      -12.453689    3.190373   -0.778826
     87          1           0      -12.495542   -1.450663   -1.012830
     88          1           0      -13.479232   -0.260999   -1.570516
     89          1           0      -13.128836   -1.961060   -3.587372
     90          1           0      -12.367271   -0.363493   -3.913380
     91          1           0      -11.320471   -1.661845   -3.289284
     92          1           0       -8.972590   -4.842589   -2.110849
     93          1           0       -8.150864   -5.654542   -0.644721
     94          1           0       -9.801928   -4.731211   -0.461441
     95          1           0       -3.626884   -3.439167   -0.054599
     96          1           0       -1.416380   -4.222517    3.437421
     97          1           0       -2.848891   -5.197565    3.745274
     98          1           0       -1.510062   -6.076996    2.961332
     99          1           0        2.826017   -1.491160   -1.348678
    100          1           0        2.623070   -0.083192   -1.774507
    101          1           0        4.147506   -1.060468    0.515927
    102          1           0        4.146409    1.068412   -2.736195
    103          1           0        5.222596    2.466027   -1.711885
    104          1           0        6.104326    1.265670   -2.669389
    105          1           0        6.653657    1.605133    0.171863
    106          1           0        6.095821   -0.056486    1.011818
    107          1           0        7.483768   -1.068297   -1.311670
    108          1           0        7.769393    0.778578   -1.625637
    109          1           0        9.053091    0.938146    0.391623
    110          1           0        8.786588   -0.662171    0.944371
    111          1           0       10.068364    0.252765   -1.649990
    112          1           0        9.154679   -2.116992   -1.975447
    113          1           0       11.017665   -2.549682   -1.769963
    114          1           0        9.559038   -2.480381   -0.331279
    115          1           0       11.372942    0.533980    0.698193
    116          1           0       11.294751   -1.363262    0.590660
    117          1           0       12.675044   -1.474814   -1.358041
    118          1           0       12.470937    0.040670   -1.683091
    119          1           0       13.803833    0.838296    0.569683
    120          1           0       13.736724   -1.039324    0.789939
    121          1           0       15.455569    0.266998   -1.612945
    122          1           0       15.800448   -2.321164    0.005442
    123          1           0       14.899135   -2.318491   -1.585968
    124          1           0       16.608834   -1.746215   -1.445831
    125          1           0       16.137462    1.457361    0.446633
    126          1           0       16.354312   -0.187030    1.308502
    127          1           0       18.188339   -0.582506   -0.263279
    128          1           0       17.864878    0.985411   -1.112094
    129          1           0       18.465111    2.381214    0.660846
    130          1           0       18.713701    1.150903    1.754656
    131          1           0       20.617735    0.264944   -0.031086
    132          1           0       20.112113    3.188338   -1.081428
    133          1           0       21.229223    1.960182   -1.602489
    134          1           0       19.543804    1.613274   -1.888951
    135          1           0       21.208331    1.595631    2.033129
    136          1           0       22.349011    2.097873    0.931441
    137          1           0       20.819809    3.103451    1.321640
 ---------------------------------------------------------------------

 SCF Done:  E(RCAM-B3LYP) =  -2933.49508263     A.U. after   16 cycles

 Excitation energies and oscillator strengths:

 Excited State   1:      Singlet-A      1.9566 eV  633.68 nm  f=0.2447  <S**2>=0.000
     240 -> 243       -0.24535
     241 -> 242        0.65858
 This state for optimization and/or second-order correction.
 Total Energy, E(TD-HF/TD-DFT) =  -2933.42317981
 Copying the excited state density for this state as the 1-particle RhoCI density.

 The electronic state is 1-A.
 Alpha  occ. eigenvalues --  -46.79412 -19.23811 -19.22697 -19.16799 -19.16114
 Alpha  occ. eigenvalues --  -19.14925 -14.37439 -14.36056 -14.35079 -14.34922
 Alpha  occ. eigenvalues --  -10.34192 -10.33711 -10.30377 -10.27912 -10.26435
 Alpha  occ. eigenvalues --  -10.26194 -10.25733 -10.25427 -10.25289 -10.25000
 Alpha  occ. eigenvalues --  -10.24996 -10.24879 -10.24843 -10.24842 -10.24106
 Alpha  occ. eigenvalues --  -10.24041 -10.23848 -10.23677 -10.23525 -10.23424
 Alpha  occ. eigenvalues --  -10.23211 -10.23164 -10.22973 -10.22942 -10.22867
 Alpha  occ. eigenvalues --  -10.22785 -10.22722 -10.22715 -10.22662 -10.22621
 Alpha  occ. eigenvalues --  -10.22611 -10.22488 -10.22486 -10.22412 -10.22234
 Alpha  occ. eigenvalues --  -10.22224 -10.22184 -10.21899 -10.21850 -10.21608
 Alpha  occ. eigenvalues --  -10.21573 -10.21475 -10.21446 -10.21411 -10.21303
 Alpha  occ. eigenvalues --  -10.21279 -10.21275 -10.21145 -10.21100 -10.20820
 Alpha  occ. eigenvalues --  -10.20789 -10.20490 -10.20474 -10.20247 -10.19431
 Alpha  occ. eigenvalues --   -3.08156  -1.83074  -1.82633  -1.82581  -1.17085
 Alpha  occ. eigenvalues --   -1.14147  -1.05175  -1.04872  -1.03355  -1.00358
 Alpha  occ. eigenvalues --   -0.97008  -0.96290  -0.94761  -0.88264  -0.86575
 Alpha  occ. eigenvalues --   -0.85414  -0.84808  -0.84666  -0.84286  -0.83123
 Alpha  occ. eigenvalues --   -0.83042  -0.82678  -0.82555  -0.82106  -0.81534
 Alpha  occ. eigenvalues --   -0.80757  -0.79684  -0.79254  -0.78368  -0.77595
 Alpha  occ. eigenvalues --   -0.77240  -0.76849  -0.75624  -0.74971  -0.73648
 Alpha  occ. eigenvalues --   -0.72448  -0.72229  -0.71424  -0.70862  -0.70791
 Alpha  occ. eigenvalues --   -0.70589  -0.70486  -0.69564  -0.69082  -0.68055
 Alpha  occ. eigenvalues --   -0.67392  -0.66079  -0.65477  -0.64844  -0.64350
 Alpha  occ. eigenvalues --   -0.62807  -0.61970  -0.61321  -0.61036  -0.60568
 Alpha  occ. eigenvalues --   -0.60266  -0.59851  -0.58628  -0.58516  -0.58403
 Alpha  occ. eigenvalues --   -0.57467  -0.56914  -0.56531  -0.55678  -0.55141
 Alpha  occ. eigenvalues --   -0.54888  -0.54464  -0.53867  -0.53414  -0.52999
 Alpha  occ. eigenvalues --   -0.52545  -0.51489  -0.51365  -0.50875  -0.50786
 Alpha  occ. eigenvalues --   -0.50469  -0.50398  -0.50027  -0.49884  -0.49109
 Alpha  occ. eigenvalues --   -0.48943  -0.48855  -0.48595  -0.48528  -0.48468
 Alpha  occ. eigenvalues --   -0.47551  -0.47229  -0.46960  -0.46710  -0.46628
 Alpha  occ. eigenvalues --   -0.46610  -0.46284  -0.46138  -0.46077  -0.45734
 Alpha  occ. eigenvalues --   -0.45486  -0.45099  -0.44947  -0.44827  -0.44723
 Alpha  occ. eigenvalues --   -0.44524  -0.44474  -0.44291  -0.44117  -0.43607
 Alpha  occ. eigenvalues --   -0.43591  -0.43414  -0.42828  -0.42725  -0.42660
 Alpha  occ. eigenvalues --   -0.42406  -0.42227  -0.41826  -0.41681  -0.41503
 Alpha  occ. eigenvalues --   -0.41371  -0.41191  -0.40974  -0.40820  -0.40693
 Alpha  occ. eigenvalues --   -0.40549  -0.40475  -0.40310  -0.40112  -0.39971
 Alpha  occ. eigenvalues --   -0.39513  -0.39441  -0.39307  -0.39246  -0.39045
 Alpha  occ. eigenvalues --   -0.38938  -0.38514  -0.38384  -0.38203  -0.38106
 Alpha  occ. eigenvalues --   -0.37813  -0.37639  -0.37508  -0.37161  -0.36796
 Alpha  occ. eigenvalues --   -0.36500  -0.36382  -0.36303  -0.36035  -0.35816
 Alpha  occ. eigenvalues --   -0.35621  -0.35446  -0.34907  -0.34832  -0.34648
 Alpha  occ. eigenvalues --   -0.34224  -0.34156  -0.33838  -0.33408  -0.33393
 Alpha  occ. eigenvalues --   -0.33230  -0.33158  -0.32894  -0.32657  -0.32369
 Alpha  occ. eigenvalues --   -0.32187  -0.31676  -0.31626  -0.30630  -0.30275
 Alpha  occ. eigenvalues --   -0.29943  -0.29577  -0.29211  -0.28037  -0.27749
 Alpha  occ. eigenvalues --   -0.27653  -0.26909  -0.25231  -0.23829  -0.21505
 Alpha  occ. eigenvalues --   -0.19610
 Alpha virt. eigenvalues --   -0.06947  -0.04423  -0.00676   0.01460   0.03358
 Alpha virt. eigenvalues --    0.04114   0.04245   0.04706   0.05485   0.06149
 Alpha virt. eigenvalues --    0.06932   0.08606   0.08910   0.09094   0.09409

 Mulliken charges:
               1
     1  Mg   0.839387
     2  C    0.064637
     3  C   -0.184602
     4  C   -0.176695
     5  C   -0.187182
     6  N   -0.637385
     7  C    0.321682
     8  C   -0.166500
     9  C   -0.145987
    10  C    0.315215
    11  C   -0.297170
    12  C   -0.161486
    13  C   -0.272261
    14  C    0.604751
    15  O   -0.481062
    16  O   -0.454132
    17  N   -0.693550
    18  C    0.321793
    19  C    0.037232
    20  C    0.033382
    21  C    0.304294
    22  C   -0.397598
    23  C   -0.111221
    24  C   -0.241668
    25  N   -0.694289
    26  C    0.309178
    27  C   -0.015614
    28  C    0.052302
    29  C    0.278188
    30  C   -0.359165
    31  C   -0.247750
    32  C   -0.302982
    33  N   -0.749888
    34  C    0.285056
    35  C    0.017388
    36  C    0.123390
    37  C    0.271963
    38  C   -0.393377
    39  C    0.284153
    40  O   -0.473664
    41  C   -0.316336
    42  C    0.632584
    43  O   -0.514898
    44  O   -0.386529
    45  C   -0.100057
    46  C    0.006957
    47  C   -0.137292
    48  C    0.146781
    49  C   -0.356888
    50  C   -0.219605
    51  C   -0.159443
    52  C   -0.183348
    53  C   -0.073192
    54  C   -0.313879
    55  C   -0.162235
    56  C   -0.185050
    57  C   -0.144988
    58  C   -0.055214
    59  C   -0.308805
    60  C   -0.166233
    61  C   -0.161824
    62  C   -0.165749
    63  C   -0.060881
    64  C   -0.291535
    65  C   -0.317016
    66  H    0.077050
    67  H    0.076468
    68  H    0.090197
    69  H    0.110166
    70  H    0.100391
    71  H    0.131978
    72  H    0.068625
    73  H    0.129037
    74  H    0.127324
    75  H    0.105183
    76  H    0.122697
    77  H    0.127179
    78  H    0.121752
    79  H    0.132347
    80  H    0.114151
    81  H    0.102638
    82  H    0.084172
    83  H    0.109565
    84  H    0.112300
    85  H    0.116755
    86  H    0.126956
    87  H    0.106170
    88  H    0.109985
    89  H    0.083798
    90  H    0.096459
    91  H    0.129440
    92  H    0.129591
    93  H    0.147918
    94  H    0.116823
    95  H    0.167533
    96  H    0.098528
    97  H    0.150109
    98  H    0.125618
    99  H    0.133689
   100  H    0.112042
   101  H    0.093118
   102  H    0.081634
   103  H    0.127208
   104  H    0.126943
   105  H    0.100218
   106  H    0.068982
   107  H    0.091898
   108  H    0.085850
   109  H    0.076954
   110  H    0.096286
   111  H    0.068765
   112  H    0.104269
   113  H    0.092479
   114  H    0.117063
   115  H    0.085340
   116  H    0.096251
   117  H    0.080104
   118  H    0.089932
   119  H    0.072830
   120  H    0.101469
   121  H    0.065727
   122  H    0.115558
   123  H    0.081850
   124  H    0.111531
   125  H    0.085591
   126  H    0.072669
   127  H    0.068200
   128  H    0.099077
   129  H    0.066036
   130  H    0.082748
   131  H    0.088973
   132  H    0.111117
   133  H    0.115521
   134  H    0.083553
   135  H    0.100705
   136  H    0.096892
   137  H    0.077937
 Sum of Mulliken charges =  -0.00000

 Dipole moment (field-independent basis, Debye):
    X=              3.0659    Y=              3.5761    Z=              0.4635  Tot=              4.7332
 Quadrupole moment (field-independent basis, Debye-Ang):
   XX=           -347.5460   YY=           -396.5008   ZZ=           -401.0801
   XY=            -15.7443   XZ=              7.8516   YZ=              0.0912

 Normal termination of Gaussian 16 at Sun Sep  8 03:29:07 2019.
