 Gaussian 16, Revision A.03,
 Gaussian 16:  ES64L-G16RevA.03 25-Dec-2016

 ----------------------------------------------------------------------
 # td=(NStates=1) iop(3/107=0140000000,3/108=0140000000) CAM-B3LYP/6-31
 G(d,p)
 ----------------------------------------------------------------------

 --
 TD
 --
 Symbolic Z-matrix:
 Charge =  0 Multiplicity = 1

                         Standard orientation:
 ---------------------------------------------------------------------
 Center     Atomic      Atomic             Coordinates (Angstroms)
 Number     Number       Type             X           Y           Z
 ---------------------------------------------------------------------
      1         12           0       -7.143413    0.658510    0.108030
      2          6           0       -4.804496   -1.990251    0.580762
      3          6           0       -4.778405    2.814619    1.327280
      4          6           0       -9.282566    3.085358   -0.500759
      5          6           0       -9.523700   -1.710611   -1.045139
      6          7           0       -5.058537    0.415557    0.752118
      7          6           0       -4.390019   -0.672778    0.944680
      8          6           0       -2.893621   -0.398165    1.352193
      9          6           0       -3.077460    1.081140    1.770167
     10          6           0       -4.356157    1.516926    1.266754
     11          6           0       -3.092572    1.056965    3.326839
     12          6           0       -1.981072   -0.621770    0.117448
     13          6           0       -0.570144   -0.332510    0.458391
     14          6           0        0.404443   -0.618899   -0.582297
     15          8           0        0.141413   -0.941481   -1.779025
     16          8           0        1.662992   -0.412158   -0.219709
     17          7           0       -7.028790    2.627127    0.326530
     18          6           0       -6.023216    3.313931    0.831950
     19          6           0       -6.325788    4.737060    0.794690
     20          6           0       -7.587957    4.819134    0.405728
     21          6           0       -8.077050    3.519624    0.045726
     22          6           0       -5.432774    5.933432    1.187059
     23          6           0       -8.426014    6.059054    0.103918
     24          6           0       -8.382132    7.183245    0.881294
     25          7           0       -9.168552    0.689415   -0.503430
     26          6           0       -9.832180    1.804150   -0.806840
     27          6           0      -11.193917    1.576562   -1.283803
     28          6           0      -11.176276    0.147652   -1.269138
     29          6           0       -9.871499   -0.314003   -0.934615
     30          6           0      -12.347517    2.491974   -1.495731
     31          6           0      -12.377273   -0.677886   -1.853670
     32          6           0      -12.187070   -0.973327   -3.302240
     33          7           0       -7.232710   -1.362584   -0.155086
     34          6           0       -8.303195   -2.147358   -0.562742
     35          6           0       -7.821334   -3.505144   -0.579125
     36          6           0       -6.522815   -3.484877   -0.078464
     37          6           0       -6.186067   -2.162157    0.201637
     38          6           0       -8.680004   -4.691653   -0.914366
     39          6           0       -5.325740   -4.355742    0.205029
     40          8           0       -5.226300   -5.582163    0.193085
     41          6           0       -4.095732   -3.393200    0.564173
     42          6           0       -3.510535   -3.708696    1.822368
     43          8           0       -3.718993   -3.181032    2.887329
     44          8           0       -2.745223   -4.775943    1.638691
     45          6           0       -2.335335   -5.446078    2.845151
     46          6           0        2.745538   -0.610893   -1.109837
     47          6           0        4.079591   -0.536291   -0.520203
     48          6           0        5.181905    0.305892   -0.867978
     49          6           0        5.149806    1.220930   -2.005789
     50          6           0        6.436604    0.161122   -0.055455
     51          6           0        7.748249   -0.278373   -0.864239
     52          6           0        8.976316   -0.225877    0.038133
     53          6           0       10.247009   -0.617601   -0.789511
     54          6           0       10.124140   -2.115067   -1.243353
     55          6           0       11.496153   -0.496426    0.061129
     56          6           0       12.823505   -0.614853   -0.643994
     57          6           0       13.954278   -0.294732    0.218217
     58          6           0       15.386560   -0.254437   -0.408095
     59          6           0       15.765571   -1.629526   -0.948280
     60          6           0       16.398427    0.459196    0.454277
     61          6           0       17.655574    0.650861   -0.277362
     62          6           0       18.695902    1.440822    0.657948
     63          6           0       20.119683    1.502079    0.029164
     64          6           0       20.235481    2.231742   -1.162945
     65          6           0       21.093046    2.191361    1.055561
     66          1           0       -4.142654    3.542025    1.633845
     67          1           0      -10.116009    3.795481   -0.692920
     68          1           0      -10.293356   -2.426816   -1.647906
     69          1           0       -2.731628   -0.945288    2.367391
     70          1           0       -2.413789    1.678819    1.456920
     71          1           0       -2.122271    0.604489    3.671421
     72          1           0       -2.997419    2.015410    3.709040
     73          1           0       -3.917434    0.185729    3.707841
     74          1           0       -2.130085   -1.477206   -0.188853
     75          1           0       -2.164347    0.062027   -0.642656
     76          1           0       -0.289181    0.681672    0.632560
     77          1           0       -0.351813   -0.776516    1.476321
     78          1           0       -5.577138    6.764599    0.586546
     79          1           0       -5.403366    6.224857    2.184253
     80          1           0       -4.413507    5.443958    0.966666
     81          1           0       -9.339418    6.056351   -0.700724
     82          1           0       -9.057328    8.034281    0.501766
     83          1           0       -7.749871    7.302966    1.795602
     84          1           0      -12.206393    2.985842   -2.562939
     85          1           0      -13.208279    1.948806   -1.893312
     86          1           0      -12.625082    3.251081   -0.648607
     87          1           0      -12.480447   -1.579180   -1.229272
     88          1           0      -13.263324   -0.282282   -1.845953
     89          1           0      -13.032889   -1.633068   -3.628072
     90          1           0      -12.036174   -0.069515   -4.073374
     91          1           0      -11.291684   -1.567610   -3.406704
     92          1           0       -9.089436   -4.576487   -1.873861
     93          1           0       -8.056618   -5.436130   -0.784597
     94          1           0       -9.462093   -4.800524   -0.229509
     95          1           0       -3.440189   -3.714205   -0.290253
     96          1           0       -1.593398   -4.771221    3.294114
     97          1           0       -2.953777   -5.664378    3.499629
     98          1           0       -1.848857   -6.258560    2.469283
     99          1           0        2.703598   -1.665656   -1.470200
    100          1           0        2.633256    0.058643   -1.964838
    101          1           0        4.172162   -1.275314    0.483077
    102          1           0        3.980673    1.452214   -2.332285
    103          1           0        5.775630    1.996147   -1.765047
    104          1           0        5.709555    0.690903   -2.741630
    105          1           0        6.657292    1.157435    0.495237
    106          1           0        6.482750   -0.530896    0.689942
    107          1           0        7.414828   -1.362883   -1.174140
    108          1           0        8.018796    0.305880   -1.704783
    109          1           0        9.029657    0.781843    0.393397
    110          1           0        9.043679   -0.693931    1.001907
    111          1           0        9.889527    0.045378   -1.716173
    112          1           0        9.222620   -2.357580   -2.041732
    113          1           0       11.013559   -2.484938   -1.869711
    114          1           0       10.021087   -2.949988   -0.510389
    115          1           0       11.496361    0.540533    0.437390
    116          1           0       11.290249   -1.246228    0.873041
    117          1           0       12.987726   -1.503574   -1.041073
    118          1           0       12.960855    0.027770   -1.662403
    119          1           0       13.720444    0.680502    0.562799
    120          1           0       13.923420   -0.764625    1.107059
    121          1           0       15.306188    0.285286   -1.395750
    122          1           0       15.793674   -2.296062    0.039730
    123          1           0       15.062455   -2.125561   -1.521073
    124          1           0       16.783710   -1.626512   -1.392471
    125          1           0       15.754414    1.342795    0.744651
    126          1           0       16.695163   -0.080633    1.439568
    127          1           0       18.323677   -0.261956   -0.362451
    128          1           0       17.649997    1.125072   -1.334114
    129          1           0       18.271964    2.340642    0.948579
    130          1           0       18.689357    1.025359    1.711660
    131          1           0       20.556555    0.397858   -0.037018
    132          1           0       19.990111    3.288725   -1.161902
    133          1           0       21.375683    2.313923   -1.681502
    134          1           0       19.616218    1.648767   -1.788190
    135          1           0       21.172985    1.770565    1.965736
    136          1           0       22.177508    2.150722    0.507676
    137          1           0       20.984943    3.299556    1.003337
 ---------------------------------------------------------------------

 SCF Done:  E(RCAM-B3LYP) =  -2933.44871657     A.U. after   15 cycles

 Excitation energies and oscillator strengths:

 Excited State   1:      Singlet-A      2.1276 eV  582.75 nm  f=0.2055  <S**2>=0.000
     240 -> 243        0.27223
     241 -> 242        0.64962
 This state for optimization and/or second-order correction.
 Total Energy, E(TD-HF/TD-DFT) =  -2933.37052973
 Copying the excited state density for this state as the 1-particle RhoCI density.

 The electronic state is 1-A.
 Alpha  occ. eigenvalues --  -46.80020 -19.21750 -19.21676 -19.16694 -19.15992
 Alpha  occ. eigenvalues --  -19.15134 -14.37047 -14.35283 -14.34742 -14.34421
 Alpha  occ. eigenvalues --  -10.34125 -10.33322 -10.31404 -10.27212 -10.26035
 Alpha  occ. eigenvalues --  -10.25452 -10.25196 -10.24564 -10.24379 -10.24345
 Alpha  occ. eigenvalues --  -10.24335 -10.24314 -10.24267 -10.24238 -10.24048
 Alpha  occ. eigenvalues --  -10.24019 -10.23800 -10.23385 -10.23271 -10.23240
 Alpha  occ. eigenvalues --  -10.23051 -10.22970 -10.22938 -10.22891 -10.22793
 Alpha  occ. eigenvalues --  -10.22640 -10.22414 -10.22340 -10.22198 -10.22153
 Alpha  occ. eigenvalues --  -10.22010 -10.22000 -10.21964 -10.21903 -10.21880
 Alpha  occ. eigenvalues --  -10.21802 -10.21759 -10.21668 -10.21431 -10.21365
 Alpha  occ. eigenvalues --  -10.21208 -10.21178 -10.20886 -10.20802 -10.20702
 Alpha  occ. eigenvalues --  -10.20685 -10.20597 -10.20409 -10.20330 -10.20086
 Alpha  occ. eigenvalues --  -10.20073 -10.20026 -10.19922 -10.19124 -10.18654
 Alpha  occ. eigenvalues --   -3.08553  -1.83509  -1.83024  -1.82945  -1.13768
 Alpha  occ. eigenvalues --   -1.13177  -1.05605  -1.04415  -1.01259  -1.00245
 Alpha  occ. eigenvalues --   -0.99770  -0.98905  -0.97768  -0.86705  -0.86618
 Alpha  occ. eigenvalues --   -0.86384  -0.85810  -0.85015  -0.84254  -0.83899
 Alpha  occ. eigenvalues --   -0.83431  -0.83080  -0.82742  -0.82066  -0.81680
 Alpha  occ. eigenvalues --   -0.81193  -0.80281  -0.79423  -0.78448  -0.77742
 Alpha  occ. eigenvalues --   -0.77559  -0.77047  -0.75737  -0.75540  -0.73747
 Alpha  occ. eigenvalues --   -0.73469  -0.73021  -0.72023  -0.71809  -0.71142
 Alpha  occ. eigenvalues --   -0.70946  -0.70521  -0.69938  -0.69037  -0.67948
 Alpha  occ. eigenvalues --   -0.67535  -0.66569  -0.65044  -0.64652  -0.63915
 Alpha  occ. eigenvalues --   -0.62753  -0.62282  -0.61475  -0.61169  -0.60793
 Alpha  occ. eigenvalues --   -0.60146  -0.59604  -0.59030  -0.58801  -0.58614
 Alpha  occ. eigenvalues --   -0.57705  -0.57095  -0.56224  -0.55638  -0.55319
 Alpha  occ. eigenvalues --   -0.54876  -0.54122  -0.53885  -0.53417  -0.53147
 Alpha  occ. eigenvalues --   -0.52513  -0.51970  -0.51860  -0.51593  -0.51162
 Alpha  occ. eigenvalues --   -0.51067  -0.50629  -0.50260  -0.49611  -0.49363
 Alpha  occ. eigenvalues --   -0.49311  -0.49169  -0.48771  -0.48471  -0.48137
 Alpha  occ. eigenvalues --   -0.47972  -0.47639  -0.47431  -0.47120  -0.46860
 Alpha  occ. eigenvalues --   -0.46644  -0.46515  -0.46352  -0.46193  -0.45997
 Alpha  occ. eigenvalues --   -0.45613  -0.45523  -0.45394  -0.45299  -0.45123
 Alpha  occ. eigenvalues --   -0.44744  -0.44652  -0.44586  -0.44485  -0.43987
 Alpha  occ. eigenvalues --   -0.43905  -0.43532  -0.43479  -0.43280  -0.42840
 Alpha  occ. eigenvalues --   -0.42731  -0.42479  -0.42123  -0.41936  -0.41692
 Alpha  occ. eigenvalues --   -0.41434  -0.41217  -0.41110  -0.40981  -0.40870
 Alpha  occ. eigenvalues --   -0.40688  -0.40613  -0.40169  -0.40003  -0.39775
 Alpha  occ. eigenvalues --   -0.39647  -0.39476  -0.39295  -0.39110  -0.38964
 Alpha  occ. eigenvalues --   -0.38782  -0.38478  -0.38452  -0.38098  -0.38038
 Alpha  occ. eigenvalues --   -0.37843  -0.37589  -0.37106  -0.37007  -0.36930
 Alpha  occ. eigenvalues --   -0.36867  -0.36571  -0.36374  -0.36061  -0.35835
 Alpha  occ. eigenvalues --   -0.35733  -0.35586  -0.35147  -0.34900  -0.34716
 Alpha  occ. eigenvalues --   -0.34120  -0.33905  -0.33796  -0.33612  -0.33403
 Alpha  occ. eigenvalues --   -0.33327  -0.33235  -0.32690  -0.32386  -0.32206
 Alpha  occ. eigenvalues --   -0.31932  -0.31850  -0.31805  -0.30341  -0.30226
 Alpha  occ. eigenvalues --   -0.29836  -0.29691  -0.28896  -0.28274  -0.27033
 Alpha  occ. eigenvalues --   -0.26533  -0.25759  -0.25414  -0.25003  -0.21499
 Alpha  occ. eigenvalues --   -0.19945
 Alpha virt. eigenvalues --   -0.06381  -0.03891   0.00411   0.02638   0.02960
 Alpha virt. eigenvalues --    0.03978   0.04042   0.04880   0.05271   0.05464
 Alpha virt. eigenvalues --    0.07118   0.09209   0.09534   0.09681   0.09872

 Mulliken charges:
               1
     1  Mg   0.818172
     2  C    0.017875
     3  C   -0.165534
     4  C   -0.182775
     5  C   -0.168683
     6  N   -0.613012
     7  C    0.296285
     8  C   -0.190817
     9  C   -0.126412
    10  C    0.361003
    11  C   -0.316722
    12  C   -0.112665
    13  C   -0.278719
    14  C    0.598526
    15  O   -0.517697
    16  O   -0.452806
    17  N   -0.735750
    18  C    0.331036
    19  C   -0.006322
    20  C    0.026675
    21  C    0.294403
    22  C   -0.364012
    23  C   -0.089610
    24  C   -0.234740
    25  N   -0.665801
    26  C    0.254164
    27  C    0.070008
    28  C   -0.046250
    29  C    0.327686
    30  C   -0.389554
    31  C   -0.219477
    32  C   -0.302519
    33  N   -0.745378
    34  C    0.310236
    35  C   -0.045134
    36  C    0.013954
    37  C    0.319959
    38  C   -0.354515
    39  C    0.351689
    40  O   -0.457263
    41  C   -0.308962
    42  C    0.658623
    43  O   -0.493662
    44  O   -0.451342
    45  C   -0.072310
    46  C    0.037681
    47  C   -0.144050
    48  C    0.119999
    49  C   -0.355678
    50  C   -0.226466
    51  C   -0.189349
    52  C   -0.177774
    53  C   -0.048919
    54  C   -0.315102
    55  C   -0.173203
    56  C   -0.163318
    57  C   -0.176721
    58  C   -0.062983
    59  C   -0.305593
    60  C   -0.149125
    61  C   -0.186674
    62  C   -0.180556
    63  C   -0.049193
    64  C   -0.276443
    65  C   -0.302487
    66  H    0.058066
    67  H    0.077166
    68  H    0.106065
    69  H    0.125919
    70  H    0.083966
    71  H    0.101215
    72  H    0.112161
    73  H    0.116180
    74  H    0.117601
    75  H    0.126203
    76  H    0.143841
    77  H    0.130613
    78  H    0.134655
    79  H    0.131715
    80  H    0.094112
    81  H    0.091443
    82  H    0.093899
    83  H    0.107232
    84  H    0.105315
    85  H    0.122770
    86  H    0.124199
    87  H    0.095762
    88  H    0.106593
    89  H    0.093879
    90  H    0.093364
    91  H    0.104808
    92  H    0.121369
    93  H    0.143396
    94  H    0.134073
    95  H    0.171389
    96  H    0.112937
    97  H    0.141509
    98  H    0.126613
    99  H    0.124017
   100  H    0.105593
   101  H    0.063714
   102  H    0.103623
   103  H    0.124564
   104  H    0.140149
   105  H    0.082243
   106  H    0.119182
   107  H    0.097199
   108  H    0.097560
   109  H    0.092835
   110  H    0.086818
   111  H    0.070251
   112  H    0.074353
   113  H    0.095755
   114  H    0.103153
   115  H    0.090741
   116  H    0.098806
   117  H    0.105215
   118  H    0.063857
   119  H    0.080098
   120  H    0.094808
   121  H    0.075498
   122  H    0.065951
   123  H    0.113333
   124  H    0.100269
   125  H    0.092723
   126  H    0.082876
   127  H    0.101952
   128  H    0.091729
   129  H    0.098481
   130  H    0.078312
   131  H    0.074951
   132  H    0.110628
   133  H    0.067374
   134  H    0.100616
   135  H    0.104542
   136  H    0.063179
   137  H    0.097129
 Sum of Mulliken charges =  -0.00000

 Dipole moment (field-independent basis, Debye):
    X=              2.0191    Y=              3.9602    Z=              1.1108  Tot=              4.5819
 Quadrupole moment (field-independent basis, Debye-Ang):
   XX=           -354.6926   YY=           -390.9909   ZZ=           -397.1480
   XY=            -15.2817   XZ=             15.8439   YZ=             -2.8657

 Normal termination of Gaussian 16 at Sat Sep  7 19:42:08 2019.
