 Gaussian 16, Revision A.03,
 Gaussian 16:  ES64L-G16RevA.03 25-Dec-2016

 ----------------------------------------------------------------------
 # td=(NStates=1) iop(3/107=0140000000,3/108=0140000000) CAM-B3LYP/6-31
 G(d,p)
 ----------------------------------------------------------------------

 --
 TD
 --
 Symbolic Z-matrix:
 Charge =  0 Multiplicity = 1

                         Standard orientation:
 ---------------------------------------------------------------------
 Center     Atomic      Atomic             Coordinates (Angstroms)
 Number     Number       Type             X           Y           Z
 ---------------------------------------------------------------------
      1         12           0       -7.035723    0.665548    0.036705
      2          6           0       -4.873368   -1.979559    0.499563
      3          6           0       -4.760796    2.787863    1.202284
      4          6           0       -9.302941    3.100027   -0.421296
      5          6           0       -9.483158   -1.693572   -0.959924
      6          7           0       -5.159702    0.482632    0.753546
      7          6           0       -4.390679   -0.719671    0.764432
      8          6           0       -3.053600   -0.450206    1.269165
      9          6           0       -3.061060    1.109609    1.758785
     10          6           0       -4.442732    1.535024    1.187307
     11          6           0       -2.890773    1.195910    3.350254
     12          6           0       -1.999506   -0.615949    0.183922
     13          6           0       -0.450500   -0.542557    0.621680
     14          6           0        0.536166   -0.697343   -0.558661
     15          8           0        0.159335   -1.084122   -1.677068
     16          8           0        1.776284   -0.436499   -0.118385
     17          7           0       -6.961246    2.537265    0.348991
     18          6           0       -5.984059    3.395094    0.834441
     19          6           0       -6.377434    4.789506    0.900503
     20          6           0       -7.679974    4.847913    0.440671
     21          6           0       -8.020822    3.462066    0.061636
     22          6           0       -5.457101    5.859935    1.254554
     23          6           0       -8.530363    5.956977    0.104901
     24          6           0       -8.268640    7.161394    0.612882
     25          7           0       -9.022156    0.722823   -0.577405
     26          6           0       -9.868031    1.839394   -0.770465
     27          6           0      -11.188282    1.510167   -1.261385
     28          6           0      -11.095343    0.114526   -1.408722
     29          6           0       -9.828716   -0.336751   -0.945757
     30          6           0      -12.286609    2.500384   -1.458896
     31          6           0      -12.350865   -0.660697   -1.775074
     32          6           0      -12.353285   -1.059334   -3.230712
     33          7           0       -7.225551   -1.417017   -0.087907
     34          6           0       -8.283155   -2.174304   -0.475617
     35          6           0       -7.909740   -3.639070   -0.499433
     36          6           0       -6.539181   -3.531842   -0.207721
     37          6           0       -6.183040   -2.173517    0.035004
     38          6           0       -8.705497   -4.858197   -0.819267
     39          6           0       -5.328620   -4.372258    0.258720
     40          8           0       -5.223055   -5.538023    0.188138
     41          6           0       -4.164220   -3.301392    0.596313
     42          6           0       -3.542717   -3.702712    1.886897
     43          8           0       -3.658951   -3.248362    3.021991
     44          8           0       -2.711828   -4.661015    1.625678
     45          6           0       -2.153642   -5.190884    2.854701
     46          6           0        2.841359   -0.615068   -1.129722
     47          6           0        4.150389   -0.390304   -0.369145
     48          6           0        5.055144    0.344366   -0.865176
     49          6           0        4.912923    1.149745   -2.180205
     50          6           0        6.461253    0.441395   -0.197003
     51          6           0        7.588527   -0.180879   -0.942360
     52          6           0        8.922269   -0.077908   -0.170136
     53          6           0       10.142656   -0.544225   -1.012180
     54          6           0        9.990044   -2.053024   -1.417991
     55          6           0       11.398735   -0.387705   -0.161877
     56          6           0       12.773984   -0.486061   -0.748464
     57          6           0       13.894602   -0.134682    0.138774
     58          6           0       15.346385   -0.335221   -0.483854
     59          6           0       15.717282   -1.719275   -0.774495
     60          6           0       16.399945    0.407051    0.521996
     61          6           0       17.799286    0.490500   -0.163932
     62          6           0       18.792089    1.275691    0.690844
     63          6           0       20.245926    1.440860    0.122335
     64          6           0       20.158874    2.349497   -1.046866
     65          6           0       21.188765    1.907857    1.178493
     66          1           0       -3.990980    3.541633    1.861738
     67          1           0      -10.191050    3.737667   -0.452911
     68          1           0      -10.288908   -2.369368   -1.334786
     69          1           0       -3.048258   -1.203180    2.214311
     70          1           0       -2.123911    1.819062    1.325783
     71          1           0       -2.093806    0.511576    3.588456
     72          1           0       -2.979473    2.265602    3.833462
     73          1           0       -3.784477    0.744894    3.700261
     74          1           0       -2.172864   -1.566277   -0.417465
     75          1           0       -1.873349    0.105799   -0.570157
     76          1           0       -0.333105    0.463164    1.016328
     77          1           0       -0.071422   -1.381996    1.291483
     78          1           0       -5.665694    6.649259    0.551303
     79          1           0       -5.524997    6.289767    2.319326
     80          1           0       -4.371209    5.488589    0.996075
     81          1           0       -9.294604    5.621136   -0.575382
     82          1           0       -8.959988    8.045582    0.372802
     83          1           0       -7.444357    7.662040    1.337465
     84          1           0      -11.687090    3.363916   -2.012814
     85          1           0      -13.053563    2.002247   -2.250583
     86          1           0      -12.581777    2.840761   -0.633355
     87          1           0      -12.376474   -1.431802   -1.104639
     88          1           0      -13.199044    0.077452   -1.260853
     89          1           0      -13.359157   -1.685909   -3.613781
     90          1           0      -12.259720   -0.158438   -3.717326
     91          1           0      -11.529759   -1.883302   -3.237732
     92          1           0       -9.080157   -4.591709   -1.707848
     93          1           0       -8.318671   -5.837971   -0.846851
     94          1           0       -9.444111   -4.953465   -0.027422
     95          1           0       -3.328016   -3.275160   -0.120118
     96          1           0       -1.317150   -4.579939    3.259526
     97          1           0       -2.810761   -5.456507    3.538454
     98          1           0       -1.596251   -6.070853    2.558106
     99          1           0        2.585698   -1.658621   -1.553823
    100          1           0        2.674039    0.040554   -1.881379
    101          1           0        4.010157   -0.878730    0.868770
    102          1           0        3.877568    1.392219   -2.539257
    103          1           0        5.264980    2.152148   -1.891390
    104          1           0        5.645600    0.702832   -2.963139
    105          1           0        6.730181    1.573418    0.071997
    106          1           0        6.321510   -0.061892    0.851040
    107          1           0        7.176613   -1.178355   -1.126338
    108          1           0        7.700849    0.281814   -1.854555
    109          1           0        8.990537    0.909979    0.201546
    110          1           0        8.828854   -0.767236    0.518070
    111          1           0       10.165217    0.003430   -1.987008
    112          1           0        9.043494   -2.121749   -1.954020
    113          1           0       10.743119   -2.482369   -2.036094
    114          1           0       10.134124   -2.639802   -0.343125
    115          1           0       11.279580    0.671912    0.232575
    116          1           0       11.337729   -0.965520    0.663674
    117          1           0       13.048010   -1.613374   -1.059012
    118          1           0       12.799329    0.190140   -1.515033
    119          1           0       13.497662    0.845452    0.474224
    120          1           0       13.924450   -0.826002    0.950884
    121          1           0       15.372498    0.325465   -1.362599
    122          1           0       15.421359   -2.477787   -0.024484
    123          1           0       15.132657   -2.042215   -1.580344
    124          1           0       16.805290   -1.828313   -1.236063
    125          1           0       16.040018    1.509046    0.783689
    126          1           0       16.478785   -0.219649    1.423351
    127          1           0       18.168118   -0.569056   -0.542501
    128          1           0       17.803576    0.980105   -1.083585
    129          1           0       18.337770    2.232813    0.812389
    130          1           0       18.882370    0.838481    1.733191
    131          1           0       20.601986    0.282491   -0.208339
    132          1           0       19.745226    3.332787   -0.681850
    133          1           0       21.125138    2.458784   -1.508859
    134          1           0       19.571305    1.991139   -1.971515
    135          1           0       21.137723    1.358675    1.981931
    136          1           0       22.210050    1.857879    0.795230
    137          1           0       20.767047    3.000996    1.588704
 ---------------------------------------------------------------------

 SCF Done:  E(RCAM-B3LYP) =  -2933.48693698     A.U. after   15 cycles

 Excitation energies and oscillator strengths:

 Excited State   1:      Singlet-A      2.1044 eV  589.17 nm  f=0.2398  <S**2>=0.000
     240 -> 243        0.24784
     241 -> 242        0.65804
 This state for optimization and/or second-order correction.
 Total Energy, E(TD-HF/TD-DFT) =  -2933.40960201
 Copying the excited state density for this state as the 1-particle RhoCI density.

 The electronic state is 1-A.
 Alpha  occ. eigenvalues --  -46.78145 -19.22855 -19.22345 -19.17074 -19.16363
 Alpha  occ. eigenvalues --  -19.15857 -14.36443 -14.35225 -14.34851 -14.34461
 Alpha  occ. eigenvalues --  -10.34307 -10.33961 -10.31089 -10.27356 -10.25740
 Alpha  occ. eigenvalues --  -10.25726 -10.25298 -10.25159 -10.24934 -10.24662
 Alpha  occ. eigenvalues --  -10.24641 -10.24260 -10.24037 -10.23899 -10.23642
 Alpha  occ. eigenvalues --  -10.23584 -10.23572 -10.23514 -10.23390 -10.23306
 Alpha  occ. eigenvalues --  -10.23237 -10.23220 -10.23020 -10.23003 -10.22984
 Alpha  occ. eigenvalues --  -10.22742 -10.22657 -10.22578 -10.22385 -10.22335
 Alpha  occ. eigenvalues --  -10.22196 -10.22086 -10.22071 -10.22058 -10.21957
 Alpha  occ. eigenvalues --  -10.21956 -10.21929 -10.21773 -10.21716 -10.21293
 Alpha  occ. eigenvalues --  -10.21110 -10.21094 -10.21078 -10.20662 -10.20605
 Alpha  occ. eigenvalues --  -10.20589 -10.20526 -10.20382 -10.20381 -10.20086
 Alpha  occ. eigenvalues --  -10.20010 -10.19988 -10.19941 -10.19825 -10.19812
 Alpha  occ. eigenvalues --   -3.07126  -1.82032  -1.81631  -1.81542  -1.15344
 Alpha  occ. eigenvalues --   -1.12140  -1.09043  -1.03351  -1.03189  -1.00045
 Alpha  occ. eigenvalues --   -0.97600  -0.96525  -0.95739  -0.87537  -0.86880
 Alpha  occ. eigenvalues --   -0.85727  -0.84823  -0.84528  -0.83711  -0.83633
 Alpha  occ. eigenvalues --   -0.83236  -0.83171  -0.82273  -0.81796  -0.81162
 Alpha  occ. eigenvalues --   -0.80173  -0.79358  -0.79188  -0.78134  -0.78109
 Alpha  occ. eigenvalues --   -0.77083  -0.76611  -0.75770  -0.75294  -0.73629
 Alpha  occ. eigenvalues --   -0.73053  -0.72431  -0.72092  -0.71698  -0.71602
 Alpha  occ. eigenvalues --   -0.70704  -0.70517  -0.69599  -0.69079  -0.67773
 Alpha  occ. eigenvalues --   -0.66532  -0.65476  -0.64744  -0.64018  -0.63662
 Alpha  occ. eigenvalues --   -0.62592  -0.62132  -0.60636  -0.60356  -0.60299
 Alpha  occ. eigenvalues --   -0.59654  -0.59306  -0.58826  -0.58432  -0.57863
 Alpha  occ. eigenvalues --   -0.57035  -0.55714  -0.55474  -0.54817  -0.54356
 Alpha  occ. eigenvalues --   -0.54197  -0.53891  -0.53123  -0.52875  -0.52556
 Alpha  occ. eigenvalues --   -0.52396  -0.52115  -0.51451  -0.51247  -0.50761
 Alpha  occ. eigenvalues --   -0.50438  -0.49809  -0.49637  -0.49563  -0.49295
 Alpha  occ. eigenvalues --   -0.49083  -0.48587  -0.48442  -0.48238  -0.48027
 Alpha  occ. eigenvalues --   -0.47864  -0.47658  -0.47293  -0.47202  -0.46954
 Alpha  occ. eigenvalues --   -0.46850  -0.46728  -0.46417  -0.46150  -0.45992
 Alpha  occ. eigenvalues --   -0.45931  -0.45724  -0.45365  -0.45186  -0.44843
 Alpha  occ. eigenvalues --   -0.44728  -0.44554  -0.44457  -0.44091  -0.43608
 Alpha  occ. eigenvalues --   -0.43449  -0.43178  -0.42804  -0.42734  -0.42581
 Alpha  occ. eigenvalues --   -0.42222  -0.42175  -0.42038  -0.41759  -0.41356
 Alpha  occ. eigenvalues --   -0.41084  -0.40999  -0.40893  -0.40635  -0.40427
 Alpha  occ. eigenvalues --   -0.40349  -0.40300  -0.40226  -0.40061  -0.39731
 Alpha  occ. eigenvalues --   -0.39540  -0.39338  -0.39208  -0.38942  -0.38841
 Alpha  occ. eigenvalues --   -0.38811  -0.38707  -0.38520  -0.38329  -0.38117
 Alpha  occ. eigenvalues --   -0.38020  -0.37823  -0.37445  -0.37226  -0.37077
 Alpha  occ. eigenvalues --   -0.36391  -0.36232  -0.36098  -0.35788  -0.35656
 Alpha  occ. eigenvalues --   -0.35472  -0.35139  -0.34843  -0.34600  -0.34266
 Alpha  occ. eigenvalues --   -0.34116  -0.33993  -0.33787  -0.33731  -0.33595
 Alpha  occ. eigenvalues --   -0.33389  -0.33190  -0.32997  -0.32819  -0.32705
 Alpha  occ. eigenvalues --   -0.32250  -0.32221  -0.32141  -0.30422  -0.29987
 Alpha  occ. eigenvalues --   -0.29901  -0.29723  -0.29082  -0.28323  -0.28105
 Alpha  occ. eigenvalues --   -0.26971  -0.26535  -0.25313  -0.24835  -0.21512
 Alpha  occ. eigenvalues --   -0.19817
 Alpha virt. eigenvalues --   -0.06443  -0.03707   0.00848   0.02515   0.04213
 Alpha virt. eigenvalues --    0.04521   0.04905   0.05027   0.05242   0.06140
 Alpha virt. eigenvalues --    0.07058   0.08515   0.09176   0.09384   0.09879

 Mulliken charges:
               1
     1  Mg   0.819223
     2  C    0.109743
     3  C   -0.227501
     4  C   -0.194621
     5  C   -0.160240
     6  N   -0.676196
     7  C    0.293784
     8  C   -0.196278
     9  C   -0.140614
    10  C    0.404334
    11  C   -0.315915
    12  C   -0.170798
    13  C   -0.265572
    14  C    0.589021
    15  O   -0.490192
    16  O   -0.465801
    17  N   -0.720259
    18  C    0.316050
    19  C    0.048952
    20  C    0.042102
    21  C    0.273309
    22  C   -0.392328
    23  C   -0.040757
    24  C   -0.263915
    25  N   -0.673837
    26  C    0.238382
    27  C    0.048448
    28  C   -0.032700
    29  C    0.329168
    30  C   -0.350002
    31  C   -0.241600
    32  C   -0.274732
    33  N   -0.695175
    34  C    0.259654
    35  C   -0.008010
    36  C   -0.054402
    37  C    0.313418
    38  C   -0.364295
    39  C    0.385881
    40  O   -0.410873
    41  C   -0.329261
    42  C    0.611263
    43  O   -0.506105
    44  O   -0.408106
    45  C   -0.088498
    46  C    0.011585
    47  C   -0.110081
    48  C    0.115793
    49  C   -0.365811
    50  C   -0.226600
    51  C   -0.181753
    52  C   -0.148238
    53  C   -0.079720
    54  C   -0.302242
    55  C   -0.159056
    56  C   -0.161796
    57  C   -0.170945
    58  C   -0.053553
    59  C   -0.320982
    60  C   -0.166402
    61  C   -0.174023
    62  C   -0.163581
    63  C   -0.044361
    64  C   -0.292462
    65  C   -0.278832
    66  H    0.060607
    67  H    0.070914
    68  H    0.087244
    69  H    0.136326
    70  H    0.073632
    71  H    0.123940
    72  H    0.097287
    73  H    0.129857
    74  H    0.103152
    75  H    0.128622
    76  H    0.128654
    77  H    0.123374
    78  H    0.127727
    79  H    0.116728
    80  H    0.104740
    81  H    0.103877
    82  H    0.087440
    83  H    0.111192
    84  H    0.106691
    85  H    0.109224
    86  H    0.145645
    87  H    0.113458
    88  H    0.073441
    89  H    0.074786
    90  H    0.126880
    91  H    0.104334
    92  H    0.135526
    93  H    0.148367
    94  H    0.129226
    95  H    0.169161
    96  H    0.119933
    97  H    0.150601
    98  H    0.116149
    99  H    0.125520
   100  H    0.125661
   101  H    0.078049
   102  H    0.119111
   103  H    0.123798
   104  H    0.121017
   105  H    0.069901
   106  H    0.087144
   107  H    0.104487
   108  H    0.099581
   109  H    0.097163
   110  H    0.108256
   111  H    0.073004
   112  H    0.103609
   113  H    0.114516
   114  H    0.067273
   115  H    0.065479
   116  H    0.094417
   117  H    0.058300
   118  H    0.096398
   119  H    0.079897
   120  H    0.085983
   121  H    0.082381
   122  H    0.103910
   123  H    0.118226
   124  H    0.097158
   125  H    0.074184
   126  H    0.093460
   127  H    0.067681
   128  H    0.098628
   129  H    0.088857
   130  H    0.070780
   131  H    0.045422
   132  H    0.096775
   133  H    0.098528
   134  H    0.092994
   135  H    0.118429
   136  H    0.101238
   137  H    0.062963
 Sum of Mulliken charges =  -0.00000

 Dipole moment (field-independent basis, Debye):
    X=              1.9778    Y=              3.1618    Z=             -0.3615  Tot=              3.7469
 Quadrupole moment (field-independent basis, Debye-Ang):
   XX=           -347.5067   YY=           -385.2165   ZZ=           -398.8771
   XY=            -16.3102   XZ=              4.1091   YZ=             -2.7575

 Normal termination of Gaussian 16 at Tue Sep 10 01:04:15 2019.
