 Gaussian 16, Revision A.03,
 Gaussian 16:  ES64L-G16RevA.03 25-Dec-2016

 ----------------------------------------------------------------------
 # td=(NStates=1) iop(3/107=0140000000,3/108=0140000000) CAM-B3LYP/6-31
 G(d,p)
 ----------------------------------------------------------------------

 --
 TD
 --
 Symbolic Z-matrix:
 Charge =  0 Multiplicity = 1

                         Standard orientation:
 ---------------------------------------------------------------------
 Center     Atomic      Atomic             Coordinates (Angstroms)
 Number     Number       Type             X           Y           Z
 ---------------------------------------------------------------------
      1         12           0       -7.179960    0.601324    0.038696
      2          6           0       -4.864705   -2.012548    0.568309
      3          6           0       -4.786598    2.854614    1.194871
      4          6           0       -9.388098    3.089115   -0.342417
      5          6           0       -9.526763   -1.790446   -0.926320
      6          7           0       -5.038048    0.429968    0.613473
      7          6           0       -4.246219   -0.755445    0.624605
      8          6           0       -2.929693   -0.413577    1.152899
      9          6           0       -2.971536    1.057633    1.520428
     10          6           0       -4.383973    1.554522    1.098117
     11          6           0       -2.821240    1.381155    3.093064
     12          6           0       -1.909745   -0.532086    0.084789
     13          6           0       -0.384450   -0.420702    0.491027
     14          6           0        0.537436   -0.656017   -0.608805
     15          8           0        0.302460   -0.905199   -1.785650
     16          8           0        1.799824   -0.573339   -0.119493
     17          7           0       -7.083153    2.597709    0.312061
     18          6           0       -6.065833    3.337552    0.880817
     19          6           0       -6.440724    4.694308    0.868695
     20          6           0       -7.758508    4.842826    0.359710
     21          6           0       -8.186143    3.395235    0.150726
     22          6           0       -5.509645    5.829992    1.272988
     23          6           0       -8.668230    5.937431    0.204006
     24          6           0       -8.472031    7.174726    0.770101
     25          7           0       -9.146580    0.639478   -0.659706
     26          6           0       -9.930761    1.740450   -0.613419
     27          6           0      -11.149982    1.503448   -1.171146
     28          6           0      -11.261786    0.187554   -1.190656
     29          6           0       -9.899190   -0.449261   -0.960185
     30          6           0      -12.195305    2.488424   -1.378119
     31          6           0      -12.328253   -0.577366   -1.798945
     32          6           0      -12.427880   -0.941748   -3.428511
     33          7           0       -7.185186   -1.370117   -0.202204
     34          6           0       -8.218128   -2.205292   -0.513683
     35          6           0       -7.909654   -3.655131   -0.307001
     36          6           0       -6.509750   -3.558205    0.031071
     37          6           0       -6.194183   -2.170305    0.171665
     38          6           0       -8.744237   -4.795706   -0.648150
     39          6           0       -5.365956   -4.393594    0.265950
     40          8           0       -5.217165   -5.631205    0.168723
     41          6           0       -4.288659   -3.399523    0.620717
     42          6           0       -3.578968   -3.740856    1.935655
     43          8           0       -3.770384   -3.160139    3.032762
     44          8           0       -2.794799   -4.724585    1.762963
     45          6           0       -2.139600   -5.267309    3.023963
     46          6           0        2.824570   -0.648058   -1.108666
     47          6           0        4.091768   -0.538479   -0.471829
     48          6           0        5.103425    0.372088   -0.864049
     49          6           0        5.013873    1.011844   -2.201079
     50          6           0        6.510964    0.477524   -0.123739
     51          6           0        7.588781   -0.114907   -1.084002
     52          6           0        8.923139   -0.065987   -0.230848
     53          6           0       10.176768   -0.493743   -0.973250
     54          6           0       10.112658   -1.973095   -1.439098
     55          6           0       11.447149   -0.314543   -0.146053
     56          6           0       12.877608   -0.585844   -0.723906
     57          6           0       14.012203   -0.057999    0.166596
     58          6           0       15.373358   -0.175208   -0.607277
     59          6           0       15.794783   -1.563985   -0.968501
     60          6           0       16.449406    0.460789    0.367772
     61          6           0       17.869398    0.560568   -0.144691
     62          6           0       18.757790    1.249628    0.777408
     63          6           0       20.305204    1.304530    0.312142
     64          6           0       20.363988    2.095674   -0.982967
     65          6           0       21.061122    2.004536    1.377706
     66          1           0       -4.167517    3.635095    1.638271
     67          1           0      -10.044559    4.102224   -0.400008
     68          1           0      -10.097195   -2.584626   -1.349058
     69          1           0       -2.958315   -1.091599    2.067309
     70          1           0       -2.350416    1.647575    0.898979
     71          1           0       -1.792774    1.088387    3.394232
     72          1           0       -3.120939    2.410155    3.218770
     73          1           0       -3.617442    0.999743    3.700288
     74          1           0       -2.020779   -1.382993   -0.443875
     75          1           0       -2.181626    0.082563   -0.739266
     76          1           0       -0.335056    0.696656    0.926562
     77          1           0       -0.029616   -0.952127    1.208821
     78          1           0       -5.582410    6.650487    0.748951
     79          1           0       -5.488201    6.229049    2.487920
     80          1           0       -4.387633    5.553293    1.083103
     81          1           0       -9.557501    5.726271   -0.529488
     82          1           0       -9.237919    7.867225    0.305268
     83          1           0       -7.774923    7.570339    1.628423
     84          1           0      -11.887096    3.025868   -2.104738
     85          1           0      -13.212768    2.199338   -1.793719
     86          1           0      -12.341029    2.896204   -0.297584
     87          1           0      -12.330660   -1.671285   -1.602683
     88          1           0      -13.262553   -0.127846   -1.588085
     89          1           0      -13.388755   -1.493240   -3.614774
     90          1           0      -12.637717    0.020347   -3.985331
     91          1           0      -11.654801   -1.594167   -3.699337
     92          1           0       -9.088905   -4.752538   -1.744442
     93          1           0       -7.977671   -5.748796   -0.530510
     94          1           0       -9.578406   -5.025211    0.142026
     95          1           0       -3.577311   -3.514112   -0.200109
     96          1           0       -1.488465   -4.393792    3.484251
     97          1           0       -2.815193   -5.798172    3.748258
     98          1           0       -1.475463   -6.120505    2.702956
     99          1           0        2.791914   -1.542545   -1.853260
    100          1           0        2.546019    0.042625   -1.967167
    101          1           0        4.488188   -1.039741    0.350897
    102          1           0        3.944916    1.212342   -2.448529
    103          1           0        5.281633    2.228857   -2.272756
    104          1           0        5.648953    0.530252   -2.968815
    105          1           0        6.695213    1.467267    0.198659
    106          1           0        6.341387    0.005565    0.957311
    107          1           0        7.297987   -1.298505   -1.584187
    108          1           0        7.656050    0.654075   -1.828047
    109          1           0        9.047664    0.957497    0.310430
    110          1           0        8.783428   -0.673575    0.646443
    111          1           0       10.076587    0.043607   -2.033174
    112          1           0        9.036744   -2.392265   -1.765243
    113          1           0       10.875309   -2.353778   -2.289117
    114          1           0       10.471715   -2.530857   -0.389700
    115          1           0       11.277370    0.694202    0.237104
    116          1           0       11.321203   -0.666846    0.811902
    117          1           0       12.888161   -1.683121   -0.807887
    118          1           0       12.931222   -0.076177   -1.702544
    119          1           0       13.695733    0.925516    0.638323
    120          1           0       13.910781   -0.879526    1.060234
    121          1           0       15.405458    0.450285   -1.479582
    122          1           0       15.764286   -2.130499   -0.018151
    123          1           0       15.045456   -2.193316   -1.670269
    124          1           0       16.902116   -1.627611   -1.262333
    125          1           0       16.166480    1.337682    0.773944
    126          1           0       16.355371   -0.378868    1.132500
    127          1           0       18.372152   -0.510879   -0.196148
    128          1           0       17.863886    1.091066   -1.157548
    129          1           0       18.482466    2.143765    1.027310
    130          1           0       18.852304    0.601581    1.770045
    131          1           0       20.751792    0.328981    0.175415
    132          1           0       19.927040    2.910614   -0.964083
    133          1           0       21.444243    2.309891   -1.271327
    134          1           0       19.657077    1.776020   -1.894607
    135          1           0       21.077771    1.269530    2.172091
    136          1           0       22.102342    2.299234    1.061976
    137          1           0       20.620234    3.173204    1.783461
 ---------------------------------------------------------------------

 SCF Done:  E(RCAM-B3LYP) =  -2933.39840385     A.U. after   16 cycles

 Excitation energies and oscillator strengths:

 Excited State   1:      Singlet-A      1.9926 eV  622.21 nm  f=0.2776  <S**2>=0.000
     240 -> 243        0.23441
     241 -> 242        0.65818
 This state for optimization and/or second-order correction.
 Total Energy, E(TD-HF/TD-DFT) =  -2933.32517610
 Copying the excited state density for this state as the 1-particle RhoCI density.

 The electronic state is 1-A.
 Alpha  occ. eigenvalues --  -46.79640 -19.23685 -19.22107 -19.16840 -19.15369
 Alpha  occ. eigenvalues --  -19.15191 -14.36968 -14.35509 -14.35118 -14.34930
 Alpha  occ. eigenvalues --  -10.34286 -10.34285 -10.29515 -10.29470 -10.27591
 Alpha  occ. eigenvalues --  -10.26205 -10.26010 -10.25437 -10.24950 -10.24658
 Alpha  occ. eigenvalues --  -10.24607 -10.24452 -10.24382 -10.24142 -10.24107
 Alpha  occ. eigenvalues --  -10.24056 -10.23896 -10.23829 -10.23464 -10.23462
 Alpha  occ. eigenvalues --  -10.23437 -10.23214 -10.23212 -10.23094 -10.23039
 Alpha  occ. eigenvalues --  -10.22973 -10.22972 -10.22883 -10.22736 -10.22608
 Alpha  occ. eigenvalues --  -10.22480 -10.22472 -10.22361 -10.21976 -10.21906
 Alpha  occ. eigenvalues --  -10.21842 -10.21795 -10.21556 -10.21536 -10.21529
 Alpha  occ. eigenvalues --  -10.21394 -10.21260 -10.21230 -10.21137 -10.21077
 Alpha  occ. eigenvalues --  -10.21073 -10.21037 -10.21014 -10.20748 -10.20695
 Alpha  occ. eigenvalues --  -10.20000 -10.19978 -10.19970 -10.19842 -10.19143
 Alpha  occ. eigenvalues --   -3.08235  -1.83185  -1.82692  -1.82648  -1.14632
 Alpha  occ. eigenvalues --   -1.13313  -1.04032  -1.03537  -1.01837  -0.99633
 Alpha  occ. eigenvalues --   -0.98833  -0.97889  -0.96394  -0.88238  -0.85867
 Alpha  occ. eigenvalues --   -0.85727  -0.85172  -0.84572  -0.84392  -0.84017
 Alpha  occ. eigenvalues --   -0.83452  -0.83383  -0.82265  -0.81956  -0.81300
 Alpha  occ. eigenvalues --   -0.79990  -0.79692  -0.78641  -0.78431  -0.77492
 Alpha  occ. eigenvalues --   -0.76935  -0.76553  -0.75839  -0.74860  -0.73684
 Alpha  occ. eigenvalues --   -0.72998  -0.72410  -0.72083  -0.71655  -0.70895
 Alpha  occ. eigenvalues --   -0.70215  -0.69923  -0.69356  -0.68882  -0.68100
 Alpha  occ. eigenvalues --   -0.67496  -0.66573  -0.65575  -0.64228  -0.64084
 Alpha  occ. eigenvalues --   -0.62938  -0.62054  -0.61705  -0.60450  -0.60096
 Alpha  occ. eigenvalues --   -0.60060  -0.59920  -0.59508  -0.58688  -0.58273
 Alpha  occ. eigenvalues --   -0.57821  -0.56198  -0.55938  -0.55669  -0.54768
 Alpha  occ. eigenvalues --   -0.54704  -0.54014  -0.53929  -0.53310  -0.53028
 Alpha  occ. eigenvalues --   -0.51810  -0.51220  -0.51191  -0.51047  -0.50866
 Alpha  occ. eigenvalues --   -0.50718  -0.50212  -0.49608  -0.49349  -0.49053
 Alpha  occ. eigenvalues --   -0.48787  -0.48607  -0.48542  -0.48477  -0.48102
 Alpha  occ. eigenvalues --   -0.47929  -0.47773  -0.47431  -0.47237  -0.46948
 Alpha  occ. eigenvalues --   -0.46594  -0.46493  -0.46302  -0.45953  -0.45740
 Alpha  occ. eigenvalues --   -0.45381  -0.45207  -0.45098  -0.44884  -0.44843
 Alpha  occ. eigenvalues --   -0.44696  -0.44426  -0.44306  -0.43990  -0.43735
 Alpha  occ. eigenvalues --   -0.43332  -0.43183  -0.43028  -0.42633  -0.42358
 Alpha  occ. eigenvalues --   -0.42199  -0.41877  -0.41824  -0.41693  -0.41256
 Alpha  occ. eigenvalues --   -0.40983  -0.40725  -0.40553  -0.40377  -0.40252
 Alpha  occ. eigenvalues --   -0.40084  -0.39947  -0.39827  -0.39661  -0.39600
 Alpha  occ. eigenvalues --   -0.39581  -0.39406  -0.38892  -0.38833  -0.38699
 Alpha  occ. eigenvalues --   -0.38676  -0.38413  -0.38251  -0.37757  -0.37704
 Alpha  occ. eigenvalues --   -0.37524  -0.37460  -0.37292  -0.37115  -0.36881
 Alpha  occ. eigenvalues --   -0.36809  -0.36541  -0.36136  -0.35786  -0.35389
 Alpha  occ. eigenvalues --   -0.35310  -0.35110  -0.34980  -0.34668  -0.34607
 Alpha  occ. eigenvalues --   -0.34468  -0.34268  -0.33998  -0.33974  -0.33780
 Alpha  occ. eigenvalues --   -0.33192  -0.32758  -0.32660  -0.32298  -0.32144
 Alpha  occ. eigenvalues --   -0.32011  -0.31554  -0.31290  -0.30584  -0.30088
 Alpha  occ. eigenvalues --   -0.29882  -0.29426  -0.29160  -0.28228  -0.26885
 Alpha  occ. eigenvalues --   -0.26355  -0.25452  -0.25431  -0.24651  -0.21810
 Alpha  occ. eigenvalues --   -0.19810
 Alpha virt. eigenvalues --   -0.07139  -0.04396  -0.00739   0.01680   0.03076
 Alpha virt. eigenvalues --    0.03509   0.04145   0.05039   0.05632   0.05916
 Alpha virt. eigenvalues --    0.06262   0.08697   0.08903   0.09190   0.09810

 Mulliken charges:
               1
     1  Mg   0.808806
     2  C    0.113331
     3  C   -0.176213
     4  C   -0.178870
     5  C   -0.146513
     6  N   -0.626298
     7  C    0.240905
     8  C   -0.154176
     9  C   -0.142604
    10  C    0.318596
    11  C   -0.319410
    12  C   -0.194364
    13  C   -0.250912
    14  C    0.625014
    15  O   -0.489541
    16  O   -0.465481
    17  N   -0.725713
    18  C    0.351635
    19  C   -0.014628
    20  C    0.066059
    21  C    0.318843
    22  C   -0.365735
    23  C   -0.114437
    24  C   -0.236980
    25  N   -0.685454
    26  C    0.269525
    27  C    0.066734
    28  C   -0.007243
    29  C    0.310712
    30  C   -0.353926
    31  C   -0.256658
    32  C   -0.328289
    33  N   -0.720395
    34  C    0.240886
    35  C    0.070836
    36  C    0.005413
    37  C    0.310470
    38  C   -0.411575
    39  C    0.354330
    40  O   -0.496266
    41  C   -0.328471
    42  C    0.621408
    43  O   -0.517707
    44  O   -0.400724
    45  C   -0.100558
    46  C    0.002229
    47  C   -0.084240
    48  C    0.078466
    49  C   -0.361161
    50  C   -0.226567
    51  C   -0.160688
    52  C   -0.179693
    53  C   -0.032752
    54  C   -0.283264
    55  C   -0.197391
    56  C   -0.171578
    57  C   -0.167020
    58  C   -0.059804
    59  C   -0.311235
    60  C   -0.161328
    61  C   -0.161591
    62  C   -0.153759
    63  C   -0.057842
    64  C   -0.293687
    65  C   -0.278282
    66  H    0.086280
    67  H    0.073644
    68  H    0.091676
    69  H    0.140749
    70  H    0.112314
    71  H    0.108075
    72  H    0.106073
    73  H    0.129813
    74  H    0.114181
    75  H    0.125042
    76  H    0.121635
    77  H    0.143432
    78  H    0.137020
    79  H    0.079626
    80  H    0.095418
    81  H    0.101510
    82  H    0.094964
    83  H    0.121750
    84  H    0.135279
    85  H    0.100557
    86  H    0.120205
    87  H    0.097436
    88  H    0.097026
    89  H    0.100531
    90  H    0.100213
    91  H    0.120346
    92  H    0.127928
    93  H    0.136619
    94  H    0.127159
    95  H    0.167770
    96  H    0.136740
    97  H    0.151022
    98  H    0.131108
    99  H    0.117665
   100  H    0.120868
   101  H    0.086102
   102  H    0.113613
   103  H    0.064588
   104  H    0.132866
   105  H    0.120871
   106  H    0.075302
   107  H    0.077947
   108  H    0.122007
   109  H    0.081299
   110  H    0.100773
   111  H    0.064002
   112  H    0.079378
   113  H    0.092944
   114  H    0.064263
   115  H    0.073736
   116  H    0.096354
   117  H    0.105459
   118  H    0.094415
   119  H    0.094825
   120  H    0.066670
   121  H    0.089633
   122  H    0.099146
   123  H    0.090516
   124  H    0.108160
   125  H    0.092214
   126  H    0.080536
   127  H    0.077880
   128  H    0.079724
   129  H    0.097667
   130  H    0.064204
   131  H    0.093072
   132  H    0.119129
   133  H    0.084274
   134  H    0.066658
   135  H    0.105981
   136  H    0.094545
   137  H    0.054402
 Sum of Mulliken charges =  -0.00000

 Dipole moment (field-independent basis, Debye):
    X=              1.3491    Y=              4.4341    Z=              0.9938  Tot=              4.7402
 Quadrupole moment (field-independent basis, Debye-Ang):
   XX=           -345.9795   YY=           -388.5471   ZZ=           -398.6986
   XY=            -20.3918   XZ=             15.8478   YZ=             -4.0660

 Normal termination of Gaussian 16 at Mon Sep 16 17:45:47 2019.
