 Gaussian 16, Revision A.03,
 Gaussian 16:  ES64L-G16RevA.03 25-Dec-2016

 ----------------------------------------------------------------------
 # td=(NStates=1) iop(3/107=0140000000,3/108=0140000000) CAM-B3LYP/6-31
 G(d,p)
 ----------------------------------------------------------------------

 --
 TD
 --
 Symbolic Z-matrix:
 Charge =  0 Multiplicity = 1

                         Standard orientation:
 ---------------------------------------------------------------------
 Center     Atomic      Atomic             Coordinates (Angstroms)
 Number     Number       Type             X           Y           Z
 ---------------------------------------------------------------------
      1         12           0       -7.078778    0.649503    0.199406
      2          6           0       -4.813987   -1.998718    0.449931
      3          6           0       -4.743030    2.810951    1.143674
      4          6           0       -9.466840    3.086959   -0.237260
      5          6           0       -9.568351   -1.695366   -0.724898
      6          7           0       -5.073834    0.402675    0.629452
      7          6           0       -4.321288   -0.739931    0.737360
      8          6           0       -2.886609   -0.386754    1.143534
      9          6           0       -3.005216    1.091554    1.709172
     10          6           0       -4.307724    1.461330    1.140145
     11          6           0       -2.980747    1.148781    3.266455
     12          6           0       -1.996565   -0.641454   -0.047308
     13          6           0       -0.460236   -0.450401    0.308254
     14          6           0        0.480602   -0.515101   -0.745917
     15          8           0        0.250555   -0.931844   -1.867432
     16          8           0        1.864597   -0.310912   -0.293985
     17          7           0       -7.173813    2.614569    0.426521
     18          6           0       -6.021303    3.375717    0.827277
     19          6           0       -6.364782    4.808601    0.754969
     20          6           0       -7.679518    4.811109    0.367376
     21          6           0       -8.200012    3.506986    0.048932
     22          6           0       -5.530672    5.996922    1.092676
     23          6           0       -8.542875    5.945955    0.118898
     24          6           0       -8.390149    7.208064    0.616441
     25          7           0       -9.210610    0.712232   -0.351578
     26          6           0       -9.900113    1.774082   -0.633771
     27          6           0      -11.264685    1.454620   -1.054120
     28          6           0      -11.306695    0.117291   -1.182656
     29          6           0       -9.952262   -0.380590   -0.730065
     30          6           0      -12.326045    2.393684   -1.294045
     31          6           0      -12.328966   -0.802364   -1.654493
     32          6           0      -12.052757   -1.232601   -3.205993
     33          7           0       -7.262403   -1.377589   -0.035215
     34          6           0       -8.248069   -2.254913   -0.461364
     35          6           0       -7.898428   -3.645755   -0.584174
     36          6           0       -6.565225   -3.534987   -0.150224
     37          6           0       -6.216604   -2.231020    0.098478
     38          6           0       -8.708462   -4.826973   -0.782191
     39          6           0       -5.361956   -4.384430    0.237527
     40          8           0       -5.099893   -5.537155    0.187523
     41          6           0       -4.178163   -3.367801    0.485974
     42          6           0       -3.621499   -3.733783    1.859827
     43          8           0       -3.741234   -3.048971    2.917197
     44          8           0       -2.865458   -4.841208    1.785271
     45          6           0       -2.334664   -5.394843    3.000192
     46          6           0        2.786759   -0.456437   -1.340617
     47          6           0        4.047269   -0.300158   -0.673916
     48          6           0        5.124539    0.494579   -1.026763
     49          6           0        5.191961    1.272816   -2.342670
     50          6           0        6.406610    0.376969   -0.280860
     51          6           0        7.639649    0.043536   -1.122120
     52          6           0        8.917838   -0.038683   -0.283002
     53          6           0       10.212391   -0.435329   -1.033599
     54          6           0       10.104107   -1.986913   -1.492716
     55          6           0       11.389905   -0.192365   -0.155545
     56          6           0       12.814881   -0.318696   -0.861024
     57          6           0       13.978247   -0.118156    0.258057
     58          6           0       15.418276   -0.224030   -0.451283
     59          6           0       15.675586   -1.617021   -0.944806
     60          6           0       16.447707    0.280763    0.573171
     61          6           0       17.897928    0.414877    0.088730
     62          6           0       18.821952    1.062441    0.975584
     63          6           0       20.300613    1.167584    0.486236
     64          6           0       20.366140    1.980842   -0.937631
     65          6           0       21.134760    1.872838    1.492840
     66          1           0       -4.109565    3.597372    1.710899
     67          1           0      -10.138212    4.055539   -0.509886
     68          1           0      -10.242543   -2.397777   -1.346751
     69          1           0       -2.527786   -1.147985    1.812484
     70          1           0       -2.229077    1.886805    1.460872
     71          1           0       -1.920056    0.758658    3.637562
     72          1           0       -2.877208    2.187086    3.658483
     73          1           0       -3.650139    0.641780    3.760564
     74          1           0       -2.220431   -1.542684   -0.497110
     75          1           0       -2.070505    0.112601   -0.958733
     76          1           0       -0.355997    0.459347    0.830715
     77          1           0       -0.171540   -1.214160    1.200841
     78          1           0       -5.479161    6.993549    0.389522
     79          1           0       -5.560591    6.390464    1.961675
     80          1           0       -4.410341    5.473166    1.049417
     81          1           0       -9.594029    5.553251   -0.479233
     82          1           0       -9.139328    8.075993    0.671769
     83          1           0       -7.479877    7.279861    1.163710
     84          1           0      -12.053823    3.080244   -2.090983
     85          1           0      -13.246894    1.879380   -1.419245
     86          1           0      -12.417232    2.940314   -0.384369
     87          1           0      -12.732353   -1.613495   -1.181996
     88          1           0      -13.306551   -0.174342   -1.482463
     89          1           0      -12.882457   -1.902643   -3.501545
     90          1           0      -12.041174   -0.368839   -3.730581
     91          1           0      -10.970891   -1.676043   -3.242545
     92          1           0       -9.045835   -4.888079   -1.744339
     93          1           0       -8.287119   -5.892651   -0.718180
     94          1           0       -9.758133   -5.015517   -0.028263
     95          1           0       -3.484589   -3.358715   -0.224483
     96          1           0       -1.807083   -4.647660    3.590647
     97          1           0       -3.212104   -5.833988    3.548555
     98          1           0       -1.584465   -6.183864    2.600347
     99          1           0        2.863585   -1.454756   -1.566160
    100          1           0        2.525653    0.265523   -2.335811
    101          1           0        4.003975   -0.946124    0.180037
    102          1           0        4.301541    1.558144   -2.824177
    103          1           0        5.676679    2.340011   -2.290463
    104          1           0        5.728913    0.753030   -3.132339
    105          1           0        6.825306    1.340238    0.356192
    106          1           0        6.247390   -0.272340    0.564327
    107          1           0        7.501036   -0.923698   -1.479948
    108          1           0        7.472306    0.700290   -2.074959
    109          1           0        9.162858    0.997230    0.176707
    110          1           0        8.626175   -0.646480    0.617797
    111          1           0       10.311864   -0.047139   -1.876359
    112          1           0        9.302542   -2.042889   -2.128522
    113          1           0       10.950516   -2.423905   -1.980779
    114          1           0        9.987683   -2.532511   -0.550000
    115          1           0       11.452017    0.982402   -0.001005
    116          1           0       11.235688   -0.765041    0.833397
    117          1           0       12.820175   -1.414560   -1.302331
    118          1           0       12.956461    0.373449   -1.667100
    119          1           0       13.992554    0.899155    0.701346
    120          1           0       13.751086   -0.877662    1.223320
    121          1           0       15.597056    0.696432   -1.301542
    122          1           0       15.336581   -2.268403   -0.176314
    123          1           0       15.087047   -2.070450   -1.788887
    124          1           0       16.611457   -1.819540   -1.298968
    125          1           0       16.106669    1.271881    0.838212
    126          1           0       16.596515   -0.431356    1.432388
    127          1           0       18.215409   -0.479904   -0.208184
    128          1           0       17.859421    0.966550   -0.817894
    129          1           0       18.476988    1.994959    1.368001
    130          1           0       18.922999    0.517245    1.827008
    131          1           0       20.593178    0.221419    0.294391
    132          1           0       19.861250    3.024928   -0.937520
    133          1           0       21.290472    1.903690   -1.510258
    134          1           0       19.809861    1.537166   -1.719908
    135          1           0       21.157641    1.340416    2.426193
    136          1           0       22.082296    2.068972    1.149306
    137          1           0       20.748323    2.934448    1.487663
 ---------------------------------------------------------------------

 SCF Done:  E(RCAM-B3LYP) =  -2933.46966299     A.U. after   16 cycles

 Excitation energies and oscillator strengths:

 Excited State   1:      Singlet-A      2.0355 eV  609.12 nm  f=0.2993  <S**2>=0.000
     240 -> 242       -0.12106
     240 -> 243        0.21441
     241 -> 242        0.65824
 This state for optimization and/or second-order correction.
 Total Energy, E(TD-HF/TD-DFT) =  -2933.39486050
 Copying the excited state density for this state as the 1-particle RhoCI density.

 The electronic state is 1-A.
 Alpha  occ. eigenvalues --  -46.80349 -19.22154 -19.20700 -19.17959 -19.16347
 Alpha  occ. eigenvalues --  -19.16078 -14.38130 -14.35440 -14.35417 -14.35388
 Alpha  occ. eigenvalues --  -10.34839 -10.34688 -10.30463 -10.27749 -10.27443
 Alpha  occ. eigenvalues --  -10.27079 -10.26229 -10.25995 -10.25266 -10.25199
 Alpha  occ. eigenvalues --  -10.24972 -10.24933 -10.24341 -10.24165 -10.24130
 Alpha  occ. eigenvalues --  -10.23859 -10.23702 -10.23666 -10.23508 -10.23496
 Alpha  occ. eigenvalues --  -10.23476 -10.23347 -10.23258 -10.23237 -10.23154
 Alpha  occ. eigenvalues --  -10.23018 -10.22985 -10.22922 -10.22880 -10.22798
 Alpha  occ. eigenvalues --  -10.22557 -10.22496 -10.22163 -10.21900 -10.21824
 Alpha  occ. eigenvalues --  -10.21703 -10.21655 -10.21566 -10.21561 -10.21401
 Alpha  occ. eigenvalues --  -10.21337 -10.21297 -10.20927 -10.20925 -10.20869
 Alpha  occ. eigenvalues --  -10.20539 -10.20517 -10.20059 -10.19975 -10.19800
 Alpha  occ. eigenvalues --  -10.19000 -10.18889 -10.18866 -10.18245 -10.17680
 Alpha  occ. eigenvalues --   -3.08900  -1.83841  -1.83370  -1.83311  -1.12325
 Alpha  occ. eigenvalues --   -1.11174  -1.08044  -1.04422  -1.01864  -0.99753
 Alpha  occ. eigenvalues --   -0.98973  -0.98117  -0.96365  -0.87043  -0.85587
 Alpha  occ. eigenvalues --   -0.85400  -0.85112  -0.84717  -0.84005  -0.83881
 Alpha  occ. eigenvalues --   -0.83684  -0.82865  -0.82560  -0.82282  -0.81450
 Alpha  occ. eigenvalues --   -0.80225  -0.78991  -0.78788  -0.78223  -0.77625
 Alpha  occ. eigenvalues --   -0.76753  -0.76222  -0.75609  -0.74691  -0.74141
 Alpha  occ. eigenvalues --   -0.73536  -0.72777  -0.71990  -0.71324  -0.71128
 Alpha  occ. eigenvalues --   -0.70923  -0.70867  -0.69717  -0.69015  -0.68142
 Alpha  occ. eigenvalues --   -0.67189  -0.66710  -0.65912  -0.64293  -0.63621
 Alpha  occ. eigenvalues --   -0.62106  -0.61740  -0.61080  -0.60348  -0.60143
 Alpha  occ. eigenvalues --   -0.59999  -0.59619  -0.59151  -0.58334  -0.57798
 Alpha  occ. eigenvalues --   -0.57400  -0.56967  -0.56869  -0.55681  -0.55194
 Alpha  occ. eigenvalues --   -0.54899  -0.54385  -0.53986  -0.53683  -0.52958
 Alpha  occ. eigenvalues --   -0.52493  -0.52138  -0.51799  -0.51490  -0.51101
 Alpha  occ. eigenvalues --   -0.50469  -0.49891  -0.49576  -0.49476  -0.49300
 Alpha  occ. eigenvalues --   -0.49057  -0.48941  -0.48641  -0.48203  -0.48130
 Alpha  occ. eigenvalues --   -0.47500  -0.47484  -0.47319  -0.46837  -0.46662
 Alpha  occ. eigenvalues --   -0.46245  -0.46122  -0.46006  -0.45757  -0.45733
 Alpha  occ. eigenvalues --   -0.45657  -0.45222  -0.45051  -0.44807  -0.44478
 Alpha  occ. eigenvalues --   -0.44279  -0.44269  -0.43884  -0.43669  -0.43588
 Alpha  occ. eigenvalues --   -0.43545  -0.43373  -0.43205  -0.42840  -0.42605
 Alpha  occ. eigenvalues --   -0.42330  -0.42148  -0.41975  -0.41730  -0.41577
 Alpha  occ. eigenvalues --   -0.41324  -0.41280  -0.41171  -0.40939  -0.40653
 Alpha  occ. eigenvalues --   -0.40428  -0.40165  -0.40088  -0.39960  -0.39785
 Alpha  occ. eigenvalues --   -0.39606  -0.39505  -0.39269  -0.39082  -0.38991
 Alpha  occ. eigenvalues --   -0.38847  -0.38644  -0.38444  -0.38098  -0.37840
 Alpha  occ. eigenvalues --   -0.37721  -0.37613  -0.37434  -0.37161  -0.37115
 Alpha  occ. eigenvalues --   -0.36600  -0.36578  -0.36384  -0.36125  -0.35911
 Alpha  occ. eigenvalues --   -0.35536  -0.35385  -0.35293  -0.35201  -0.35071
 Alpha  occ. eigenvalues --   -0.34710  -0.34355  -0.34080  -0.33995  -0.33632
 Alpha  occ. eigenvalues --   -0.33325  -0.32981  -0.32918  -0.32480  -0.32276
 Alpha  occ. eigenvalues --   -0.32192  -0.31862  -0.31151  -0.30699  -0.30448
 Alpha  occ. eigenvalues --   -0.29893  -0.29846  -0.29531  -0.28361  -0.27054
 Alpha  occ. eigenvalues --   -0.26447  -0.26089  -0.25534  -0.25077  -0.21844
 Alpha  occ. eigenvalues --   -0.20254
 Alpha virt. eigenvalues --   -0.07533  -0.03700   0.00004   0.01514   0.01888
 Alpha virt. eigenvalues --    0.03789   0.04065   0.04678   0.04846   0.05423
 Alpha virt. eigenvalues --    0.06131   0.08475   0.08622   0.09159   0.09902

 Mulliken charges:
               1
     1  Mg   0.821173
     2  C    0.050022
     3  C   -0.213019
     4  C   -0.155586
     5  C   -0.179058
     6  N   -0.652992
     7  C    0.303720
     8  C   -0.138303
     9  C   -0.155278
    10  C    0.363719
    11  C   -0.301154
    12  C   -0.170824
    13  C   -0.273182
    14  C    0.613843
    15  O   -0.446570
    16  O   -0.508814
    17  N   -0.723739
    18  C    0.299924
    19  C    0.046505
    20  C    0.029418
    21  C    0.296641
    22  C   -0.380240
    23  C   -0.054103
    24  C   -0.267014
    25  N   -0.627055
    26  C    0.283988
    27  C    0.032375
    28  C    0.056930
    29  C    0.285550
    30  C   -0.378927
    31  C   -0.271354
    32  C   -0.311526
    33  N   -0.697945
    34  C    0.206190
    35  C    0.090929
    36  C   -0.037776
    37  C    0.308000
    38  C   -0.389734
    39  C    0.365128
    40  O   -0.427051
    41  C   -0.300247
    42  C    0.596816
    43  O   -0.503120
    44  O   -0.424794
    45  C   -0.085737
    46  C    0.062502
    47  C   -0.142133
    48  C    0.137354
    49  C   -0.387610
    50  C   -0.223873
    51  C   -0.176706
    52  C   -0.175299
    53  C   -0.030006
    54  C   -0.336168
    55  C   -0.160667
    56  C   -0.185365
    57  C   -0.165098
    58  C   -0.039427
    59  C   -0.311945
    60  C   -0.172160
    61  C   -0.175222
    62  C   -0.159099
    63  C   -0.051612
    64  C   -0.342076
    65  C   -0.297351
    66  H    0.076831
    67  H    0.065463
    68  H    0.085626
    69  H    0.123399
    70  H    0.110796
    71  H    0.088449
    72  H    0.106691
    73  H    0.145329
    74  H    0.128711
    75  H    0.101356
    76  H    0.143781
    77  H    0.130170
    78  H    0.114125
    79  H    0.154778
    80  H    0.079808
    81  H    0.054703
    82  H    0.114324
    83  H    0.096799
    84  H    0.125232
    85  H    0.114457
    86  H    0.128910
    87  H    0.124667
    88  H    0.070373
    89  H    0.107318
    90  H    0.129955
    91  H    0.104494
    92  H    0.137364
    93  H    0.139140
    94  H    0.087319
    95  H    0.160472
    96  H    0.135631
    97  H    0.135929
    98  H    0.121551
    99  H    0.122229
   100  H    0.087660
   101  H    0.097817
   102  H    0.111681
   103  H    0.099346
   104  H    0.128187
   105  H    0.064467
   106  H    0.094619
   107  H    0.108114
   108  H    0.085346
   109  H    0.077279
   110  H    0.090826
   111  H    0.089868
   112  H    0.110153
   113  H    0.099885
   114  H    0.095730
   115  H    0.071436
   116  H    0.080230
   117  H    0.080063
   118  H    0.105155
   119  H    0.092110
   120  H    0.068221
   121  H    0.045065
   122  H    0.110246
   123  H    0.093117
   124  H    0.108438
   125  H    0.088245
   126  H    0.077112
   127  H    0.094295
   128  H    0.084341
   129  H    0.082043
   130  H    0.088037
   131  H    0.090105
   132  H    0.089883
   133  H    0.095604
   134  H    0.104356
   135  H    0.099144
   136  H    0.107874
   137  H    0.093956
 Sum of Mulliken charges =  -0.00000

 Dipole moment (field-independent basis, Debye):
    X=             -0.4254    Y=              2.9848    Z=              0.3055  Tot=              3.0304
 Quadrupole moment (field-independent basis, Debye-Ang):
   XX=           -347.1530   YY=           -387.2981   ZZ=           -394.5702
   XY=            -25.2794   XZ=              6.9995   YZ=              0.0588

 Normal termination of Gaussian 16 at Mon Sep 16 08:54:53 2019.
