 Gaussian 09, Revision D.01,
 Gaussian 09:  ES64L-G09RevD.01 24-Apr-2013

 -------------------------------------
 # td=(NStates=1) CAM-B3LYP/6-31G(d,p)
 -------------------------------------

 --
 TD
 --
 Symbolic Z-matrix:
 Charge =  0 Multiplicity = 1

                         Standard orientation:
 ---------------------------------------------------------------------
 Center     Atomic      Atomic             Coordinates (Angstroms)
 Number     Number       Type             X           Y           Z
 ---------------------------------------------------------------------
      1         12           0       -7.203648    0.543025    0.054833
      2          6           0       -4.826532   -1.903932    0.404694
      3          6           0       -4.866234    2.824442    1.052422
      4          6           0       -9.468259    3.009130   -0.411115
      5          6           0       -9.569179   -1.737292   -0.782172
      6          7           0       -5.064152    0.413210    0.703297
      7          6           0       -4.376805   -0.688525    0.695755
      8          6           0       -2.960919   -0.424711    1.095865
      9          6           0       -3.012473    1.132088    1.609828
     10          6           0       -4.365670    1.513382    1.067647
     11          6           0       -2.940746    1.286092    3.193700
     12          6           0       -1.950206   -0.481473   -0.130724
     13          6           0       -0.343473   -0.373617    0.483924
     14          6           0        0.649011   -0.525654   -0.678715
     15          8           0        0.325035   -0.723471   -1.786584
     16          8           0        1.881043   -0.357288   -0.090125
     17          7           0       -7.170217    2.553074    0.257068
     18          6           0       -6.083431    3.247720    0.676043
     19          6           0       -6.470995    4.645977    0.810184
     20          6           0       -7.729107    4.772948    0.246351
     21          6           0       -8.101871    3.420675   -0.022975
     22          6           0       -5.562930    5.820512    1.116827
     23          6           0       -8.657084    6.023675    0.233761
     24          6           0       -8.437304    7.183432    0.951474
     25          7           0       -9.225310    0.722399   -0.584452
     26          6           0       -9.927114    1.749145   -0.684200
     27          6           0      -11.265847    1.398004   -1.088516
     28          6           0      -11.328216    0.028482   -1.180379
     29          6           0      -10.016275   -0.386383   -0.877237
     30          6           0      -12.461281    2.473563   -1.255424
     31          6           0      -12.427380   -0.813368   -1.758373
     32          6           0      -12.278872   -1.119250   -3.246823
     33          7           0       -7.228984   -1.354460   -0.218195
     34          6           0       -8.277364   -2.243858   -0.504129
     35          6           0       -7.844177   -3.606544   -0.411169
     36          6           0       -6.509033   -3.485085    0.010816
     37          6           0       -6.199087   -2.126807    0.104937
     38          6           0       -8.673524   -4.821809   -0.760852
     39          6           0       -5.276715   -4.326929    0.245104
     40          8           0       -5.189358   -5.556736    0.293664
     41          6           0       -4.165067   -3.322805    0.565269
     42          6           0       -3.525947   -3.623663    1.937497
     43          8           0       -3.691119   -2.906874    2.917675
     44          8           0       -2.769980   -4.608898    1.844826
     45          6           0       -2.192968   -5.082482    3.082678
     46          6           0        2.882975   -0.797887   -1.075857
     47          6           0        4.293702   -0.595312   -0.490825
     48          6           0        5.142261    0.230070   -0.965356
     49          6           0        5.053213    1.167600   -2.084373
     50          6           0        6.514332    0.282493   -0.179689
     51          6           0        7.630061   -0.339158   -0.938223
     52          6           0        8.962087   -0.200869   -0.135592
     53          6           0       10.045720   -0.546604   -0.955941
     54          6           0       10.193048   -2.078337   -1.252169
     55          6           0       11.460548   -0.181253   -0.078959
     56          6           0       12.804240   -0.581577   -0.749088
     57          6           0       14.012161    0.015788    0.016965
     58          6           0       15.334801   -0.175340   -0.563330
     59          6           0       15.585185   -1.730748   -0.794154
     60          6           0       16.381722    0.364482    0.359264
     61          6           0       17.831714    0.517991   -0.259955
     62          6           0       18.955255    1.174522    0.676250
     63          6           0       20.409467    1.345776    0.193567
     64          6           0       20.382802    2.352007   -0.952153
     65          6           0       21.147038    1.948249    1.431062
     66          1           0       -4.168708    3.590505    1.274642
     67          1           0      -10.161036    3.787674   -0.776713
     68          1           0      -10.102099   -2.446407   -1.354198
     69          1           0       -2.785226   -1.167299    2.009778
     70          1           0       -2.238929    1.912919    1.202458
     71          1           0       -1.896473    1.234063    3.483299
     72          1           0       -3.155553    2.367065    3.494762
     73          1           0       -3.643774    0.490725    3.715050
     74          1           0       -1.821716   -1.564651   -0.647521
     75          1           0       -2.069565    0.369775   -0.797858
     76          1           0       -0.435123    0.652110    0.901510
     77          1           0       -0.099469   -1.150699    1.311869
     78          1           0       -5.533523    6.516943    0.102419
     79          1           0       -5.707914    6.261069    2.072335
     80          1           0       -4.612278    5.327885    1.079293
     81          1           0       -9.349503    5.989103   -0.471493
     82          1           0       -8.801487    8.222799    0.830670
     83          1           0       -7.750871    7.199537    1.756213
     84          1           0      -12.396883    2.860787   -2.490371
     85          1           0      -13.328623    1.699057   -1.444194
     86          1           0      -12.668281    3.163734   -0.637433
     87          1           0      -12.572103   -1.577676   -1.125964
     88          1           0      -13.361998   -0.271001   -1.437118
     89          1           0      -13.253793   -1.754780   -3.378366
     90          1           0      -12.290974   -0.382058   -4.105445
     91          1           0      -11.268102   -1.676230   -3.491171
     92          1           0       -9.077555   -4.575140   -1.821320
     93          1           0       -8.130419   -5.728641   -0.791918
     94          1           0       -9.410875   -4.910525    0.013343
     95          1           0       -3.298886   -3.444459   -0.252541
     96          1           0       -1.585435   -4.396017    3.434435
     97          1           0       -3.041713   -5.304534    3.780817
     98          1           0       -1.676438   -5.950416    2.786846
     99          1           0        2.751899   -1.876142   -1.288199
    100          1           0        2.743510   -0.197179   -2.029822
    101          1           0        4.555760   -1.098396    0.385626
    102          1           0        3.930496    1.247064   -2.220808
    103          1           0        5.411484    2.199110   -1.936692
    104          1           0        5.688713    0.773426   -2.884616
    105          1           0        6.722388    1.085340    0.160267
    106          1           0        6.264272   -0.460907    0.818352
    107          1           0        7.346120   -1.389759   -1.305456
    108          1           0        7.866022    0.125589   -1.917355
    109          1           0        9.100094    0.855107    0.094333
    110          1           0        8.784351   -0.762953    0.860851
    111          1           0        9.996621    0.034196   -1.988517
    112          1           0        9.192600   -2.643856   -1.519516
    113          1           0       10.990491   -2.309015   -2.003356
    114          1           0       10.693098   -2.578217   -0.261187
    115          1           0       11.344384    0.857905    0.239826
    116          1           0       11.320673   -0.958498    0.889499
    117          1           0       12.967078   -1.746456   -1.015158
    118          1           0       12.814084   -0.110586   -1.642818
    119          1           0       13.820873    1.136582    0.239212
    120          1           0       14.034295   -0.683943    1.003913
    121          1           0       15.334544    0.197981   -1.532206
    122          1           0       15.566575   -1.960490    0.134351
    123          1           0       14.980285   -1.995096   -1.684088
    124          1           0       16.518674   -1.791781   -1.198100
    125          1           0       16.241867    1.314126    0.907973
    126          1           0       16.467560   -0.318238    1.222930
    127          1           0       18.297437   -0.448116   -0.584858
    128          1           0       17.622416    1.315415   -1.205598
    129          1           0       18.619513    2.308103    0.815117
    130          1           0       18.986615    0.753392    1.930304
    131          1           0       20.969811    0.395357   -0.039585
    132          1           0       20.239872    3.286236   -0.512829
    133          1           0       21.483912    2.227413   -1.328718
    134          1           0       19.604015    2.139907   -1.925500
    135          1           0       21.004476    1.180804    2.117901
    136          1           0       22.141847    2.281162    1.140415
    137          1           0       20.620474    2.998635    1.679818
 ---------------------------------------------------------------------

 SCF Done:  E(RCAM-B3LYP) =  -2932.55820030     A.U. after   18 cycles

 Excitation energies and oscillator strengths:

 Excited State   1:      Singlet-A      2.0351 eV  609.22 nm  f=0.2327  <S**2>=0.000
     240 -> 243       -0.25252
     241 -> 242        0.65602
 This state for optimization and/or second-order correction.
 Total Energy, E(TD-HF/TD-KS) =  -2932.48341067
 Copying the excited state density for this state as the 1-particle RhoCI density.

 The electronic state is 1-A.
 Alpha  occ. eigenvalues --  -46.84048 -19.28104 -19.26310 -19.22274 -19.20129
 Alpha  occ. eigenvalues --  -19.20027 -14.40923 -14.38976 -14.38735 -14.37708
 Alpha  occ. eigenvalues --  -10.39216 -10.39158 -10.34981 -10.32100 -10.31348
 Alpha  occ. eigenvalues --  -10.30560 -10.29256 -10.29249 -10.28966 -10.28721
 Alpha  occ. eigenvalues --  -10.28591 -10.28380 -10.28310 -10.28069 -10.28022
 Alpha  occ. eigenvalues --  -10.27848 -10.27772 -10.27744 -10.27584 -10.27583
 Alpha  occ. eigenvalues --  -10.27422 -10.27338 -10.27279 -10.27182 -10.27099
 Alpha  occ. eigenvalues --  -10.26955 -10.26706 -10.26700 -10.26610 -10.26477
 Alpha  occ. eigenvalues --  -10.26470 -10.26383 -10.26332 -10.26268 -10.26243
 Alpha  occ. eigenvalues --  -10.26210 -10.26134 -10.26011 -10.25988 -10.25984
 Alpha  occ. eigenvalues --  -10.25918 -10.25873 -10.25860 -10.25746 -10.25416
 Alpha  occ. eigenvalues --  -10.25331 -10.25204 -10.25186 -10.25124 -10.25117
 Alpha  occ. eigenvalues --  -10.25038 -10.24567 -10.24552 -10.24455 -10.22605
 Alpha  occ. eigenvalues --   -3.13177  -1.87877  -1.87395  -1.87383  -1.22562
 Alpha  occ. eigenvalues --   -1.18509  -1.11268  -1.09636  -1.09192  -1.05796
 Alpha  occ. eigenvalues --   -1.05090  -1.04674  -1.03278  -0.92141  -0.91811
 Alpha  occ. eigenvalues --   -0.91256  -0.89802  -0.89332  -0.88874  -0.88581
 Alpha  occ. eigenvalues --   -0.87860  -0.86988  -0.86601  -0.86168  -0.85392
 Alpha  occ. eigenvalues --   -0.84878  -0.83666  -0.83092  -0.82053  -0.82012
 Alpha  occ. eigenvalues --   -0.81530  -0.81164  -0.80304  -0.79734  -0.77864
 Alpha  occ. eigenvalues --   -0.77443  -0.77111  -0.76325  -0.75979  -0.75336
 Alpha  occ. eigenvalues --   -0.75107  -0.74744  -0.73541  -0.72850  -0.72245
 Alpha  occ. eigenvalues --   -0.71382  -0.70572  -0.69495  -0.68521  -0.67776
 Alpha  occ. eigenvalues --   -0.67284  -0.66352  -0.65527  -0.64722  -0.64330
 Alpha  occ. eigenvalues --   -0.63864  -0.63058  -0.62933  -0.62333  -0.61991
 Alpha  occ. eigenvalues --   -0.61338  -0.60929  -0.60334  -0.59612  -0.59047
 Alpha  occ. eigenvalues --   -0.58594  -0.58280  -0.58072  -0.57109  -0.56826
 Alpha  occ. eigenvalues --   -0.56625  -0.55842  -0.55598  -0.54949  -0.54881
 Alpha  occ. eigenvalues --   -0.54774  -0.54092  -0.53587  -0.53322  -0.53027
 Alpha  occ. eigenvalues --   -0.52546  -0.52395  -0.52163  -0.51619  -0.51496
 Alpha  occ. eigenvalues --   -0.51248  -0.50801  -0.50675  -0.50531  -0.50226
 Alpha  occ. eigenvalues --   -0.50138  -0.50062  -0.49852  -0.49734  -0.49661
 Alpha  occ. eigenvalues --   -0.49233  -0.49142  -0.48892  -0.48649  -0.48446
 Alpha  occ. eigenvalues --   -0.48114  -0.47705  -0.47596  -0.47537  -0.47387
 Alpha  occ. eigenvalues --   -0.47226  -0.46965  -0.46773  -0.46370  -0.45932
 Alpha  occ. eigenvalues --   -0.45771  -0.45722  -0.45508  -0.45285  -0.45120
 Alpha  occ. eigenvalues --   -0.45033  -0.44800  -0.44509  -0.44267  -0.44166
 Alpha  occ. eigenvalues --   -0.43940  -0.43842  -0.43487  -0.43263  -0.43002
 Alpha  occ. eigenvalues --   -0.42920  -0.42709  -0.42254  -0.42175  -0.42062
 Alpha  occ. eigenvalues --   -0.41704  -0.41520  -0.41348  -0.41128  -0.40884
 Alpha  occ. eigenvalues --   -0.40864  -0.40661  -0.40511  -0.40245  -0.39997
 Alpha  occ. eigenvalues --   -0.39651  -0.39554  -0.39123  -0.38591  -0.38357
 Alpha  occ. eigenvalues --   -0.38294  -0.38112  -0.37687  -0.37667  -0.37228
 Alpha  occ. eigenvalues --   -0.37040  -0.36972  -0.36868  -0.36633  -0.36362
 Alpha  occ. eigenvalues --   -0.36231  -0.36051  -0.35752  -0.35379  -0.34938
 Alpha  occ. eigenvalues --   -0.34880  -0.34603  -0.34406  -0.33943  -0.33439
 Alpha  occ. eigenvalues --   -0.32828  -0.32403  -0.31936  -0.30969  -0.30824
 Alpha  occ. eigenvalues --   -0.29764  -0.29251  -0.27805  -0.27502  -0.22515
 Alpha  occ. eigenvalues --   -0.20581
 Alpha virt. eigenvalues --   -0.05985  -0.02495   0.02090   0.03962   0.06077
 Alpha virt. eigenvalues --    0.06658   0.06800   0.07022   0.07506   0.07775
 Alpha virt. eigenvalues --    0.09346   0.10947   0.11514   0.11602   0.11684

 Mulliken charges:
               1
     1  Mg   0.825201
     2  C    0.052252
     3  C   -0.198250
     4  C   -0.201707
     5  C   -0.176251
     6  N   -0.634829
     7  C    0.343981
     8  C   -0.194548
     9  C   -0.162231
    10  C    0.330301
    11  C   -0.303782
    12  C   -0.171868
    13  C   -0.283425
    14  C    0.621787
    15  O   -0.433161
    16  O   -0.478364
    17  N   -0.703477
    18  C    0.357202
    19  C   -0.044676
    20  C   -0.009206
    21  C    0.308621
    22  C   -0.353146
    23  C   -0.042629
    24  C   -0.250242
    25  N   -0.673342
    26  C    0.369856
    27  C   -0.024035
    28  C    0.018937
    29  C    0.241992
    30  C   -0.335272
    31  C   -0.217290
    32  C   -0.294140
    33  N   -0.750284
    34  C    0.229254
    35  C    0.013588
    36  C   -0.043986
    37  C    0.342041
    38  C   -0.359223
    39  C    0.386094
    40  O   -0.475775
    41  C   -0.302755
    42  C    0.611059
    43  O   -0.508388
    44  O   -0.386314
    45  C   -0.088311
    46  C   -0.018948
    47  C   -0.130253
    48  C    0.129701
    49  C   -0.359521
    50  C   -0.175283
    51  C   -0.183629
    52  C   -0.139070
    53  C   -0.064183
    54  C   -0.297916
    55  C   -0.178796
    56  C   -0.182869
    57  C   -0.145377
    58  C   -0.084137
    59  C   -0.298204
    60  C   -0.169476
    61  C   -0.173165
    62  C   -0.136053
    63  C   -0.078376
    64  C   -0.278211
    65  C   -0.289736
    66  H    0.076443
    67  H    0.081350
    68  H    0.090660
    69  H    0.133492
    70  H    0.089794
    71  H    0.115032
    72  H    0.100453
    73  H    0.125831
    74  H    0.101805
    75  H    0.123748
    76  H    0.131105
    77  H    0.120584
    78  H    0.115477
    79  H    0.131457
    80  H    0.105544
    81  H    0.087615
    82  H    0.111232
    83  H    0.102098
    84  H    0.076423
    85  H    0.099580
    86  H    0.130196
    87  H    0.123475
    88  H    0.095561
    89  H    0.095566
    90  H    0.117960
    91  H    0.102012
    92  H    0.112708
    93  H    0.148729
    94  H    0.136071
    95  H    0.149287
    96  H    0.144733
    97  H    0.142301
    98  H    0.136806
    99  H    0.121113
   100  H    0.123950
   101  H    0.090526
   102  H    0.107801
   103  H    0.119641
   104  H    0.129266
   105  H    0.092717
   106  H    0.048492
   107  H    0.092792
   108  H    0.083290
   109  H    0.092559
   110  H    0.093097
   111  H    0.073546
   112  H    0.087309
   113  H    0.104368
   114  H    0.079734
   115  H    0.092143
   116  H    0.064814
   117  H    0.089588
   118  H    0.103399
   119  H    0.081288
   120  H    0.059577
   121  H    0.084685
   122  H    0.108148
   123  H    0.103888
   124  H    0.106424
   125  H    0.094072
   126  H    0.088266
   127  H    0.096411
   128  H    0.066208
   129  H    0.069289
   130  H    0.031995
   131  H    0.087369
   132  H    0.113259
   133  H    0.085525
   134  H    0.081168
   135  H    0.118098
   136  H    0.101719
   137  H    0.079580
 Sum of Mulliken charges =   0.00000

 Dipole moment (field-independent basis, Debye):
    X=              3.6345    Y=              2.8818    Z=              0.1209  Tot=              4.6399
 Quadrupole moment (field-independent basis, Debye-Ang):
   XX=           -356.5415   YY=           -389.1620   ZZ=           -395.5202
   XY=             -9.3710   XZ=              1.8734   YZ=             -4.3996

 Normal termination of Gaussian 09 at Sat Jul  6 13:36:34 2019.
