 Gaussian 16, Revision A.03,
 Gaussian 16:  ES64L-G16RevA.03 25-Dec-2016

 ----------------------------------------------------------------------
 # td=(NStates=1) iop(3/107=0140000000,3/108=0140000000) CAM-B3LYP/6-31
 G(d,p)
 ----------------------------------------------------------------------

 --
 TD
 --
 Symbolic Z-matrix:
 Charge =  0 Multiplicity = 1

                         Standard orientation:
 ---------------------------------------------------------------------
 Center     Atomic      Atomic             Coordinates (Angstroms)
 Number     Number       Type             X           Y           Z
 ---------------------------------------------------------------------
      1         12           0       -7.173148    0.588889    0.051070
      2          6           0       -4.921057   -1.957597    0.505407
      3          6           0       -4.790688    2.829208    1.193060
      4          6           0       -9.377110    3.155910   -0.351429
      5          6           0       -9.540092   -1.701592   -0.937442
      6          7           0       -5.111990    0.474930    0.623452
      7          6           0       -4.406250   -0.740648    0.721986
      8          6           0       -2.897227   -0.441021    1.123348
      9          6           0       -2.992286    0.947434    1.654329
     10          6           0       -4.446083    1.500972    1.165663
     11          6           0       -2.919246    1.080790    3.099278
     12          6           0       -1.842460   -0.572481   -0.057826
     13          6           0       -0.494356   -0.371845    0.475526
     14          6           0        0.569127   -0.606420   -0.670332
     15          8           0        0.299336   -0.854858   -1.780666
     16          8           0        1.712489   -0.317854   -0.158412
     17          7           0       -7.136060    2.568826    0.261119
     18          6           0       -6.042564    3.360216    0.849530
     19          6           0       -6.368594    4.739951    0.852305
     20          6           0       -7.609456    4.816779    0.339075
     21          6           0       -8.095188    3.476763    0.093651
     22          6           0       -5.446850    5.822844    1.375829
     23          6           0       -8.332785    6.066253    0.308648
     24          6           0       -8.142689    7.243097    1.006637
     25          7           0       -9.048921    0.778554   -0.530368
     26          6           0       -9.835638    1.859835   -0.746828
     27          6           0      -11.284533    1.535707   -1.219118
     28          6           0      -11.209095    0.153745   -1.229139
     29          6           0       -9.922973   -0.278039   -0.956575
     30          6           0      -12.310517    2.436673   -1.472358
     31          6           0      -12.439154   -0.622376   -1.790510
     32          6           0      -12.361793   -0.978146   -3.220317
     33          7           0       -7.387942   -1.420723   -0.117011
     34          6           0       -8.358769   -2.236749   -0.523782
     35          6           0       -7.950014   -3.652568   -0.534093
     36          6           0       -6.595307   -3.568118   -0.053959
     37          6           0       -6.304868   -2.157655    0.208268
     38          6           0       -8.836969   -4.782913   -0.862720
     39          6           0       -5.339018   -4.379932    0.204703
     40          8           0       -5.263809   -5.604529    0.141464
     41          6           0       -4.196975   -3.288952    0.537912
     42          6           0       -3.590472   -3.793086    1.845457
     43          8           0       -3.894989   -3.287802    2.883901
     44          8           0       -2.763611   -4.824807    1.710970
     45          6           0       -2.403104   -5.563083    2.887083
     46          6           0        2.805764   -0.400104   -1.161877
     47          6           0        4.080600   -0.381192   -0.493092
     48          6           0        5.159657    0.435736   -0.867884
     49          6           0        5.039447    1.342198   -2.090332
     50          6           0        6.469880    0.364287   -0.110452
     51          6           0        7.648538   -0.203272   -0.959509
     52          6           0        8.951099   -0.145066   -0.091186
     53          6           0       10.253830   -0.450987   -0.846126
     54          6           0       10.107246   -1.994089   -1.178208
     55          6           0       11.479939   -0.263916    0.079645
     56          6           0       12.876902   -0.466532   -0.578745
     57          6           0       14.027823    0.024308    0.177476
     58          6           0       15.323520   -0.099201   -0.538248
     59          6           0       15.547257   -1.622455   -0.884097
     60          6           0       16.452024    0.385534    0.379501
     61          6           0       17.865610    0.587027   -0.336595
     62          6           0       18.880054    1.116463    0.657229
     63          6           0       20.336770    1.144985    0.170877
     64          6           0       20.513051    2.066064   -1.116134
     65          6           0       21.401139    1.621872    1.309486
     66          1           0       -3.996802    3.487728    1.345307
     67          1           0      -10.005054    3.909960   -0.348220
     68          1           0      -10.291888   -2.406218   -1.217134
     69          1           0       -2.642459   -1.206879    2.068430
     70          1           0       -2.170443    1.686802    1.187535
     71          1           0       -2.173050    0.710394    3.753099
     72          1           0       -3.169153    2.076070    3.493497
     73          1           0       -3.844221    0.674733    3.484279
     74          1           0       -2.193403   -1.835179   -0.423092
     75          1           0       -2.228266    0.007981   -0.915848
     76          1           0       -0.573240    0.618194    0.679527
     77          1           0       -0.227573   -1.151751    1.168127
     78          1           0       -5.626729    6.816063    0.882948
     79          1           0       -5.439446    6.069676    2.325575
     80          1           0       -4.427727    5.642154    1.195203
     81          1           0       -9.249410    6.048138   -0.297367
     82          1           0       -8.954224    8.052842    0.742028
     83          1           0       -7.399125    7.275620    1.843131
     84          1           0      -12.367706    3.041067   -2.396123
     85          1           0      -13.302104    1.999722   -1.644161
     86          1           0      -12.476828    2.840570   -0.432654
     87          1           0      -12.567572   -1.439756   -1.085664
     88          1           0      -13.447775    0.057353   -1.857645
     89          1           0      -13.301855   -1.565400   -3.515104
     90          1           0      -11.995491   -0.051229   -3.912825
     91          1           0      -11.551436   -1.787342   -3.273272
     92          1           0       -9.234138   -4.516498   -1.826456
     93          1           0       -8.418998   -5.905662   -1.073413
     94          1           0       -9.730474   -4.980214   -0.343935
     95          1           0       -3.404658   -3.491070   -0.156517
     96          1           0       -1.663978   -4.792616    3.447407
     97          1           0       -3.265327   -5.820168    3.510318
     98          1           0       -1.474641   -6.370525    2.647835
     99          1           0        2.566540   -1.418386   -1.709628
    100          1           0        2.488860    0.269468   -1.992596
    101          1           0        4.214793   -1.003172    0.637420
    102          1           0        4.082137    1.569338   -2.634015
    103          1           0        5.562633    2.392290   -1.704370
    104          1           0        5.580009    0.969851   -2.833396
    105          1           0        6.563526    1.323913    0.164387
    106          1           0        6.199708   -0.312183    0.728646
    107          1           0        7.317312   -1.230590   -1.075582
    108          1           0        7.930487    0.259441   -1.859885
    109          1           0        9.054590    0.705187    0.326444
    110          1           0        8.943264   -0.627428    0.859923
    111          1           0       10.370702    0.246987   -1.684751
    112          1           0        9.381895   -2.033911   -2.087025
    113          1           0       11.219259   -2.339482   -1.558662
    114          1           0        9.892147   -2.645661   -0.511889
    115          1           0       11.567754    0.843018    0.306538
    116          1           0       11.427263   -0.769851    0.902915
    117          1           0       12.961447   -1.451591   -0.960527
    118          1           0       13.020329    0.018605   -1.454738
    119          1           0       13.758311    1.047517    0.460462
    120          1           0       14.187748   -0.529021    1.112141
    121          1           0       15.462732    0.684460   -1.526738
    122          1           0       15.820674   -2.079231    0.156030
    123          1           0       14.537783   -2.122437   -1.331083
    124          1           0       16.361951   -1.718395   -1.607553
    125          1           0       16.047071    1.389818    1.005983
    126          1           0       16.539528   -0.287606    1.315940
    127          1           0       18.344555   -0.533602   -0.556045
    128          1           0       17.701922    1.164130   -1.260102
    129          1           0       18.705096    2.154843    0.998455
    130          1           0       18.737753    0.661535    1.631963
    131          1           0       20.573717    0.148113   -0.219768
    132          1           0       20.152633    3.232504   -0.778139
    133          1           0       21.636923    2.164735   -1.465243
    134          1           0       19.891690    1.853527   -1.932149
    135          1           0       21.493951    0.865220    2.093774
    136          1           0       22.473365    1.658102    0.828447
    137          1           0       21.089367    2.658723    1.450396
 ---------------------------------------------------------------------

 SCF Done:  E(RCAM-B3LYP) =  -2933.41006378     A.U. after   15 cycles

 Excitation energies and oscillator strengths:

 Excited State   1:      Singlet-A      1.9935 eV  621.95 nm  f=0.2461  <S**2>=0.000
     240 -> 243        0.22525
     241 -> 242        0.66689
 This state for optimization and/or second-order correction.
 Total Energy, E(TD-HF/TD-DFT) =  -2933.33680546
 Copying the excited state density for this state as the 1-particle RhoCI density.

 The electronic state is 1-A.
 Alpha  occ. eigenvalues --  -46.79038 -19.22176 -19.22133 -19.16162 -19.16115
 Alpha  occ. eigenvalues --  -19.15573 -14.37445 -14.35412 -14.35261 -14.34815
 Alpha  occ. eigenvalues --  -10.33925 -10.33069 -10.30848 -10.29451 -10.28170
 Alpha  occ. eigenvalues --  -10.26194 -10.25802 -10.25253 -10.25064 -10.24821
 Alpha  occ. eigenvalues --  -10.24787 -10.24422 -10.24296 -10.24217 -10.24214
 Alpha  occ. eigenvalues --  -10.24101 -10.23785 -10.23619 -10.23604 -10.23395
 Alpha  occ. eigenvalues --  -10.23111 -10.23012 -10.22961 -10.22903 -10.22872
 Alpha  occ. eigenvalues --  -10.22799 -10.22759 -10.22667 -10.22650 -10.22503
 Alpha  occ. eigenvalues --  -10.22355 -10.22143 -10.22119 -10.22112 -10.22089
 Alpha  occ. eigenvalues --  -10.22015 -10.21988 -10.21803 -10.21798 -10.21760
 Alpha  occ. eigenvalues --  -10.21675 -10.21536 -10.21499 -10.21397 -10.21326
 Alpha  occ. eigenvalues --  -10.20820 -10.20802 -10.20717 -10.20589 -10.20549
 Alpha  occ. eigenvalues --  -10.19940 -10.19892 -10.19496 -10.18929 -10.18544
 Alpha  occ. eigenvalues --   -3.07861  -1.82780  -1.82349  -1.82279  -1.15212
 Alpha  occ. eigenvalues --   -1.13687  -1.06134  -1.05064  -1.04723  -0.99360
 Alpha  occ. eigenvalues --   -0.98006  -0.97335  -0.96359  -0.87132  -0.86507
 Alpha  occ. eigenvalues --   -0.85913  -0.84955  -0.84675  -0.84072  -0.84033
 Alpha  occ. eigenvalues --   -0.83014  -0.82860  -0.81985  -0.81727  -0.81218
 Alpha  occ. eigenvalues --   -0.80106  -0.79224  -0.79053  -0.78377  -0.77559
 Alpha  occ. eigenvalues --   -0.76451  -0.76400  -0.75497  -0.74947  -0.74243
 Alpha  occ. eigenvalues --   -0.73684  -0.72850  -0.72220  -0.71602  -0.70607
 Alpha  occ. eigenvalues --   -0.70319  -0.69558  -0.69201  -0.68577  -0.67813
 Alpha  occ. eigenvalues --   -0.66321  -0.65994  -0.64492  -0.63620  -0.63413
 Alpha  occ. eigenvalues --   -0.63021  -0.61858  -0.61003  -0.60830  -0.60335
 Alpha  occ. eigenvalues --   -0.60169  -0.59529  -0.58366  -0.58315  -0.58086
 Alpha  occ. eigenvalues --   -0.56834  -0.56665  -0.56108  -0.55554  -0.55253
 Alpha  occ. eigenvalues --   -0.54567  -0.53974  -0.53647  -0.53316  -0.52848
 Alpha  occ. eigenvalues --   -0.52556  -0.51983  -0.51787  -0.51500  -0.51118
 Alpha  occ. eigenvalues --   -0.50500  -0.50168  -0.50036  -0.49657  -0.49596
 Alpha  occ. eigenvalues --   -0.49425  -0.48700  -0.48458  -0.47988  -0.47614
 Alpha  occ. eigenvalues --   -0.47401  -0.47322  -0.47175  -0.46863  -0.46680
 Alpha  occ. eigenvalues --   -0.46493  -0.46188  -0.46113  -0.46058  -0.45674
 Alpha  occ. eigenvalues --   -0.45491  -0.45257  -0.44808  -0.44595  -0.44568
 Alpha  occ. eigenvalues --   -0.44536  -0.44329  -0.43907  -0.43790  -0.43420
 Alpha  occ. eigenvalues --   -0.43405  -0.43252  -0.43119  -0.42765  -0.42535
 Alpha  occ. eigenvalues --   -0.42319  -0.42038  -0.41965  -0.41767  -0.41593
 Alpha  occ. eigenvalues --   -0.41434  -0.41237  -0.41184  -0.41048  -0.40812
 Alpha  occ. eigenvalues --   -0.40740  -0.40560  -0.40331  -0.40059  -0.39846
 Alpha  occ. eigenvalues --   -0.39664  -0.39572  -0.39451  -0.39239  -0.39016
 Alpha  occ. eigenvalues --   -0.38777  -0.38636  -0.38605  -0.38302  -0.37638
 Alpha  occ. eigenvalues --   -0.37633  -0.37241  -0.37056  -0.37011  -0.36813
 Alpha  occ. eigenvalues --   -0.36716  -0.36626  -0.36079  -0.35903  -0.35547
 Alpha  occ. eigenvalues --   -0.35501  -0.34675  -0.34636  -0.34519  -0.34325
 Alpha  occ. eigenvalues --   -0.33909  -0.33759  -0.33596  -0.33469  -0.33408
 Alpha  occ. eigenvalues --   -0.33014  -0.32790  -0.32755  -0.32548  -0.32329
 Alpha  occ. eigenvalues --   -0.31993  -0.31869  -0.31816  -0.31030  -0.30527
 Alpha  occ. eigenvalues --   -0.30050  -0.29617  -0.29179  -0.28395  -0.26623
 Alpha  occ. eigenvalues --   -0.26280  -0.26077  -0.25595  -0.24962  -0.21718
 Alpha  occ. eigenvalues --   -0.19444
 Alpha virt. eigenvalues --   -0.06666  -0.04038   0.00078   0.02473   0.03070
 Alpha virt. eigenvalues --    0.04835   0.05352   0.05637   0.05794   0.06636
 Alpha virt. eigenvalues --    0.07092   0.08604   0.08754   0.09139   0.09860

 Mulliken charges:
               1
     1  Mg   0.809448
     2  C    0.109133
     3  C   -0.191331
     4  C   -0.172980
     5  C   -0.190868
     6  N   -0.632659
     7  C    0.270396
     8  C   -0.138956
     9  C   -0.126811
    10  C    0.322098
    11  C   -0.318069
    12  C   -0.152616
    13  C   -0.235346
    14  C    0.580087
    15  O   -0.454259
    16  O   -0.437771
    17  N   -0.707169
    18  C    0.251967
    19  C    0.065342
    20  C    0.011013
    21  C    0.362115
    22  C   -0.395162
    23  C   -0.088902
    24  C   -0.247573
    25  N   -0.665074
    26  C    0.278247
    27  C    0.077613
    28  C    0.017695
    29  C    0.278658
    30  C   -0.418142
    31  C   -0.220589
    32  C   -0.281987
    33  N   -0.720245
    34  C    0.304861
    35  C    0.051047
    36  C   -0.038843
    37  C    0.305211
    38  C   -0.399501
    39  C    0.368814
    40  O   -0.459898
    41  C   -0.322422
    42  C    0.607893
    43  O   -0.461495
    44  O   -0.429879
    45  C   -0.078915
    46  C   -0.014734
    47  C   -0.120161
    48  C    0.091712
    49  C   -0.353720
    50  C   -0.220070
    51  C   -0.176760
    52  C   -0.158527
    53  C   -0.070775
    54  C   -0.291040
    55  C   -0.168890
    56  C   -0.191624
    57  C   -0.148790
    58  C   -0.049646
    59  C   -0.295395
    60  C   -0.164232
    61  C   -0.164026
    62  C   -0.152597
    63  C   -0.068165
    64  C   -0.296577
    65  C   -0.312178
    66  H    0.080982
    67  H    0.052919
    68  H    0.073606
    69  H    0.101783
    70  H    0.070880
    71  H    0.118894
    72  H    0.098869
    73  H    0.121885
    74  H    0.037958
    75  H    0.125491
    76  H    0.136548
    77  H    0.137565
    78  H    0.120014
    79  H    0.141692
    80  H    0.115257
    81  H    0.080529
    82  H    0.098719
    83  H    0.106292
    84  H    0.132294
    85  H    0.115466
    86  H    0.131493
    87  H    0.105581
    88  H    0.079415
    89  H    0.101723
    90  H    0.099305
    91  H    0.091833
    92  H    0.126555
    93  H    0.125772
    94  H    0.140237
    95  H    0.160907
    96  H    0.102672
    97  H    0.153284
    98  H    0.116378
    99  H    0.122927
   100  H    0.134321
   101  H    0.071261
   102  H    0.115215
   103  H    0.082532
   104  H    0.143333
   105  H    0.113742
   106  H    0.103912
   107  H    0.111448
   108  H    0.104457
   109  H    0.089469
   110  H    0.082056
   111  H    0.082403
   112  H    0.090931
   113  H    0.061330
   114  H    0.121649
   115  H    0.071305
   116  H    0.098553
   117  H    0.088972
   118  H    0.098417
   119  H    0.087175
   120  H    0.080425
   121  H    0.044639
   122  H    0.094605
   123  H    0.089339
   124  H    0.111158
   125  H    0.055949
   126  H    0.079750
   127  H    0.073057
   128  H    0.102584
   129  H    0.082250
   130  H    0.093149
   131  H    0.082807
   132  H    0.053195
   133  H    0.091675
   134  H    0.115935
   135  H    0.111448
   136  H    0.087123
   137  H    0.114722
 Sum of Mulliken charges =  -0.00000

 Dipole moment (field-independent basis, Debye):
    X=              2.1334    Y=              3.7166    Z=              0.4394  Tot=              4.3079
 Quadrupole moment (field-independent basis, Debye-Ang):
   XX=           -339.6588   YY=           -395.4689   ZZ=           -396.3872
   XY=            -20.6826   XZ=             13.4774   YZ=             -3.9538

 Normal termination of Gaussian 16 at Sun Sep 22 20:46:52 2019.
