 Gaussian 16, Revision A.03,
 Gaussian 16:  ES64L-G16RevA.03 25-Dec-2016

 ----------------------------------------------------------------------
 # td=(NStates=1) iop(3/107=0140000000,3/108=0140000000) CAM-B3LYP/6-31
 G(d,p)
 ----------------------------------------------------------------------

 --
 TD
 --
 Symbolic Z-matrix:
 Charge =  0 Multiplicity = 1

                         Standard orientation:
 ---------------------------------------------------------------------
 Center     Atomic      Atomic             Coordinates (Angstroms)
 Number     Number       Type             X           Y           Z
 ---------------------------------------------------------------------
      1         12           0       -7.073601    0.585377    0.186544
      2          6           0       -4.795617   -1.937587    0.457846
      3          6           0       -4.777679    2.771086    1.225586
      4          6           0       -9.377523    3.159974   -0.424368
      5          6           0       -9.532793   -1.675700   -0.922517
      6          7           0       -5.106693    0.461069    0.692315
      7          6           0       -4.251618   -0.737430    0.846187
      8          6           0       -2.872327   -0.361237    1.362088
      9          6           0       -3.049860    1.088592    1.729268
     10          6           0       -4.374351    1.455476    1.206856
     11          6           0       -2.890758    1.237650    3.220260
     12          6           0       -1.900004   -0.697247    0.141590
     13          6           0       -0.420813   -0.583123    0.650927
     14          6           0        0.547169   -0.856330   -0.504410
     15          8           0        0.211973   -1.247208   -1.586002
     16          8           0        1.802916   -0.549667   -0.014274
     17          7           0       -6.980330    2.667721    0.330141
     18          6           0       -5.998695    3.335180    0.784973
     19          6           0       -6.265154    4.804393    0.746365
     20          6           0       -7.624607    4.924379    0.312241
     21          6           0       -8.115247    3.575349    0.056650
     22          6           0       -5.336159    5.846139    1.149847
     23          6           0       -8.352941    6.079311    0.074126
     24          6           0       -8.151073    7.230151    0.699410
     25          7           0       -9.087757    0.706659   -0.468643
     26          6           0       -9.859050    1.927349   -0.645341
     27          6           0      -11.161967    1.568983   -1.164051
     28          6           0      -11.229442    0.209483   -1.296425
     29          6           0       -9.825311   -0.231930   -0.905520
     30          6           0      -12.296255    2.549977   -1.431451
     31          6           0      -12.338382   -0.770172   -1.835917
     32          6           0      -12.027520   -1.342095   -3.221516
     33          7           0       -7.201733   -1.304800   -0.184226
     34          6           0       -8.299154   -2.182780   -0.528560
     35          6           0       -7.887754   -3.583044   -0.453200
     36          6           0       -6.519081   -3.530382   -0.124058
     37          6           0       -6.126633   -2.232112    0.127041
     38          6           0       -8.717979   -4.855980   -1.001254
     39          6           0       -5.305459   -4.384686    0.185019
     40          8           0       -5.069643   -5.500375    0.204460
     41          6           0       -4.123116   -3.217087    0.378148
     42          6           0       -3.626011   -3.700139    1.826283
     43          8           0       -3.929544   -3.134535    2.967134
     44          8           0       -2.795890   -4.792783    1.778540
     45          6           0       -2.451894   -5.427941    3.081285
     46          6           0        2.826599   -0.762603   -1.050381
     47          6           0        4.095285   -0.388765   -0.536952
     48          6           0        5.036948    0.458545   -1.001827
     49          6           0        4.949431    1.127330   -2.345248
     50          6           0        6.341257    0.545279   -0.199376
     51          6           0        7.628569   -0.041688   -0.923247
     52          6           0        8.876956    0.031207   -0.188906
     53          6           0       10.069441   -0.429391   -0.986977
     54          6           0       10.031157   -1.912496   -1.394403
     55          6           0       11.385145   -0.161590   -0.010761
     56          6           0       12.719532   -0.360625   -0.610185
     57          6           0       13.954832   -0.160773    0.182869
     58          6           0       15.309442   -0.222082   -0.537807
     59          6           0       15.596770   -1.648627   -1.047120
     60          6           0       16.396290    0.119888    0.479788
     61          6           0       17.830958    0.422722   -0.134582
     62          6           0       18.723141    1.240147    0.679119
     63          6           0       20.197842    1.305920    0.234077
     64          6           0       20.141536    2.017709   -1.050747
     65          6           0       21.010561    1.998428    1.344321
     66          1           0       -3.987213    3.623546    1.533639
     67          1           0      -10.092757    4.052214   -0.641435
     68          1           0      -10.403347   -2.344771   -1.346822
     69          1           0       -2.607346   -1.021226    2.216943
     70          1           0       -2.184196    1.536384    1.086015
     71          1           0       -1.909702    1.058082    3.564430
     72          1           0       -3.301296    2.358958    3.339925
     73          1           0       -3.651710    0.635437    3.592502
     74          1           0       -2.174283   -1.648478   -0.325141
     75          1           0       -1.875421    0.102826   -0.659001
     76          1           0       -0.359373    0.517069    0.969769
     77          1           0       -0.123590   -1.303136    1.403539
     78          1           0       -5.744008    6.726683    0.708514
     79          1           0       -5.304675    5.965905    2.316695
     80          1           0       -4.322196    5.507722    0.845377
     81          1           0       -9.045499    5.961829   -0.627597
     82          1           0       -8.819635    8.057252    0.578000
     83          1           0       -7.395287    7.367147    1.582085
     84          1           0      -11.849857    3.402193   -2.216178
     85          1           0      -13.188242    2.023735   -1.986270
     86          1           0      -12.699555    3.093716   -0.588035
     87          1           0      -12.458519   -1.560525   -1.348179
     88          1           0      -13.145114   -0.040946   -1.616449
     89          1           0      -12.796909   -2.313646   -3.273733
     90          1           0      -12.115678   -0.413397   -4.035277
     91          1           0      -11.037568   -1.787684   -3.427427
     92          1           0       -8.988909   -4.796479   -2.068713
     93          1           0       -8.070053   -5.677045   -0.838744
     94          1           0       -9.543559   -4.981846   -0.402946
     95          1           0       -3.261303   -3.550603   -0.191730
     96          1           0       -1.768683   -4.672741    3.680638
     97          1           0       -3.308010   -5.665620    3.473806
     98          1           0       -1.976012   -6.296203    2.738555
     99          1           0        2.790246   -1.871848   -1.309376
    100          1           0        2.291281   -0.140901   -1.848455
    101          1           0        4.232005   -1.027640    0.310164
    102          1           0        4.106161    1.212109   -2.821251
    103          1           0        5.491200    2.298156   -2.052434
    104          1           0        5.702585    0.752200   -3.040018
    105          1           0        6.425957    1.704174   -0.005749
    106          1           0        6.493419    0.104028    0.978507
    107          1           0        7.454589   -1.142545   -1.284965
    108          1           0        7.659241    0.454843   -1.999210
    109          1           0        9.034848    1.021917    0.046646
    110          1           0        8.683247   -0.533539    0.613990
    111          1           0       10.081923    0.453671   -1.908814
    112          1           0        9.022442   -2.081851   -1.951383
    113          1           0       10.944452   -2.217986   -2.111632
    114          1           0        9.903239   -2.750246   -0.719991
    115          1           0       11.364235    0.908082    0.245699
    116          1           0       11.373140   -0.905139    0.774150
    117          1           0       12.758250   -1.234243   -1.132658
    118          1           0       12.845965    0.285249   -1.567407
    119          1           0       13.736534    0.986827    0.647569
    120          1           0       14.048523   -0.771436    0.966072
    121          1           0       15.274834    0.414580   -1.426870
    122          1           0       15.580684   -2.392971   -0.131566
    123          1           0       14.620514   -1.731733   -1.654040
    124          1           0       16.578095   -1.815340   -1.638431
    125          1           0       16.066207    1.180238    0.883252
    126          1           0       16.384876   -0.381777    1.457516
    127          1           0       18.370294   -0.622663   -0.169617
    128          1           0       17.743847    0.804111   -1.267786
    129          1           0       18.335765    2.347160    0.876073
    130          1           0       18.608355    0.718773    1.623380
    131          1           0       20.768800    0.223481   -0.127931
    132          1           0       19.493256    2.758456   -1.171010
    133          1           0       21.263097    2.225990   -1.199166
    134          1           0       19.744658    1.399302   -1.872621
    135          1           0       20.626136    1.469107    2.303505
    136          1           0       22.115466    2.227712    1.182215
    137          1           0       20.531657    3.002788    1.612010
 ---------------------------------------------------------------------

 SCF Done:  E(RCAM-B3LYP) =  -2933.40347052     A.U. after   16 cycles

 Excitation energies and oscillator strengths:

 Excited State   1:      Singlet-A      1.9206 eV  645.56 nm  f=0.2854  <S**2>=0.000
     240 -> 243        0.18311
     241 -> 242        0.67512
 This state for optimization and/or second-order correction.
 Total Energy, E(TD-HF/TD-DFT) =  -2933.33289066
 Copying the excited state density for this state as the 1-particle RhoCI density.

 The electronic state is 1-A.
 Alpha  occ. eigenvalues --  -46.78836 -19.21662 -19.21439 -19.17922 -19.17674
 Alpha  occ. eigenvalues --  -19.15379 -14.37256 -14.35238 -14.35035 -14.34649
 Alpha  occ. eigenvalues --  -10.34418 -10.34295 -10.31364 -10.27260 -10.26458
 Alpha  occ. eigenvalues --  -10.26244 -10.25320 -10.25254 -10.24988 -10.24869
 Alpha  occ. eigenvalues --  -10.24819 -10.24774 -10.24649 -10.24521 -10.24379
 Alpha  occ. eigenvalues --  -10.24292 -10.24128 -10.24033 -10.23977 -10.23973
 Alpha  occ. eigenvalues --  -10.23796 -10.23309 -10.23092 -10.23076 -10.22947
 Alpha  occ. eigenvalues --  -10.22930 -10.22805 -10.22668 -10.22643 -10.22518
 Alpha  occ. eigenvalues --  -10.22354 -10.22333 -10.22204 -10.21943 -10.21866
 Alpha  occ. eigenvalues --  -10.21828 -10.21826 -10.21794 -10.21780 -10.21679
 Alpha  occ. eigenvalues --  -10.21610 -10.21586 -10.21550 -10.21471 -10.21467
 Alpha  occ. eigenvalues --  -10.21338 -10.21115 -10.21103 -10.21089 -10.20980
 Alpha  occ. eigenvalues --  -10.20891 -10.20881 -10.19612 -10.19199 -10.18776
 Alpha  occ. eigenvalues --   -3.07616  -1.82537  -1.82096  -1.82039  -1.12246
 Alpha  occ. eigenvalues --   -1.11841  -1.09418  -1.05304  -0.99023  -0.98471
 Alpha  occ. eigenvalues --   -0.98004  -0.96976  -0.95375  -0.87373  -0.86600
 Alpha  occ. eigenvalues --   -0.85861  -0.85277  -0.85146  -0.84752  -0.84328
 Alpha  occ. eigenvalues --   -0.83401  -0.82938  -0.82071  -0.80999  -0.80451
 Alpha  occ. eigenvalues --   -0.80264  -0.79196  -0.78395  -0.78254  -0.77873
 Alpha  occ. eigenvalues --   -0.77148  -0.76073  -0.75592  -0.75366  -0.73585
 Alpha  occ. eigenvalues --   -0.72761  -0.71970  -0.71517  -0.71516  -0.71021
 Alpha  occ. eigenvalues --   -0.70269  -0.69947  -0.69384  -0.68492  -0.67782
 Alpha  occ. eigenvalues --   -0.66801  -0.65493  -0.64784  -0.63887  -0.63553
 Alpha  occ. eigenvalues --   -0.62317  -0.61386  -0.60966  -0.60167  -0.59925
 Alpha  occ. eigenvalues --   -0.59131  -0.58922  -0.58449  -0.58062  -0.57502
 Alpha  occ. eigenvalues --   -0.57069  -0.56865  -0.56244  -0.55970  -0.54969
 Alpha  occ. eigenvalues --   -0.53928  -0.53499  -0.53026  -0.52687  -0.52343
 Alpha  occ. eigenvalues --   -0.52051  -0.51702  -0.51502  -0.51262  -0.50622
 Alpha  occ. eigenvalues --   -0.50545  -0.50237  -0.50176  -0.49848  -0.49504
 Alpha  occ. eigenvalues --   -0.48892  -0.48444  -0.48364  -0.47995  -0.47574
 Alpha  occ. eigenvalues --   -0.47413  -0.47320  -0.47240  -0.46926  -0.46476
 Alpha  occ. eigenvalues --   -0.46458  -0.46319  -0.46200  -0.46063  -0.45659
 Alpha  occ. eigenvalues --   -0.45629  -0.45527  -0.45194  -0.45006  -0.44831
 Alpha  occ. eigenvalues --   -0.44695  -0.44417  -0.44258  -0.44039  -0.43964
 Alpha  occ. eigenvalues --   -0.43835  -0.43338  -0.42948  -0.42747  -0.42530
 Alpha  occ. eigenvalues --   -0.42408  -0.42222  -0.41956  -0.41716  -0.41677
 Alpha  occ. eigenvalues --   -0.41449  -0.41360  -0.41147  -0.41041  -0.40782
 Alpha  occ. eigenvalues --   -0.40721  -0.40301  -0.40217  -0.40032  -0.39808
 Alpha  occ. eigenvalues --   -0.39680  -0.39364  -0.39029  -0.38984  -0.38738
 Alpha  occ. eigenvalues --   -0.38628  -0.38504  -0.38099  -0.37937  -0.37870
 Alpha  occ. eigenvalues --   -0.37810  -0.37708  -0.37472  -0.37289  -0.37174
 Alpha  occ. eigenvalues --   -0.36868  -0.36698  -0.36419  -0.36344  -0.36086
 Alpha  occ. eigenvalues --   -0.36012  -0.35319  -0.35111  -0.35010  -0.34533
 Alpha  occ. eigenvalues --   -0.34255  -0.33811  -0.33723  -0.33616  -0.33187
 Alpha  occ. eigenvalues --   -0.33099  -0.32995  -0.32790  -0.32575  -0.31693
 Alpha  occ. eigenvalues --   -0.31676  -0.31471  -0.31103  -0.30737  -0.30525
 Alpha  occ. eigenvalues --   -0.30033  -0.29857  -0.28353  -0.28160  -0.26994
 Alpha  occ. eigenvalues --   -0.26890  -0.26491  -0.26132  -0.23752  -0.21680
 Alpha  occ. eigenvalues --   -0.19269
 Alpha virt. eigenvalues --   -0.07278  -0.03009   0.00192   0.02436   0.03085
 Alpha virt. eigenvalues --    0.03646   0.04291   0.04967   0.05367   0.05784
 Alpha virt. eigenvalues --    0.06903   0.08288   0.08841   0.09325   0.09406

 Mulliken charges:
               1
     1  Mg   0.808988
     2  C    0.116144
     3  C   -0.217148
     4  C   -0.193013
     5  C   -0.180011
     6  N   -0.641479
     7  C    0.276340
     8  C   -0.138311
     9  C   -0.149780
    10  C    0.402553
    11  C   -0.289317
    12  C   -0.183715
    13  C   -0.265048
    14  C    0.605647
    15  O   -0.454670
    16  O   -0.488426
    17  N   -0.702249
    18  C    0.384436
    19  C    0.008485
    20  C    0.027902
    21  C    0.235789
    22  C   -0.378012
    23  C   -0.044166
    24  C   -0.265172
    25  N   -0.655571
    26  C    0.280456
    27  C    0.045915
    28  C   -0.027004
    29  C    0.323683
    30  C   -0.375944
    31  C   -0.187235
    32  C   -0.297670
    33  N   -0.728041
    34  C    0.283973
    35  C   -0.028835
    36  C    0.011023
    37  C    0.252668
    38  C   -0.365187
    39  C    0.370119
    40  O   -0.382231
    41  C   -0.381660
    42  C    0.574654
    43  O   -0.522418
    44  O   -0.462144
    45  C   -0.066017
    46  C    0.000884
    47  C   -0.100250
    48  C    0.119561
    49  C   -0.333006
    50  C   -0.211521
    51  C   -0.177973
    52  C   -0.130196
    53  C   -0.048083
    54  C   -0.325177
    55  C   -0.161316
    56  C   -0.192373
    57  C   -0.135388
    58  C   -0.062841
    59  C   -0.292509
    60  C   -0.173905
    61  C   -0.168249
    62  C   -0.164250
    63  C   -0.023481
    64  C   -0.286433
    65  C   -0.307761
    66  H    0.063621
    67  H    0.085624
    68  H    0.087878
    69  H    0.131426
    70  H    0.092299
    71  H    0.119557
    72  H    0.086389
    73  H    0.138195
    74  H    0.125134
    75  H    0.110687
    76  H    0.124196
    77  H    0.135586
    78  H    0.123665
    79  H    0.110702
    80  H    0.113608
    81  H    0.082976
    82  H    0.098044
    83  H    0.098966
    84  H    0.090940
    85  H    0.105121
    86  H    0.135155
    87  H    0.116197
    88  H    0.103906
    89  H    0.074949
    90  H    0.090935
    91  H    0.127790
    92  H    0.129538
    93  H    0.142950
    94  H    0.134746
    95  H    0.159584
    96  H    0.122602
    97  H    0.149610
    98  H    0.132481
    99  H    0.120077
   100  H    0.110624
   101  H    0.094130
   102  H    0.128579
   103  H    0.059907
   104  H    0.136391
   105  H    0.087288
   106  H    0.074037
   107  H    0.081875
   108  H    0.067308
   109  H    0.101938
   110  H    0.102128
   111  H    0.056623
   112  H    0.089436
   113  H    0.096530
   114  H    0.120185
   115  H    0.087736
   116  H    0.095055
   117  H    0.097970
   118  H    0.062236
   119  H    0.048089
   120  H    0.095473
   121  H    0.090538
   122  H    0.083289
   123  H    0.090028
   124  H    0.105894
   125  H    0.064454
   126  H    0.096960
   127  H    0.081159
   128  H    0.068488
   129  H    0.079119
   130  H    0.086260
   131  H    0.052134
   132  H    0.108876
   133  H    0.080287
   134  H    0.098559
   135  H    0.096335
   136  H    0.101868
   137  H    0.093048
 Sum of Mulliken charges =  -0.00000

 Dipole moment (field-independent basis, Debye):
    X=              1.3514    Y=              1.3210    Z=              0.1284  Tot=              1.8941
 Quadrupole moment (field-independent basis, Debye-Ang):
   XX=           -360.2307   YY=           -387.1169   ZZ=           -400.6102
   XY=            -10.5891   XZ=             12.5872   YZ=             -3.1914

 Normal termination of Gaussian 16 at Mon Sep  9 12:15:57 2019.
