 Gaussian 09, Revision D.01,
 Gaussian 09:  ES64L-G09RevD.01 24-Apr-2013

 -------------------------------------
 # td=(NStates=1) CAM-B3LYP/6-31G(d,p)
 -------------------------------------

 --
 TD
 --
 Symbolic Z-matrix:
 Charge =  0 Multiplicity = 1

                         Standard orientation:
 ---------------------------------------------------------------------
 Center     Atomic      Atomic             Coordinates (Angstroms)
 Number     Number       Type             X           Y           Z
 ---------------------------------------------------------------------
      1         12           0       -7.114202    0.533537    0.071088
      2          6           0       -4.819058   -1.993125    0.382396
      3          6           0       -4.805307    2.794813    1.010339
      4          6           0       -9.334327    3.043675   -0.423741
      5          6           0       -9.453990   -1.793385   -0.736955
      6          7           0       -5.121830    0.394994    0.688564
      7          6           0       -4.400277   -0.735397    0.754487
      8          6           0       -2.983891   -0.375151    1.237797
      9          6           0       -2.989083    1.149014    1.676108
     10          6           0       -4.349822    1.492550    1.119204
     11          6           0       -2.836471    1.252652    3.145431
     12          6           0       -1.999143   -0.553763    0.097710
     13          6           0       -0.486214   -0.382020    0.592149
     14          6           0        0.488253   -0.546346   -0.619032
     15          8           0        0.257911   -0.864170   -1.692737
     16          8           0        1.770866   -0.387784   -0.188244
     17          7           0       -7.050406    2.621101    0.302359
     18          6           0       -6.031642    3.310291    0.651832
     19          6           0       -6.466507    4.665421    0.887714
     20          6           0       -7.711882    4.795311    0.379409
     21          6           0       -8.049383    3.522568   -0.037482
     22          6           0       -5.647321    5.790335    1.379743
     23          6           0       -8.690848    5.988841    0.265047
     24          6           0       -8.592952    7.050508    0.936394
     25          7           0       -9.165792    0.605626   -0.428039
     26          6           0       -9.912405    1.782998   -0.582605
     27          6           0      -11.124361    1.439550   -1.123259
     28          6           0      -11.242775    0.077992   -1.192712
     29          6           0       -9.923652   -0.394009   -0.773187
     30          6           0      -12.237540    2.452273   -1.686880
     31          6           0      -12.409846   -0.687381   -1.743708
     32          6           0      -12.404702   -1.009236   -3.152356
     33          7           0       -7.130128   -1.388309   -0.302668
     34          6           0       -8.239052   -2.273741   -0.534035
     35          6           0       -7.753148   -3.685461   -0.516488
     36          6           0       -6.460786   -3.569406   -0.184095
     37          6           0       -6.140413   -2.219037    0.004210
     38          6           0       -8.674061   -4.839044   -0.820143
     39          6           0       -5.320538   -4.407972    0.207026
     40          8           0       -5.136582   -5.615676    0.174791
     41          6           0       -4.147557   -3.302575    0.533185
     42          6           0       -3.554087   -3.679080    1.911383
     43          8           0       -3.837071   -3.153251    2.997897
     44          8           0       -2.793079   -4.729127    1.783090
     45          6           0       -2.192623   -5.231841    3.007723
     46          6           0        2.818578   -0.565728   -1.160658
     47          6           0        4.158282   -0.353272   -0.495525
     48          6           0        5.139893    0.497135   -1.035018
     49          6           0        5.115829    1.139116   -2.354266
     50          6           0        6.435243    0.614847   -0.342693
     51          6           0        7.788025   -0.018207   -1.084851
     52          6           0        8.948161    0.028213   -0.092928
     53          6           0       10.192932   -0.398747   -0.863191
     54          6           0       10.129295   -1.844882   -1.445406
     55          6           0       11.419854   -0.283378    0.125977
     56          6           0       12.752916   -0.368025   -0.637611
     57          6           0       13.945668   -0.038437    0.273824
     58          6           0       15.308358   -0.239560   -0.454927
     59          6           0       15.614434   -1.650368   -0.799839
     60          6           0       16.434278    0.320865    0.471881
     61          6           0       17.905290    0.481596   -0.155855
     62          6           0       18.855731    1.074829    0.771218
     63          6           0       20.214006    1.242931    0.230557
     64          6           0       20.369518    2.053830   -1.086009
     65          6           0       21.141365    1.841715    1.261571
     66          1           0       -4.028819    3.702628    1.455592
     67          1           0       -9.967857    3.761047   -0.781807
     68          1           0      -10.204595   -2.505503   -1.039964
     69          1           0       -2.829273   -1.031174    2.028698
     70          1           0       -2.163120    1.715385    1.167544
     71          1           0       -1.808745    0.954541    3.382214
     72          1           0       -2.816487    2.378196    3.283492
     73          1           0       -3.567385    0.688014    3.701897
     74          1           0       -2.080958   -1.484542   -0.349870
     75          1           0       -2.007692    0.102277   -0.739980
     76          1           0       -0.180440    0.436117    1.199010
     77          1           0       -0.275902   -1.167632    1.312641
     78          1           0       -5.937004    6.634100    0.968290
     79          1           0       -5.681957    6.141570    2.331739
     80          1           0       -4.542058    5.921171    1.266503
     81          1           0       -9.412457    6.041907   -0.642657
     82          1           0       -9.373717    7.868462    0.988672
     83          1           0       -7.783300    7.085503    1.774220
     84          1           0      -11.987498    2.918620   -2.712363
     85          1           0      -13.325583    1.800918   -1.672526
     86          1           0      -12.511761    3.460586   -1.131896
     87          1           0      -12.651103   -1.579625   -0.995938
     88          1           0      -13.474355   -0.266926   -1.596600
     89          1           0      -13.346898   -1.629636   -3.311271
     90          1           0      -12.414584   -0.250235   -3.830224
     91          1           0      -11.578725   -1.864279   -3.576580
     92          1           0       -9.221156   -4.858977   -1.734978
     93          1           0       -8.040862   -5.752053   -0.929806
     94          1           0       -9.376639   -4.830363    0.188725
     95          1           0       -3.225028   -3.606081   -0.090035
     96          1           0       -1.990094   -4.287494    3.426760
     97          1           0       -2.965245   -5.790463    3.749093
     98          1           0       -1.370886   -6.083345    2.670182
     99          1           0        2.641747   -1.527937   -1.558743
    100          1           0        2.733995   -0.028777   -2.049359
    101          1           0        4.365129   -0.880979    0.332654
    102          1           0        4.151093    1.059883   -3.008788
    103          1           0        4.932021    2.317233   -2.177220
    104          1           0        6.093822    0.874300   -2.999407
    105          1           0        6.669709    1.621178   -0.263058
    106          1           0        6.534902   -0.012673    0.605765
    107          1           0        7.480018   -1.106659   -1.260917
    108          1           0        7.857499    0.461208   -2.193702
    109          1           0        9.086436    1.091638    0.123030
    110          1           0        8.789849   -0.642958    0.887602
    111          1           0       10.285197    0.194090   -1.659670
    112          1           0        9.391692   -1.975162   -2.209376
    113          1           0       11.155097   -2.262767   -1.856041
    114          1           0        9.999360   -2.452169   -0.564766
    115          1           0       11.303853    0.705246    0.520341
    116          1           0       11.075283   -0.860981    0.919797
    117          1           0       12.854761   -1.414629   -1.206771
    118          1           0       12.685076    0.427881   -1.429339
    119          1           0       13.739054    0.940099    0.698977
    120          1           0       13.904568   -0.846432    1.007824
    121          1           0       15.234164    0.243711   -1.363579
    122          1           0       16.010073   -2.298441    0.000280
    123          1           0       14.932524   -2.290712   -1.357876
    124          1           0       16.522805   -1.590644   -1.514927
    125          1           0       16.056791    1.304892    0.909918
    126          1           0       16.516097   -0.407287    1.365446
    127          1           0       17.983171   -0.606439   -0.526315
    128          1           0       17.654292    0.912811   -1.194286
    129          1           0       18.599793    2.131720    0.842985
    130          1           0       18.705598    0.468394    1.773563
    131          1           0       20.424309    0.181006   -0.114530
    132          1           0       20.186916    3.102588   -0.974961
    133          1           0       21.484079    2.027547   -1.363902
    134          1           0       19.587222    1.662656   -1.686046
    135          1           0       21.470857    1.115599    2.085392
    136          1           0       22.187166    2.018426    0.674374
    137          1           0       20.665850    2.892817    1.680746
 ---------------------------------------------------------------------

 SCF Done:  E(RCAM-B3LYP) =  -2932.67488069     A.U. after   16 cycles

 Excitation energies and oscillator strengths:

 Excited State   1:      Singlet-A      2.2857 eV  542.43 nm  f=0.1831  <S**2>=0.000
     240 -> 242       -0.25825
     240 -> 243       -0.19548
     241 -> 242        0.56146
     241 -> 243       -0.25915
 This state for optimization and/or second-order correction.
 Total Energy, E(TD-HF/TD-KS) =  -2932.59088244
 Copying the excited state density for this state as the 1-particle RhoCI density.

 The electronic state is 1-A.
 Alpha  occ. eigenvalues --  -46.84114 -19.27240 -19.24318 -19.22082 -19.21221
 Alpha  occ. eigenvalues --  -19.20443 -14.41134 -14.39596 -14.38766 -14.38465
 Alpha  occ. eigenvalues --  -10.39240 -10.38371 -10.36655 -10.33560 -10.30895
 Alpha  occ. eigenvalues --  -10.30281 -10.30239 -10.29880 -10.29589 -10.29547
 Alpha  occ. eigenvalues --  -10.29201 -10.29013 -10.28858 -10.28494 -10.28457
 Alpha  occ. eigenvalues --  -10.27884 -10.27749 -10.27679 -10.27576 -10.27352
 Alpha  occ. eigenvalues --  -10.27337 -10.27254 -10.27146 -10.27132 -10.27114
 Alpha  occ. eigenvalues --  -10.26984 -10.26969 -10.26724 -10.26338 -10.26271
 Alpha  occ. eigenvalues --  -10.26178 -10.26156 -10.26017 -10.25978 -10.25953
 Alpha  occ. eigenvalues --  -10.25840 -10.25836 -10.25801 -10.25752 -10.25739
 Alpha  occ. eigenvalues --  -10.25736 -10.25536 -10.25413 -10.25408 -10.25377
 Alpha  occ. eigenvalues --  -10.25295 -10.25294 -10.25292 -10.24735 -10.24622
 Alpha  occ. eigenvalues --  -10.24591 -10.24537 -10.24326 -10.24073 -10.23032
 Alpha  occ. eigenvalues --   -3.13183  -1.87892  -1.87407  -1.87379  -1.19718
 Alpha  occ. eigenvalues --   -1.19538  -1.11845  -1.10250  -1.08117  -1.05397
 Alpha  occ. eigenvalues --   -1.04906  -1.03676  -1.02733  -0.92874  -0.91174
 Alpha  occ. eigenvalues --   -0.90869  -0.90016  -0.89810  -0.89546  -0.89021
 Alpha  occ. eigenvalues --   -0.88835  -0.88177  -0.87948  -0.87361  -0.85686
 Alpha  occ. eigenvalues --   -0.84656  -0.84247  -0.84001  -0.83131  -0.82439
 Alpha  occ. eigenvalues --   -0.81772  -0.81520  -0.81027  -0.79690  -0.79066
 Alpha  occ. eigenvalues --   -0.78323  -0.76499  -0.76011  -0.75520  -0.75315
 Alpha  occ. eigenvalues --   -0.75156  -0.74286  -0.74089  -0.73192  -0.72497
 Alpha  occ. eigenvalues --   -0.72076  -0.70388  -0.69011  -0.68825  -0.68175
 Alpha  occ. eigenvalues --   -0.66221  -0.66008  -0.65091  -0.64945  -0.64512
 Alpha  occ. eigenvalues --   -0.63984  -0.63553  -0.63473  -0.63188  -0.62184
 Alpha  occ. eigenvalues --   -0.61868  -0.60812  -0.60454  -0.59568  -0.59282
 Alpha  occ. eigenvalues --   -0.58756  -0.58392  -0.58015  -0.57186  -0.56694
 Alpha  occ. eigenvalues --   -0.56086  -0.55858  -0.55663  -0.55168  -0.54951
 Alpha  occ. eigenvalues --   -0.54523  -0.54492  -0.53916  -0.53801  -0.53404
 Alpha  occ. eigenvalues --   -0.53060  -0.52683  -0.52348  -0.52110  -0.51759
 Alpha  occ. eigenvalues --   -0.51597  -0.51402  -0.51196  -0.50665  -0.50588
 Alpha  occ. eigenvalues --   -0.50148  -0.50075  -0.49748  -0.49400  -0.49346
 Alpha  occ. eigenvalues --   -0.49283  -0.48973  -0.48914  -0.48618  -0.48511
 Alpha  occ. eigenvalues --   -0.48196  -0.48067  -0.47425  -0.47238  -0.47138
 Alpha  occ. eigenvalues --   -0.46876  -0.46462  -0.46225  -0.45868  -0.45825
 Alpha  occ. eigenvalues --   -0.45666  -0.45461  -0.45250  -0.45060  -0.44953
 Alpha  occ. eigenvalues --   -0.44897  -0.44601  -0.44211  -0.44077  -0.44003
 Alpha  occ. eigenvalues --   -0.43921  -0.43678  -0.43619  -0.43455  -0.43107
 Alpha  occ. eigenvalues --   -0.42943  -0.42564  -0.42441  -0.42262  -0.42157
 Alpha  occ. eigenvalues --   -0.42044  -0.41888  -0.41651  -0.41481  -0.41425
 Alpha  occ. eigenvalues --   -0.41150  -0.41089  -0.41068  -0.40669  -0.40388
 Alpha  occ. eigenvalues --   -0.39923  -0.39657  -0.39469  -0.38837  -0.38823
 Alpha  occ. eigenvalues --   -0.38746  -0.38681  -0.38571  -0.37736  -0.37668
 Alpha  occ. eigenvalues --   -0.37389  -0.37065  -0.36937  -0.36685  -0.36427
 Alpha  occ. eigenvalues --   -0.36336  -0.36334  -0.35990  -0.35943  -0.35914
 Alpha  occ. eigenvalues --   -0.35293  -0.35222  -0.34497  -0.34018  -0.33522
 Alpha  occ. eigenvalues --   -0.33300  -0.32511  -0.32467  -0.31697  -0.30831
 Alpha  occ. eigenvalues --   -0.30586  -0.28423  -0.27943  -0.27657  -0.23465
 Alpha  occ. eigenvalues --   -0.21201
 Alpha virt. eigenvalues --   -0.05641  -0.02921   0.01700   0.04783   0.05190
 Alpha virt. eigenvalues --    0.06197   0.06471   0.06859   0.07753   0.08245
 Alpha virt. eigenvalues --    0.08819   0.10865   0.11278   0.11320   0.11632

 Mulliken charges:
               1
     1  Mg   0.818574
     2  C    0.082827
     3  C   -0.220835
     4  C   -0.149548
     5  C   -0.209922
     6  N   -0.660339
     7  C    0.328561
     8  C   -0.174384
     9  C   -0.136107
    10  C    0.333203
    11  C   -0.292251
    12  C   -0.177187
    13  C   -0.289576
    14  C    0.587398
    15  O   -0.424038
    16  O   -0.497297
    17  N   -0.671838
    18  C    0.363245
    19  C   -0.016605
    20  C    0.037398
    21  C    0.231782
    22  C   -0.409081
    23  C   -0.021162
    24  C   -0.257951
    25  N   -0.674536
    26  C    0.255105
    27  C    0.039345
    28  C    0.022962
    29  C    0.298817
    30  C   -0.359346
    31  C   -0.251646
    32  C   -0.273322
    33  N   -0.747979
    34  C    0.290317
    35  C    0.048450
    36  C    0.002824
    37  C    0.339163
    38  C   -0.366397
    39  C    0.391484
    40  O   -0.444834
    41  C   -0.344450
    42  C    0.601914
    43  O   -0.513092
    44  O   -0.420615
    45  C   -0.078637
    46  C    0.026271
    47  C   -0.126993
    48  C    0.139496
    49  C   -0.368812
    50  C   -0.228244
    51  C   -0.201352
    52  C   -0.166551
    53  C   -0.070358
    54  C   -0.310901
    55  C   -0.172800
    56  C   -0.182738
    57  C   -0.165747
    58  C   -0.055660
    59  C   -0.321409
    60  C   -0.179169
    61  C   -0.195581
    62  C   -0.133010
    63  C   -0.062549
    64  C   -0.309073
    65  C   -0.284155
    66  H    0.064256
    67  H    0.075476
    68  H    0.090072
    69  H    0.122238
    70  H    0.114564
    71  H    0.106793
    72  H    0.099361
    73  H    0.131541
    74  H    0.121336
    75  H    0.128339
    76  H    0.133218
    77  H    0.133156
    78  H    0.129137
    79  H    0.121877
    80  H    0.102879
    81  H    0.094424
    82  H    0.102365
    83  H    0.089949
    84  H    0.117093
    85  H    0.087113
    86  H    0.103441
    87  H    0.088128
    88  H    0.104400
    89  H    0.092826
    90  H    0.129279
    91  H    0.062985
    92  H    0.143821
    93  H    0.145341
    94  H    0.123836
    95  H    0.153020
    96  H    0.147768
    97  H    0.121612
    98  H    0.123772
    99  H    0.115743
   100  H    0.109882
   101  H    0.084668
   102  H    0.111306
   103  H    0.103666
   104  H    0.114838
   105  H    0.108562
   106  H    0.096383
   107  H    0.101208
   108  H    0.077557
   109  H    0.104239
   110  H    0.084841
   111  H    0.092204
   112  H    0.108253
   113  H    0.082588
   114  H    0.098969
   115  H    0.086143
   116  H    0.092554
   117  H    0.079948
   118  H    0.087526
   119  H    0.093270
   120  H    0.094914
   121  H    0.092916
   122  H    0.102400
   123  H    0.104467
   124  H    0.087762
   125  H    0.076968
   126  H    0.076567
   127  H    0.086261
   128  H    0.087871
   129  H    0.092994
   130  H    0.091626
   131  H    0.078762
   132  H    0.100467
   133  H    0.101798
   134  H    0.108116
   135  H    0.098352
   136  H    0.072308
   137  H    0.084632
 Sum of Mulliken charges =   0.00000

 Dipole moment (field-independent basis, Debye):
    X=              1.5680    Y=              1.7656    Z=             -0.1731  Tot=              2.3677
 Quadrupole moment (field-independent basis, Debye-Ang):
   XX=           -359.3485   YY=           -386.2730   ZZ=           -397.6110
   XY=             -4.9558   XZ=             10.6264   YZ=             -3.5694

 Normal termination of Gaussian 09 at Fri Jul  5 04:50:30 2019.
