 Gaussian 16, Revision A.03,
 Gaussian 16:  ES64L-G16RevA.03 25-Dec-2016

 ----------------------------------------------------------------------
 # td=(NStates=1) iop(3/107=0140000000,3/108=0140000000) CAM-B3LYP/6-31
 G(d,p)
 ----------------------------------------------------------------------

 --
 TD
 --
 Symbolic Z-matrix:
 Charge =  0 Multiplicity = 1

                         Standard orientation:
 ---------------------------------------------------------------------
 Center     Atomic      Atomic             Coordinates (Angstroms)
 Number     Number       Type             X           Y           Z
 ---------------------------------------------------------------------
      1         12           0       -7.128068    0.556927    0.164970
      2          6           0       -4.867468   -1.897737    0.580994
      3          6           0       -4.708691    2.842227    1.122938
      4          6           0       -9.371977    3.141386   -0.357258
      5          6           0       -9.573213   -1.743188   -0.853479
      6          7           0       -5.149142    0.413756    0.854428
      7          6           0       -4.334244   -0.680070    0.835275
      8          6           0       -2.870583   -0.438534    1.338353
      9          6           0       -2.936233    1.021545    1.680474
     10          6           0       -4.318009    1.525491    1.104060
     11          6           0       -3.018912    1.194242    3.321539
     12          6           0       -1.923246   -0.616570    0.216066
     13          6           0       -0.519925   -0.291906    0.606327
     14          6           0        0.373616   -0.638110   -0.532830
     15          8           0        0.180675   -1.070910   -1.644877
     16          8           0        1.732913   -0.464404   -0.171260
     17          7           0       -7.059418    2.622235    0.442623
     18          6           0       -5.936395    3.365032    0.768146
     19          6           0       -6.331647    4.749887    0.818980
     20          6           0       -7.674468    4.818730    0.383403
     21          6           0       -8.080527    3.473555    0.140829
     22          6           0       -5.417588    5.937722    1.216194
     23          6           0       -8.447639    6.014227    0.055808
     24          6           0       -8.440603    7.282016    0.590961
     25          7           0       -9.080493    0.760421   -0.474152
     26          6           0       -9.831330    1.843473   -0.638297
     27          6           0      -11.210144    1.566708   -1.102688
     28          6           0      -11.209990    0.167943   -1.246661
     29          6           0       -9.894540   -0.308812   -0.845607
     30          6           0      -12.295626    2.576798   -1.485955
     31          6           0      -12.298618   -0.693283   -1.763356
     32          6           0      -12.073972   -1.346198   -3.177768
     33          7           0       -7.231271   -1.356330   -0.121816
     34          6           0       -8.241999   -2.199669   -0.519365
     35          6           0       -7.787102   -3.634777   -0.629049
     36          6           0       -6.466031   -3.520837   -0.136673
     37          6           0       -6.163194   -2.195204    0.184656
     38          6           0       -8.612501   -4.852811   -0.973729
     39          6           0       -5.335191   -4.341567    0.245815
     40          8           0       -5.237389   -5.531063    0.153378
     41          6           0       -4.150741   -3.317473    0.599487
     42          6           0       -3.566041   -3.702897    1.859801
     43          8           0       -3.667063   -3.198664    3.002912
     44          8           0       -2.769714   -4.892522    1.698152
     45          6           0       -2.071742   -5.259494    2.832542
     46          6           0        2.696133   -0.606008   -1.304527
     47          6           0        4.029705   -0.476451   -0.779739
     48          6           0        5.077442    0.435222   -1.121234
     49          6           0        5.124886    1.227601   -2.407451
     50          6           0        6.378189    0.439969   -0.343279
     51          6           0        7.613741   -0.268181   -1.027608
     52          6           0        8.893515   -0.072492   -0.208011
     53          6           0       10.224781   -0.598612   -0.887757
     54          6           0       10.041158   -2.040888   -1.312548
     55          6           0       11.392630   -0.282983   -0.003623
     56          6           0       12.788862   -0.554625   -0.610747
     57          6           0       13.954361   -0.268466    0.235261
     58          6           0       15.327537   -0.336249   -0.424622
     59          6           0       15.646281   -1.768293   -0.789665
     60          6           0       16.350287    0.324008    0.487905
     61          6           0       17.817382    0.483066   -0.171028
     62          6           0       18.775415    1.215517    0.778870
     63          6           0       20.165364    1.464413    0.216387
     64          6           0       20.199943    2.412299   -1.049114
     65          6           0       21.095096    2.000727    1.298534
     66          1           0       -3.876862    3.521994    1.465333
     67          1           0      -10.101703    3.960581   -0.554056
     68          1           0      -10.355505   -2.313419   -1.005509
     69          1           0       -2.735592   -1.095525    2.128145
     70          1           0       -2.163231    1.522296    1.140429
     71          1           0       -1.994064    1.057894    3.829884
     72          1           0       -3.559249    2.283322    3.621082
     73          1           0       -3.892588    0.463138    3.692546
     74          1           0       -2.021942   -1.725438    0.020780
     75          1           0       -2.386653   -0.048874   -0.826080
     76          1           0       -0.431393    0.946425    0.834786
     77          1           0       -0.409318   -0.833767    1.492230
     78          1           0       -5.554107    6.764459    0.499963
     79          1           0       -5.525514    6.245722    2.092558
     80          1           0       -4.382190    5.550757    1.220783
     81          1           0       -9.120070    5.972297   -0.947263
     82          1           0       -9.217607    8.071442    0.112741
     83          1           0       -7.711162    7.629915    1.312231
     84          1           0      -11.893265    3.199985   -2.230935
     85          1           0      -13.080874    1.881993   -1.750698
     86          1           0      -12.321592    3.064700   -0.534780
     87          1           0      -12.561371   -1.471075   -0.997679
     88          1           0      -13.373677   -0.160046   -1.772042
     89          1           0      -12.760452   -2.353168   -3.388625
     90          1           0      -12.432438   -0.663960   -3.990134
     91          1           0      -11.133410   -1.978487   -3.314464
     92          1           0       -8.575077   -4.987320   -2.116444
     93          1           0       -7.812060   -5.656490   -0.553629
     94          1           0       -9.620075   -4.795487   -0.464937
     95          1           0       -3.546093   -3.415542   -0.314448
     96          1           0       -1.495156   -4.429580    3.173860
     97          1           0       -2.923390   -5.571949    3.520630
     98          1           0       -1.365309   -6.104892    2.564497
     99          1           0        2.588584   -1.591564   -1.910202
    100          1           0        2.649271    0.275985   -2.051208
    101          1           0        4.107359   -0.972024    0.006978
    102          1           0        4.267490    1.229907   -3.063058
    103          1           0        5.324487    2.414644   -2.133125
    104          1           0        5.949230    1.101235   -3.071527
    105          1           0        6.574512    1.542436   -0.127517
    106          1           0        6.194320   -0.104126    0.677207
    107          1           0        7.366404   -1.384687   -1.146958
    108          1           0        7.716626    0.124477   -1.948335
    109          1           0        8.995084    1.033979    0.006386
    110          1           0        8.922635   -0.570572    0.896555
    111          1           0       10.230310    0.113607   -1.612127
    112          1           0        9.290218   -2.183648   -2.148740
    113          1           0       10.962336   -2.223927   -1.673144
    114          1           0        9.974296   -2.730397   -0.560668
    115          1           0       11.354109    0.802420    0.336613
    116          1           0       11.236728   -1.008841    0.754625
    117          1           0       12.564299   -1.557211   -0.976724
    118          1           0       12.900956   -0.179257   -1.565961
    119          1           0       13.790925    0.826952    0.569733
    120          1           0       13.850470   -0.879632    1.183093
    121          1           0       15.157322    0.460644   -1.364495
    122          1           0       15.694127   -2.530291    0.033561
    123          1           0       14.741259   -2.142088   -1.359874
    124          1           0       16.666658   -1.724980   -1.301023
    125          1           0       15.868046    1.402516    0.780983
    126          1           0       16.555409   -0.117878    1.548226
    127          1           0       18.090507   -0.638983   -0.513274
    128          1           0       17.483215    0.816899   -1.234866
    129          1           0       18.284022    2.281888    0.791056
    130          1           0       18.971249    0.803227    1.808454
    131          1           0       20.791688    0.346819   -0.141443
    132          1           0       19.655286    3.343335   -1.002904
    133          1           0       21.204685    2.558630   -1.441360
    134          1           0       19.587272    2.001118   -1.921196
    135          1           0       21.191290    1.415167    2.119753
    136          1           0       22.100889    2.123771    1.049761
    137          1           0       20.825994    3.056847    1.656703
 ---------------------------------------------------------------------

 SCF Done:  E(RCAM-B3LYP) =  -2933.49751308     A.U. after   16 cycles

 Excitation energies and oscillator strengths:

 Excited State   1:      Singlet-A      1.9911 eV  622.70 nm  f=0.2601  <S**2>=0.000
     240 -> 243       -0.23443
     241 -> 242        0.66481
 This state for optimization and/or second-order correction.
 Total Energy, E(TD-HF/TD-DFT) =  -2933.42434299
 Copying the excited state density for this state as the 1-particle RhoCI density.

 The electronic state is 1-A.
 Alpha  occ. eigenvalues --  -46.79573 -19.20528 -19.20368 -19.17561 -19.17410
 Alpha  occ. eigenvalues --  -19.17102 -14.38068 -14.35766 -14.35516 -14.35135
 Alpha  occ. eigenvalues --  -10.35213 -10.34978 -10.31060 -10.27218 -10.26608
 Alpha  occ. eigenvalues --  -10.26211 -10.26063 -10.25767 -10.25439 -10.25374
 Alpha  occ. eigenvalues --  -10.25224 -10.25172 -10.25061 -10.24994 -10.24870
 Alpha  occ. eigenvalues --  -10.24812 -10.24594 -10.24288 -10.24148 -10.24090
 Alpha  occ. eigenvalues --  -10.24062 -10.24043 -10.23959 -10.23915 -10.23519
 Alpha  occ. eigenvalues --  -10.23261 -10.23188 -10.23006 -10.22931 -10.22905
 Alpha  occ. eigenvalues --  -10.22869 -10.22732 -10.22699 -10.22637 -10.22543
 Alpha  occ. eigenvalues --  -10.22407 -10.22325 -10.22297 -10.22236 -10.22232
 Alpha  occ. eigenvalues --  -10.22092 -10.21717 -10.21615 -10.21448 -10.21274
 Alpha  occ. eigenvalues --  -10.21232 -10.20976 -10.20505 -10.20439 -10.20357
 Alpha  occ. eigenvalues --  -10.20342 -10.19946 -10.19386 -10.19131 -10.18988
 Alpha  occ. eigenvalues --   -3.08320  -1.83250  -1.82792  -1.82744  -1.11332
 Alpha  occ. eigenvalues --   -1.10860  -1.07988  -1.03005  -1.02487  -0.99117
 Alpha  occ. eigenvalues --   -0.98340  -0.98006  -0.97151  -0.87960  -0.87345
 Alpha  occ. eigenvalues --   -0.86267  -0.84767  -0.84077  -0.84064  -0.83475
 Alpha  occ. eigenvalues --   -0.83073  -0.82607  -0.82327  -0.81768  -0.81066
 Alpha  occ. eigenvalues --   -0.79925  -0.79464  -0.78731  -0.78122  -0.77310
 Alpha  occ. eigenvalues --   -0.76328  -0.76211  -0.75950  -0.75299  -0.73494
 Alpha  occ. eigenvalues --   -0.73062  -0.72620  -0.71850  -0.71436  -0.70867
 Alpha  occ. eigenvalues --   -0.70581  -0.70374  -0.69883  -0.68330  -0.67396
 Alpha  occ. eigenvalues --   -0.66849  -0.65959  -0.65353  -0.64275  -0.63922
 Alpha  occ. eigenvalues --   -0.62518  -0.62069  -0.61336  -0.60781  -0.60425
 Alpha  occ. eigenvalues --   -0.60093  -0.58914  -0.58502  -0.57827  -0.57308
 Alpha  occ. eigenvalues --   -0.57133  -0.56653  -0.56029  -0.55536  -0.55231
 Alpha  occ. eigenvalues --   -0.54967  -0.54385  -0.53818  -0.53596  -0.53068
 Alpha  occ. eigenvalues --   -0.52028  -0.51476  -0.51108  -0.51057  -0.50681
 Alpha  occ. eigenvalues --   -0.50156  -0.49749  -0.49478  -0.49154  -0.48926
 Alpha  occ. eigenvalues --   -0.48842  -0.48597  -0.48326  -0.48023  -0.47764
 Alpha  occ. eigenvalues --   -0.47402  -0.47337  -0.47275  -0.47029  -0.46715
 Alpha  occ. eigenvalues --   -0.46614  -0.46340  -0.46172  -0.46005  -0.45871
 Alpha  occ. eigenvalues --   -0.45704  -0.45587  -0.45365  -0.45281  -0.44829
 Alpha  occ. eigenvalues --   -0.44675  -0.44614  -0.44099  -0.43947  -0.43812
 Alpha  occ. eigenvalues --   -0.43727  -0.43454  -0.43378  -0.43114  -0.42790
 Alpha  occ. eigenvalues --   -0.42570  -0.42125  -0.41715  -0.41647  -0.41579
 Alpha  occ. eigenvalues --   -0.41488  -0.41482  -0.41186  -0.41138  -0.40944
 Alpha  occ. eigenvalues --   -0.40614  -0.40359  -0.40299  -0.40104  -0.39944
 Alpha  occ. eigenvalues --   -0.39771  -0.39667  -0.39489  -0.39327  -0.39138
 Alpha  occ. eigenvalues --   -0.38790  -0.38456  -0.38281  -0.38083  -0.37989
 Alpha  occ. eigenvalues --   -0.37678  -0.37572  -0.37432  -0.37243  -0.37019
 Alpha  occ. eigenvalues --   -0.36887  -0.36642  -0.36622  -0.36292  -0.36191
 Alpha  occ. eigenvalues --   -0.35879  -0.35639  -0.35128  -0.34816  -0.34600
 Alpha  occ. eigenvalues --   -0.34515  -0.34403  -0.33974  -0.33806  -0.33602
 Alpha  occ. eigenvalues --   -0.33575  -0.32769  -0.32158  -0.32031  -0.31847
 Alpha  occ. eigenvalues --   -0.31689  -0.31568  -0.31159  -0.30869  -0.30654
 Alpha  occ. eigenvalues --   -0.30534  -0.30084  -0.29877  -0.28957  -0.27655
 Alpha  occ. eigenvalues --   -0.27309  -0.25936  -0.25277  -0.24648  -0.21909
 Alpha  occ. eigenvalues --   -0.20322
 Alpha virt. eigenvalues --   -0.07613  -0.04168  -0.00387   0.01653   0.02178
 Alpha virt. eigenvalues --    0.02430   0.02648   0.04549   0.05072   0.05198
 Alpha virt. eigenvalues --    0.06074   0.08406   0.08876   0.09188   0.09306

 Mulliken charges:
               1
     1  Mg   0.812631
     2  C    0.032845
     3  C   -0.201327
     4  C   -0.175373
     5  C   -0.132999
     6  N   -0.621892
     7  C    0.297488
     8  C   -0.128166
     9  C   -0.122881
    10  C    0.301257
    11  C   -0.302886
    12  C   -0.175767
    13  C   -0.250263
    14  C    0.626289
    15  O   -0.451074
    16  O   -0.514411
    17  N   -0.718066
    18  C    0.327033
    19  C   -0.013322
    20  C    0.020704
    21  C    0.327803
    22  C   -0.360767
    23  C   -0.096163
    24  C   -0.245562
    25  N   -0.684941
    26  C    0.317386
    27  C   -0.023794
    28  C    0.050346
    29  C    0.277534
    30  C   -0.338849
    31  C   -0.277454
    32  C   -0.302571
    33  N   -0.740434
    34  C    0.261426
    35  C    0.024290
    36  C    0.012245
    37  C    0.317690
    38  C   -0.381305
    39  C    0.346240
    40  O   -0.434290
    41  C   -0.328119
    42  C    0.630193
    43  O   -0.488767
    44  O   -0.464053
    45  C   -0.060866
    46  C    0.030153
    47  C   -0.105129
    48  C    0.119988
    49  C   -0.374237
    50  C   -0.227889
    51  C   -0.164829
    52  C   -0.167035
    53  C   -0.066566
    54  C   -0.317211
    55  C   -0.176263
    56  C   -0.179616
    57  C   -0.154419
    58  C   -0.044940
    59  C   -0.302657
    60  C   -0.153593
    61  C   -0.179253
    62  C   -0.151726
    63  C   -0.018470
    64  C   -0.322010
    65  C   -0.313647
    66  H    0.086587
    67  H    0.084485
    68  H    0.069104
    69  H    0.135003
    70  H    0.092732
    71  H    0.112491
    72  H    0.086086
    73  H    0.126328
    74  H    0.110593
    75  H    0.096724
    76  H    0.125938
    77  H    0.156581
    78  H    0.122440
    79  H    0.140184
    80  H    0.099440
    81  H    0.083424
    82  H    0.090002
    83  H    0.102883
    84  H    0.137566
    85  H    0.116093
    86  H    0.137190
    87  H    0.113136
    88  H    0.088017
    89  H    0.068647
    90  H    0.122568
    91  H    0.116743
    92  H    0.135102
    93  H    0.143980
    94  H    0.132165
    95  H    0.185455
    96  H    0.113141
    97  H    0.118271
    98  H    0.111297
    99  H    0.124518
   100  H    0.097269
   101  H    0.074859
   102  H    0.118813
   103  H    0.079493
   104  H    0.131511
   105  H    0.091997
   106  H    0.091562
   107  H    0.096480
   108  H    0.103965
   109  H    0.076508
   110  H    0.057328
   111  H    0.092273
   112  H    0.103781
   113  H    0.110920
   114  H    0.112987
   115  H    0.079387
   116  H    0.093806
   117  H    0.079847
   118  H    0.090103
   119  H    0.073970
   120  H    0.083218
   121  H    0.061931
   122  H    0.107661
   123  H    0.100873
   124  H    0.096341
   125  H    0.058510
   126  H    0.079350
   127  H    0.073308
   128  H    0.093594
   129  H    0.093088
   130  H    0.101055
   131  H    0.029578
   132  H    0.104914
   133  H    0.107599
   134  H    0.091494
   135  H    0.107000
   136  H    0.106261
   137  H    0.084770
 Sum of Mulliken charges =  -0.00000

 Dipole moment (field-independent basis, Debye):
    X=              0.3713    Y=              3.6761    Z=             -0.9847  Tot=              3.8237
 Quadrupole moment (field-independent basis, Debye-Ang):
   XX=           -342.8323   YY=           -400.3042   ZZ=           -398.8727
   XY=            -10.8554   XZ=             16.4905   YZ=             -0.1242

 Normal termination of Gaussian 16 at Thu Sep 12 19:35:58 2019.
