 Gaussian 16, Revision A.03,
 Gaussian 16:  ES64L-G16RevA.03 25-Dec-2016

 ----------------------------------------------------------------------
 # td=(NStates=1) iop(3/107=0140000000,3/108=0140000000) CAM-B3LYP/6-31
 G(d,p)
 ----------------------------------------------------------------------

 --
 TD
 --
 Symbolic Z-matrix:
 Charge =  0 Multiplicity = 1

                         Standard orientation:
 ---------------------------------------------------------------------
 Center     Atomic      Atomic             Coordinates (Angstroms)
 Number     Number       Type             X           Y           Z
 ---------------------------------------------------------------------
      1         12           0       -7.094424    0.649489    0.075249
      2          6           0       -4.923876   -2.026632    0.401969
      3          6           0       -4.694745    2.759252    1.234057
      4          6           0       -9.277774    3.142404   -0.354824
      5          6           0       -9.614285   -1.685420   -0.885414
      6          7           0       -5.049479    0.279037    0.704649
      7          6           0       -4.308556   -0.827127    0.768563
      8          6           0       -2.854648   -0.568414    1.124320
      9          6           0       -3.039894    0.980589    1.715345
     10          6           0       -4.369976    1.455461    1.103458
     11          6           0       -3.142025    0.948059    3.270973
     12          6           0       -1.919995   -0.654113    0.004996
     13          6           0       -0.489731   -0.529717    0.547521
     14          6           0        0.582417   -0.540091   -0.618450
     15          8           0        0.372940   -0.878061   -1.776507
     16          8           0        1.799966   -0.254893   -0.215862
     17          7           0       -7.054603    2.587420    0.522876
     18          6           0       -5.912466    3.333980    0.754281
     19          6           0       -6.301587    4.766812    0.873375
     20          6           0       -7.657793    4.891905    0.573612
     21          6           0       -8.095723    3.545715    0.250147
     22          6           0       -5.352466    5.964206    1.145950
     23          6           0       -8.467417    6.053181    0.216441
     24          6           0       -8.273481    7.246336    0.674977
     25          7           0       -9.200917    0.784846   -0.377785
     26          6           0       -9.883966    1.876743   -0.569514
     27          6           0      -11.192310    1.615597   -1.058161
     28          6           0      -11.283930    0.274005   -1.284800
     29          6           0       -9.986411   -0.288203   -0.834426
     30          6           0      -12.260291    2.705085   -1.439970
     31          6           0      -12.477410   -0.589604   -1.538301
     32          6           0      -12.344143   -0.996843   -3.116516
     33          7           0       -7.350431   -1.314642   -0.179638
     34          6           0       -8.326976   -2.180612   -0.748591
     35          6           0       -7.930656   -3.548326   -0.646597
     36          6           0       -6.585904   -3.544819   -0.216544
     37          6           0       -6.260179   -2.234566    0.119893
     38          6           0       -8.749890   -4.724238   -1.015033
     39          6           0       -5.491876   -4.401597    0.106618
     40          8           0       -5.400384   -5.671306    0.238977
     41          6           0       -4.310115   -3.408108    0.492241
     42          6           0       -3.771350   -3.845209    1.887145
     43          8           0       -3.932293   -3.259737    2.916296
     44          8           0       -2.975791   -4.930163    1.720833
     45          6           0       -2.359536   -5.376483    2.947758
     46          6           0        2.745709   -0.655300   -1.200471
     47          6           0        4.195191   -0.470001   -0.582356
     48          6           0        5.193880    0.269569   -1.098254
     49          6           0        5.170829    1.110291   -2.391637
     50          6           0        6.430798    0.334053   -0.271324
     51          6           0        7.673999   -0.218053   -1.039918
     52          6           0        8.945427   -0.123319   -0.257792
     53          6           0       10.278079   -0.478696   -0.952904
     54          6           0       10.214973   -1.872577   -1.461044
     55          6           0       11.487922   -0.336316    0.032353
     56          6           0       12.911266   -0.431119   -0.652861
     57          6           0       14.006791   -0.146334    0.327918
     58          6           0       15.311141   -0.265919   -0.375930
     59          6           0       15.769495   -1.702252   -0.717746
     60          6           0       16.535678    0.356933    0.501165
     61          6           0       17.873700    0.528612   -0.142237
     62          6           0       18.834004    1.205808    0.786482
     63          6           0       20.302794    1.404746    0.217779
     64          6           0       20.398412    2.223426   -1.136078
     65          6           0       21.157768    1.854378    1.332122
     66          1           0       -3.917711    3.428580    1.599973
     67          1           0       -9.952551    3.971172   -0.522099
     68          1           0      -10.312713   -2.445217   -1.060819
     69          1           0       -2.631563   -1.162043    2.071077
     70          1           0       -2.184480    1.616511    1.285083
     71          1           0       -2.012494    0.787359    3.511610
     72          1           0       -3.270381    1.968435    3.730215
     73          1           0       -3.823078    0.195892    3.720936
     74          1           0       -2.069467   -1.534780   -0.620296
     75          1           0       -2.218651    0.126575   -0.822235
     76          1           0       -0.287333    0.528499    0.931051
     77          1           0       -0.275767   -1.063857    1.298888
     78          1           0       -5.389104    6.623386    0.384534
     79          1           0       -5.498795    6.503530    2.139271
     80          1           0       -4.170325    5.506984    1.007593
     81          1           0       -9.183864    5.752282   -0.606889
     82          1           0       -9.078116    8.043986    0.423556
     83          1           0       -7.563274    7.559054    1.546715
     84          1           0      -11.816455    3.379417   -1.933928
     85          1           0      -13.086757    2.074572   -2.067353
     86          1           0      -12.943198    3.221716   -0.578644
     87          1           0      -12.568581   -1.488577   -0.970022
     88          1           0      -13.496004    0.024475   -1.303765
     89          1           0      -13.017313   -1.677964   -3.553773
     90          1           0      -12.298169   -0.209349   -3.766413
     91          1           0      -11.474339   -1.546608   -3.368912
     92          1           0       -9.105512   -4.463258   -1.970518
     93          1           0       -8.008175   -5.521645   -1.223539
     94          1           0       -9.547498   -4.780475   -0.253006
     95          1           0       -3.466156   -3.553336   -0.211439
     96          1           0       -1.695745   -4.577956    3.291413
     97          1           0       -3.121121   -5.545580    3.537679
     98          1           0       -1.710168   -6.254119    2.645714
     99          1           0        2.689515   -1.591452   -1.401598
    100          1           0        2.677321    0.007639   -1.902572
    101          1           0        4.422112   -0.819152    0.405343
    102          1           0        4.143148    1.391743   -2.716958
    103          1           0        5.801996    1.919911   -2.368174
    104          1           0        5.675519    0.513483   -3.214940
    105          1           0        6.318651    1.509267   -0.096522
    106          1           0        6.407407   -0.065131    0.779845
    107          1           0        7.346604   -1.318659   -1.322094
    108          1           0        7.849621    0.230893   -2.044800
    109          1           0        9.033789    0.946261   -0.205121
    110          1           0        8.847318   -0.661334    0.708703
    111          1           0       10.262360    0.355191   -1.602488
    112          1           0        9.258411   -2.052484   -1.960687
    113          1           0       11.087737   -2.287990   -2.132246
    114          1           0       10.136555   -2.321661   -0.486270
    115          1           0       11.466062    0.803323    0.456633
    116          1           0       11.393659   -1.136343    0.745757
    117          1           0       13.050488   -1.323503   -1.354612
    118          1           0       13.082900    0.405456   -1.375752
    119          1           0       13.644760    0.890593    0.807861
    120          1           0       13.639120   -0.621415    1.352709
    121          1           0       15.391697    0.376477   -1.206667
    122          1           0       15.572704   -2.593453   -0.113133
    123          1           0       15.375172   -1.907198   -1.690264
    124          1           0       16.956189   -1.768263   -0.720091
    125          1           0       16.025499    1.264808    0.801418
    126          1           0       16.656394   -0.267337    1.439923
    127          1           0       18.078790   -0.548082   -0.366269
    128          1           0       17.831380    1.016579   -1.062006
    129          1           0       18.539311    2.166475    0.932470
    130          1           0       18.735035    0.776341    1.787153
    131          1           0       20.704239    0.457358   -0.021385
    132          1           0       20.124143    3.305282   -0.832565
    133          1           0       21.431648    2.238709   -1.341712
    134          1           0       19.674708    1.817613   -1.807262
    135          1           0       20.899565    1.460895    2.367071
    136          1           0       22.271990    1.796045    1.285328
    137          1           0       20.843556    2.885400    1.698125
 ---------------------------------------------------------------------

 SCF Done:  E(RCAM-B3LYP) =  -2933.52086352     A.U. after   16 cycles

 Excitation energies and oscillator strengths:

 Excited State   1:      Singlet-A      2.0395 eV  607.91 nm  f=0.2136  <S**2>=0.000
     240 -> 243       -0.26827
     241 -> 242        0.64458
 This state for optimization and/or second-order correction.
 Total Energy, E(TD-HF/TD-DFT) =  -2933.44591246
 Copying the excited state density for this state as the 1-particle RhoCI density.

 The electronic state is 1-A.
 Alpha  occ. eigenvalues --  -46.79840 -19.22273 -19.21064 -19.16631 -19.16010
 Alpha  occ. eigenvalues --  -19.15290 -14.37330 -14.35924 -14.34845 -14.34784
 Alpha  occ. eigenvalues --  -10.34408 -10.34001 -10.30071 -10.26360 -10.26210
 Alpha  occ. eigenvalues --  -10.25922 -10.25642 -10.25408 -10.25093 -10.24977
 Alpha  occ. eigenvalues --  -10.24382 -10.24259 -10.23986 -10.23951 -10.23832
 Alpha  occ. eigenvalues --  -10.23792 -10.23691 -10.23575 -10.23563 -10.23489
 Alpha  occ. eigenvalues --  -10.23282 -10.23129 -10.23120 -10.23079 -10.23009
 Alpha  occ. eigenvalues --  -10.22923 -10.22897 -10.22884 -10.22832 -10.22662
 Alpha  occ. eigenvalues --  -10.22568 -10.22551 -10.22255 -10.22066 -10.22051
 Alpha  occ. eigenvalues --  -10.22046 -10.21987 -10.21903 -10.21806 -10.21694
 Alpha  occ. eigenvalues --  -10.21419 -10.21133 -10.20997 -10.20990 -10.20836
 Alpha  occ. eigenvalues --  -10.20718 -10.20618 -10.20606 -10.20520 -10.20440
 Alpha  occ. eigenvalues --  -10.20340 -10.20069 -10.19740 -10.19516 -10.19433
 Alpha  occ. eigenvalues --   -3.08373  -1.83310  -1.82830  -1.82797  -1.15012
 Alpha  occ. eigenvalues --   -1.12741  -1.04617  -1.03579  -1.01912  -0.98710
 Alpha  occ. eigenvalues --   -0.98067  -0.96531  -0.95663  -0.87438  -0.86500
 Alpha  occ. eigenvalues --   -0.85529  -0.85188  -0.84814  -0.84631  -0.83470
 Alpha  occ. eigenvalues --   -0.83437  -0.82890  -0.82222  -0.81650  -0.80609
 Alpha  occ. eigenvalues --   -0.79899  -0.79431  -0.78439  -0.78147  -0.77640
 Alpha  occ. eigenvalues --   -0.76921  -0.76444  -0.75934  -0.75482  -0.73787
 Alpha  occ. eigenvalues --   -0.73373  -0.72456  -0.72114  -0.71337  -0.71213
 Alpha  occ. eigenvalues --   -0.70321  -0.70125  -0.69561  -0.68739  -0.67931
 Alpha  occ. eigenvalues --   -0.67587  -0.66553  -0.65962  -0.64852  -0.63809
 Alpha  occ. eigenvalues --   -0.62570  -0.62428  -0.60928  -0.60633  -0.60173
 Alpha  occ. eigenvalues --   -0.59908  -0.59713  -0.59522  -0.59161  -0.58368
 Alpha  occ. eigenvalues --   -0.57380  -0.56475  -0.56315  -0.55462  -0.55003
 Alpha  occ. eigenvalues --   -0.54672  -0.54290  -0.53815  -0.53081  -0.52636
 Alpha  occ. eigenvalues --   -0.52375  -0.52030  -0.51457  -0.51388  -0.50732
 Alpha  occ. eigenvalues --   -0.50492  -0.50470  -0.49715  -0.49402  -0.49286
 Alpha  occ. eigenvalues --   -0.48980  -0.48691  -0.48580  -0.48243  -0.48149
 Alpha  occ. eigenvalues --   -0.47788  -0.47602  -0.47261  -0.46927  -0.46853
 Alpha  occ. eigenvalues --   -0.46627  -0.46357  -0.46286  -0.46023  -0.45787
 Alpha  occ. eigenvalues --   -0.45658  -0.45109  -0.45054  -0.44971  -0.44798
 Alpha  occ. eigenvalues --   -0.44726  -0.44273  -0.44077  -0.43941  -0.43705
 Alpha  occ. eigenvalues --   -0.43598  -0.43355  -0.43228  -0.42737  -0.42584
 Alpha  occ. eigenvalues --   -0.42266  -0.42214  -0.41955  -0.41902  -0.41617
 Alpha  occ. eigenvalues --   -0.41375  -0.41170  -0.41066  -0.40997  -0.40841
 Alpha  occ. eigenvalues --   -0.40550  -0.40448  -0.40015  -0.39841  -0.39718
 Alpha  occ. eigenvalues --   -0.39550  -0.39402  -0.39283  -0.39128  -0.38893
 Alpha  occ. eigenvalues --   -0.38714  -0.38672  -0.38567  -0.38195  -0.37802
 Alpha  occ. eigenvalues --   -0.37694  -0.37621  -0.37530  -0.37422  -0.36985
 Alpha  occ. eigenvalues --   -0.36909  -0.36758  -0.36572  -0.36477  -0.36254
 Alpha  occ. eigenvalues --   -0.35989  -0.35878  -0.35829  -0.35310  -0.34816
 Alpha  occ. eigenvalues --   -0.34425  -0.34408  -0.33958  -0.33499  -0.33212
 Alpha  occ. eigenvalues --   -0.32888  -0.32783  -0.32390  -0.32324  -0.32261
 Alpha  occ. eigenvalues --   -0.32175  -0.31821  -0.31013  -0.30436  -0.30239
 Alpha  occ. eigenvalues --   -0.29745  -0.29707  -0.29614  -0.28340  -0.26697
 Alpha  occ. eigenvalues --   -0.26436  -0.26105  -0.25645  -0.25436  -0.21755
 Alpha  occ. eigenvalues --   -0.20226
 Alpha virt. eigenvalues --   -0.07121  -0.04460  -0.00609   0.02602   0.03807
 Alpha virt. eigenvalues --    0.04445   0.04927   0.05288   0.05541   0.06030
 Alpha virt. eigenvalues --    0.06525   0.08867   0.09130   0.09576   0.09787

 Mulliken charges:
               1
     1  Mg   0.811384
     2  C    0.034069
     3  C   -0.159984
     4  C   -0.182766
     5  C   -0.147543
     6  N   -0.631037
     7  C    0.317805
     8  C   -0.159007
     9  C   -0.164579
    10  C    0.339934
    11  C   -0.306327
    12  C   -0.165891
    13  C   -0.242703
    14  C    0.579120
    15  O   -0.485074
    16  O   -0.448438
    17  N   -0.680766
    18  C    0.285895
    19  C   -0.017344
    20  C    0.049723
    21  C    0.259095
    22  C   -0.364419
    23  C   -0.033657
    24  C   -0.263202
    25  N   -0.651916
    26  C    0.340402
    27  C   -0.003654
    28  C    0.052479
    29  C    0.241455
    30  C   -0.347959
    31  C   -0.238099
    32  C   -0.342280
    33  N   -0.693354
    34  C    0.256398
    35  C   -0.005851
    36  C    0.070720
    37  C    0.261986
    38  C   -0.372181
    39  C    0.330934
    40  O   -0.499532
    41  C   -0.317480
    42  C    0.614979
    43  O   -0.467393
    44  O   -0.446264
    45  C   -0.073998
    46  C    0.067838
    47  C   -0.186196
    48  C    0.130921
    49  C   -0.369992
    50  C   -0.216229
    51  C   -0.178388
    52  C   -0.173233
    53  C   -0.064730
    54  C   -0.290210
    55  C   -0.171563
    56  C   -0.171343
    57  C   -0.157123
    58  C   -0.056637
    59  C   -0.316232
    60  C   -0.204411
    61  C   -0.167410
    62  C   -0.170178
    63  C   -0.057145
    64  C   -0.311722
    65  C   -0.322130
    66  H    0.088379
    67  H    0.069249
    68  H    0.082830
    69  H    0.121190
    70  H    0.088013
    71  H    0.091477
    72  H    0.109681
    73  H    0.144044
    74  H    0.130063
    75  H    0.108130
    76  H    0.120482
    77  H    0.137904
    78  H    0.147592
    79  H    0.122306
    80  H    0.070626
    81  H    0.103028
    82  H    0.092294
    83  H    0.101902
    84  H    0.132562
    85  H    0.095195
    86  H    0.096987
    87  H    0.120360
    88  H    0.088442
    89  H    0.098231
    90  H    0.123010
    91  H    0.112451
    92  H    0.131815
    93  H    0.148819
    94  H    0.137556
    95  H    0.151805
    96  H    0.117880
    97  H    0.144835
    98  H    0.121349
    99  H    0.134341
   100  H    0.110409
   101  H    0.079559
   102  H    0.120022
   103  H    0.124977
   104  H    0.119123
   105  H    0.081125
   106  H    0.100250
   107  H    0.085093
   108  H    0.090369
   109  H    0.100168
   110  H    0.080991
   111  H    0.077506
   112  H    0.100691
   113  H    0.091378
   114  H    0.100334
   115  H    0.067925
   116  H    0.096335
   117  H    0.087157
   118  H    0.086900
   119  H    0.067702
   120  H    0.079452
   121  H    0.102124
   122  H    0.112942
   123  H    0.105348
   124  H    0.081663
   125  H    0.081862
   126  H    0.081068
   127  H    0.086838
   128  H    0.090105
   129  H    0.103360
   130  H    0.087677
   131  H    0.094303
   132  H    0.087927
   133  H    0.116684
   134  H    0.114110
   135  H    0.095499
   136  H    0.097038
   137  H    0.081590
 Sum of Mulliken charges =  -0.00000

 Dipole moment (field-independent basis, Debye):
    X=              2.1655    Y=              4.7748    Z=             -0.3586  Tot=              5.2552
 Quadrupole moment (field-independent basis, Debye-Ang):
   XX=           -362.9102   YY=           -395.8447   ZZ=           -395.4387
   XY=            -23.4100   XZ=             11.9361   YZ=             -1.3797

 Normal termination of Gaussian 16 at Wed Sep  4 05:05:09 2019.
