 Gaussian 09, Revision D.01,
 Gaussian 09:  ES64L-G09RevD.01 24-Apr-2013

 -------------------------------------
 # td=(NStates=1) CAM-B3LYP/6-31G(d,p)
 -------------------------------------

 --
 TD
 --
 Symbolic Z-matrix:
 Charge =  0 Multiplicity = 1

                         Standard orientation:
 ---------------------------------------------------------------------
 Center     Atomic      Atomic             Coordinates (Angstroms)
 Number     Number       Type             X           Y           Z
 ---------------------------------------------------------------------
      1         12           0       -7.177303    0.581854    0.014296
      2          6           0       -4.879453   -2.066661    0.492223
      3          6           0       -4.790389    2.786773    1.197963
      4          6           0       -9.300690    3.195667   -0.355790
      5          6           0       -9.500258   -1.699405   -0.888132
      6          7           0       -5.104564    0.366533    0.679517
      7          6           0       -4.330247   -0.825473    0.816552
      8          6           0       -2.911704   -0.483233    1.328237
      9          6           0       -3.060186    0.990660    1.676141
     10          6           0       -4.344480    1.408025    1.202724
     11          6           0       -2.997300    1.171842    3.236946
     12          6           0       -2.018386   -0.707154    0.004180
     13          6           0       -0.500448   -0.437135    0.278175
     14          6           0        0.483512   -0.888768   -0.758667
     15          8           0        0.197020   -1.330122   -1.825226
     16          8           0        1.797981   -0.646505   -0.360040
     17          7           0       -7.002958    2.613954    0.401811
     18          6           0       -5.928232    3.303081    0.881322
     19          6           0       -6.219734    4.728428    0.773534
     20          6           0       -7.573659    4.859981    0.282685
     21          6           0       -8.034579    3.497691    0.133821
     22          6           0       -5.289058    5.755454    1.177264
     23          6           0       -8.386187    6.061775    0.164045
     24          6           0       -8.313772    7.219974    0.895886
     25          7           0       -9.126461    0.768374   -0.434712
     26          6           0       -9.799794    1.875521   -0.622704
     27          6           0      -11.151749    1.590243   -1.086095
     28          6           0      -11.219132    0.290448   -1.246939
     29          6           0       -9.910765   -0.240170   -0.853082
     30          6           0      -12.128412    2.688213   -1.293939
     31          6           0      -12.373733   -0.462763   -1.637664
     32          6           0      -12.370638   -0.694087   -3.138066
     33          7           0       -7.241096   -1.327488   -0.133050
     34          6           0       -8.267213   -2.184807   -0.572005
     35          6           0       -7.899111   -3.555052   -0.556984
     36          6           0       -6.576360   -3.561244   -0.220162
     37          6           0       -6.224653   -2.204117    0.114146
     38          6           0       -8.671727   -4.708843   -1.001458
     39          6           0       -5.424704   -4.376783    0.169376
     40          8           0       -5.295737   -5.622472    0.137233
     41          6           0       -4.240978   -3.419937    0.518712
     42          6           0       -3.673030   -3.814009    1.926197
     43          8           0       -3.919554   -3.335804    2.980503
     44          8           0       -2.784914   -4.843235    1.835756
     45          6           0       -2.199564   -5.310143    3.061155
     46          6           0        2.857155   -0.791832   -1.324171
     47          6           0        4.136713   -0.663626   -0.684781
     48          6           0        5.121467    0.238131   -0.990568
     49          6           0        5.043887    1.117205   -2.200338
     50          6           0        6.398104    0.475726   -0.179366
     51          6           0        7.674239   -0.101209   -0.922311
     52          6           0        8.911473   -0.068552   -0.011982
     53          6           0       10.151779   -0.457350   -0.824873
     54          6           0       10.127125   -1.884370   -1.346841
     55          6           0       11.445166   -0.051526   -0.034329
     56          6           0       12.718331   -0.409170   -0.751589
     57          6           0       13.988031   -0.031554    0.120488
     58          6           0       15.232041   -0.129388   -0.590087
     59          6           0       15.563092   -1.573300   -0.946047
     60          6           0       16.361235    0.458330    0.351576
     61          6           0       17.798309    0.500198   -0.182749
     62          6           0       18.753208    1.240410    0.751809
     63          6           0       20.270084    1.399906    0.285228
     64          6           0       20.361357    2.212704   -0.841671
     65          6           0       21.056792    1.773054    1.436054
     66          1           0       -3.906596    3.397454    1.337383
     67          1           0       -9.977579    4.065111   -0.370902
     68          1           0      -10.378087   -2.279113   -1.081809
     69          1           0       -2.543926   -1.193364    2.186457
     70          1           0       -2.069908    1.792042    1.347196
     71          1           0       -2.086594    0.691603    3.516972
     72          1           0       -3.300460    2.139549    3.429668
     73          1           0       -3.863024    0.409154    3.575855
     74          1           0       -2.132838   -1.718227   -0.464307
     75          1           0       -2.266190   -0.047422   -0.803436
     76          1           0       -0.206243    0.624412    0.420196
     77          1           0       -0.164694   -0.972026    1.356148
     78          1           0       -5.621624    6.729541    0.656223
     79          1           0       -5.162579    6.310598    2.195909
     80          1           0       -4.249506    5.528986    0.961556
     81          1           0       -9.309951    5.905130   -0.534538
     82          1           0       -8.741327    8.010058    0.477258
     83          1           0       -7.545155    7.152156    1.869959
     84          1           0      -12.040404    3.340247   -2.113351
     85          1           0      -13.289114    2.407532   -1.596055
     86          1           0      -12.242815    3.280294   -0.567052
     87          1           0      -12.563609   -1.449111   -1.048306
     88          1           0      -13.246413    0.024445   -1.213059
     89          1           0      -13.246049   -1.279117   -3.653278
     90          1           0      -12.162652    0.279877   -3.545688
     91          1           0      -11.492164   -1.209156   -3.344666
     92          1           0       -9.099554   -4.695165   -2.073669
     93          1           0       -8.019579   -5.618374   -0.962293
     94          1           0       -9.372480   -4.899430   -0.355596
     95          1           0       -3.505350   -3.619152   -0.387629
     96          1           0       -1.764690   -4.357265    3.398128
     97          1           0       -2.888417   -5.840403    3.750417
     98          1           0       -1.356550   -6.023536    2.644212
     99          1           0        2.843341   -1.874116   -1.703175
    100          1           0        2.564560    0.109573   -2.158733
    101          1           0        4.298665   -1.430817    0.166428
    102          1           0        3.949454    1.284230   -2.456316
    103          1           0        5.623248    1.954629   -1.970839
    104          1           0        5.611324    0.763840   -3.071346
    105          1           0        6.659096    1.491676    0.056247
    106          1           0        6.576800   -0.313423    0.711345
    107          1           0        7.474732   -1.106047   -1.114328
    108          1           0        7.774938    0.520404   -1.733441
    109          1           0        8.914318    1.150552    0.141332
    110          1           0        8.652755   -0.833738    0.605985
    111          1           0       10.009960    0.237623   -1.844038
    112          1           0        9.247691   -2.227023   -1.910972
    113          1           0       11.087648   -2.186168   -2.143435
    114          1           0       10.143610   -2.775175   -0.474691
    115          1           0       11.640096    1.069521    0.074043
    116          1           0       11.457548   -0.558519    0.919716
    117          1           0       12.853036   -1.545600   -0.883957
    118          1           0       12.845363    0.152800   -1.736065
    119          1           0       13.807926    0.838583    0.572808
    120          1           0       13.784244   -0.601825    1.081141
    121          1           0       15.050607    0.465543   -1.477109
    122          1           0       15.890512   -2.021961    0.068659
    123          1           0       14.826176   -2.171337   -1.433943
    124          1           0       16.468194   -1.502730   -1.688126
    125          1           0       16.267882    1.465827    0.900816
    126          1           0       16.331302   -0.203454    1.124373
    127          1           0       17.987779   -0.379175   -0.341772
    128          1           0       17.914998    1.047259   -1.113477
    129          1           0       18.303458    2.182180    1.184721
    130          1           0       18.816571    0.614404    1.762861
    131          1           0       20.491325    0.320995    0.126016
    132          1           0       20.053038    3.265904   -0.832198
    133          1           0       21.630942    2.068776   -1.113602
    134          1           0       19.869274    1.755318   -1.677338
    135          1           0       20.945571    1.217869    2.343262
    136          1           0       22.085375    1.899732    1.131540
    137          1           0       20.900915    3.033110    1.709081
 ---------------------------------------------------------------------

 SCF Done:  E(RCAM-B3LYP) =  -2932.58912777     A.U. after   18 cycles

 Excitation energies and oscillator strengths:

 Excited State   1:      Singlet-A      1.9925 eV  622.24 nm  f=0.2087  <S**2>=0.000
     240 -> 243       -0.26102
     241 -> 242        0.65078
 This state for optimization and/or second-order correction.
 Total Energy, E(TD-HF/TD-KS) =  -2932.51590291
 Copying the excited state density for this state as the 1-particle RhoCI density.

 The electronic state is 1-A.
 Alpha  occ. eigenvalues --  -46.83791 -19.25122 -19.24951 -19.21453 -19.21304
 Alpha  occ. eigenvalues --  -19.20157 -14.42537 -14.40070 -14.39456 -14.38770
 Alpha  occ. eigenvalues --  -10.39577 -10.39209 -10.35456 -10.33225 -10.31966
 Alpha  occ. eigenvalues --  -10.31856 -10.31714 -10.30064 -10.29989 -10.29793
 Alpha  occ. eigenvalues --  -10.29585 -10.29336 -10.29134 -10.29116 -10.28995
 Alpha  occ. eigenvalues --  -10.28861 -10.28566 -10.28292 -10.28165 -10.28163
 Alpha  occ. eigenvalues --  -10.28145 -10.28106 -10.28085 -10.28054 -10.27490
 Alpha  occ. eigenvalues --  -10.27280 -10.27261 -10.27155 -10.27023 -10.26884
 Alpha  occ. eigenvalues --  -10.26646 -10.26571 -10.26448 -10.26010 -10.25853
 Alpha  occ. eigenvalues --  -10.25680 -10.25664 -10.25635 -10.25616 -10.25547
 Alpha  occ. eigenvalues --  -10.25513 -10.25513 -10.25317 -10.25300 -10.25294
 Alpha  occ. eigenvalues --  -10.25253 -10.25150 -10.25101 -10.24979 -10.24927
 Alpha  occ. eigenvalues --  -10.24797 -10.24493 -10.24133 -10.23171 -10.22624
 Alpha  occ. eigenvalues --   -3.13067  -1.87749  -1.87308  -1.87271  -1.18617
 Alpha  occ. eigenvalues --   -1.17290  -1.09674  -1.09577  -1.09000  -1.05404
 Alpha  occ. eigenvalues --   -1.04113  -1.03253  -1.02216  -0.93111  -0.91739
 Alpha  occ. eigenvalues --   -0.91383  -0.90579  -0.90278  -0.89688  -0.89468
 Alpha  occ. eigenvalues --   -0.89290  -0.88613  -0.88149  -0.87275  -0.86360
 Alpha  occ. eigenvalues --   -0.85802  -0.84498  -0.83944  -0.83700  -0.82748
 Alpha  occ. eigenvalues --   -0.82200  -0.81108  -0.80786  -0.80080  -0.78903
 Alpha  occ. eigenvalues --   -0.78484  -0.77311  -0.76494  -0.76493  -0.75564
 Alpha  occ. eigenvalues --   -0.75346  -0.74996  -0.73880  -0.73470  -0.72719
 Alpha  occ. eigenvalues --   -0.72277  -0.70551  -0.70246  -0.68845  -0.68298
 Alpha  occ. eigenvalues --   -0.67151  -0.66818  -0.65389  -0.64712  -0.64440
 Alpha  occ. eigenvalues --   -0.64022  -0.63565  -0.62589  -0.62027  -0.61957
 Alpha  occ. eigenvalues --   -0.61602  -0.60519  -0.59902  -0.59677  -0.59296
 Alpha  occ. eigenvalues --   -0.59113  -0.58326  -0.57955  -0.57625  -0.57017
 Alpha  occ. eigenvalues --   -0.56573  -0.56064  -0.55741  -0.55582  -0.55106
 Alpha  occ. eigenvalues --   -0.54967  -0.54354  -0.54182  -0.53980  -0.53522
 Alpha  occ. eigenvalues --   -0.53427  -0.53095  -0.52427  -0.52121  -0.51937
 Alpha  occ. eigenvalues --   -0.51915  -0.51690  -0.51549  -0.51288  -0.51037
 Alpha  occ. eigenvalues --   -0.50588  -0.50394  -0.50293  -0.50030  -0.49792
 Alpha  occ. eigenvalues --   -0.49689  -0.49552  -0.49204  -0.48719  -0.48475
 Alpha  occ. eigenvalues --   -0.48261  -0.47900  -0.47720  -0.47649  -0.47234
 Alpha  occ. eigenvalues --   -0.47196  -0.46947  -0.46691  -0.46267  -0.46127
 Alpha  occ. eigenvalues --   -0.45968  -0.45697  -0.45512  -0.45395  -0.45197
 Alpha  occ. eigenvalues --   -0.44765  -0.44729  -0.44542  -0.44235  -0.44196
 Alpha  occ. eigenvalues --   -0.44132  -0.43823  -0.43745  -0.43348  -0.43169
 Alpha  occ. eigenvalues --   -0.42963  -0.42855  -0.42590  -0.42570  -0.42386
 Alpha  occ. eigenvalues --   -0.42204  -0.41828  -0.41808  -0.41457  -0.41381
 Alpha  occ. eigenvalues --   -0.40860  -0.40748  -0.40453  -0.40339  -0.40176
 Alpha  occ. eigenvalues --   -0.40126  -0.40108  -0.39855  -0.39753  -0.39523
 Alpha  occ. eigenvalues --   -0.39291  -0.38884  -0.38752  -0.38234  -0.38104
 Alpha  occ. eigenvalues --   -0.37379  -0.37289  -0.37015  -0.36735  -0.36540
 Alpha  occ. eigenvalues --   -0.36372  -0.36301  -0.35832  -0.35745  -0.35447
 Alpha  occ. eigenvalues --   -0.35196  -0.35016  -0.34328  -0.34113  -0.33730
 Alpha  occ. eigenvalues --   -0.33484  -0.32681  -0.32445  -0.30776  -0.30287
 Alpha  occ. eigenvalues --   -0.29966  -0.29451  -0.28749  -0.26672  -0.23684
 Alpha  occ. eigenvalues --   -0.20644
 Alpha virt. eigenvalues --   -0.06098  -0.03932   0.00514   0.02916   0.04982
 Alpha virt. eigenvalues --    0.05260   0.05782   0.06066   0.06622   0.07413
 Alpha virt. eigenvalues --    0.07996   0.10137   0.10331   0.10990   0.11373

 Mulliken charges:
               1
     1  Mg   0.835307
     2  C    0.063660
     3  C   -0.247519
     4  C   -0.185669
     5  C   -0.175097
     6  N   -0.617780
     7  C    0.267256
     8  C   -0.149375
     9  C   -0.166567
    10  C    0.375176
    11  C   -0.288264
    12  C   -0.177575
    13  C   -0.258704
    14  C    0.602787
    15  O   -0.447688
    16  O   -0.503486
    17  N   -0.731603
    18  C    0.409595
    19  C    0.016647
    20  C    0.027741
    21  C    0.325368
    22  C   -0.407085
    23  C   -0.099872
    24  C   -0.231236
    25  N   -0.682019
    26  C    0.282948
    27  C    0.066480
    28  C    0.012528
    29  C    0.234931
    30  C   -0.380047
    31  C   -0.253299
    32  C   -0.306049
    33  N   -0.753727
    34  C    0.293070
    35  C    0.044234
    36  C    0.009557
    37  C    0.295969
    38  C   -0.381252
    39  C    0.365828
    40  O   -0.482241
    41  C   -0.319710
    42  C    0.617093
    43  O   -0.453455
    44  O   -0.462855
    45  C   -0.071103
    46  C    0.040110
    47  C   -0.131745
    48  C    0.130646
    49  C   -0.358228
    50  C   -0.237066
    51  C   -0.205671
    52  C   -0.152987
    53  C   -0.030297
    54  C   -0.305917
    55  C   -0.163624
    56  C   -0.186871
    57  C   -0.166190
    58  C   -0.060237
    59  C   -0.304298
    60  C   -0.195028
    61  C   -0.146232
    62  C   -0.198060
    63  C   -0.028836
    64  C   -0.276981
    65  C   -0.280546
    66  H    0.081445
    67  H    0.089329
    68  H    0.100594
    69  H    0.125882
    70  H    0.075913
    71  H    0.123002
    72  H    0.125590
    73  H    0.105011
    74  H    0.126118
    75  H    0.131890
    76  H    0.138586
    77  H    0.103650
    78  H    0.115716
    79  H    0.113768
    80  H    0.114620
    81  H    0.084776
    82  H    0.111474
    83  H    0.101999
    84  H    0.127882
    85  H    0.081968
    86  H    0.134025
    87  H    0.084306
    88  H    0.109004
    89  H    0.092835
    90  H    0.114272
    91  H    0.118071
    92  H    0.119325
    93  H    0.144621
    94  H    0.139531
    95  H    0.168151
    96  H    0.123271
    97  H    0.137926
    98  H    0.116771
    99  H    0.119083
   100  H    0.087371
   101  H    0.092542
   102  H    0.106323
   103  H    0.112579
   104  H    0.128941
   105  H    0.108302
   106  H    0.078356
   107  H    0.107373
   108  H    0.094820
   109  H    0.081484
   110  H    0.102092
   111  H    0.056423
   112  H    0.118939
   113  H    0.081979
   114  H    0.066722
   115  H    0.091896
   116  H    0.097365
   117  H    0.088570
   118  H    0.079053
   119  H    0.093676
   120  H    0.066023
   121  H    0.087472
   122  H    0.093625
   123  H    0.115612
   124  H    0.088031
   125  H    0.077175
   126  H    0.102588
   127  H    0.099318
   128  H    0.082862
   129  H    0.083285
   130  H    0.053760
   131  H    0.095661
   132  H    0.113239
   133  H    0.044507
   134  H    0.112909
   135  H    0.111690
   136  H    0.100537
   137  H    0.041652
 Sum of Mulliken charges =   0.00000

 Dipole moment (field-independent basis, Debye):
    X=              2.0800    Y=              3.9778    Z=             -0.1023  Tot=              4.4900
 Quadrupole moment (field-independent basis, Debye-Ang):
   XX=           -366.6813   YY=           -396.8573   ZZ=           -400.6110
   XY=            -24.7066   XZ=              8.9548   YZ=             -4.3369

 Normal termination of Gaussian 09 at Wed Jul  3 09:21:45 2019.
