 Gaussian 09, Revision D.01,
 Gaussian 09:  ES64L-G09RevD.01 24-Apr-2013

 -------------------------------------
 # td=(NStates=1) CAM-B3LYP/6-31G(d,p)
 -------------------------------------

 --
 TD
 --
 Symbolic Z-matrix:
 Charge =  0 Multiplicity = 1

                         Standard orientation:
 ---------------------------------------------------------------------
 Center     Atomic      Atomic             Coordinates (Angstroms)
 Number     Number       Type             X           Y           Z
 ---------------------------------------------------------------------
      1         12           0       -7.099644    0.626161    0.086992
      2          6           0       -4.899743   -1.966944    0.570141
      3          6           0       -4.733809    2.898747    1.037530
      4          6           0       -9.315615    3.085099   -0.459313
      5          6           0       -9.559833   -1.765525   -0.985135
      6          7           0       -5.082227    0.504867    0.633701
      7          6           0       -4.287723   -0.698735    0.842928
      8          6           0       -2.902798   -0.296194    1.254871
      9          6           0       -3.038459    1.122794    1.610630
     10          6           0       -4.434639    1.567452    1.085932
     11          6           0       -3.064984    1.141746    3.180808
     12          6           0       -1.946095   -0.585544    0.030847
     13          6           0       -0.564508   -0.490405    0.494813
     14          6           0        0.529993   -0.754650   -0.669635
     15          8           0        0.145250   -1.094704   -1.762485
     16          8           0        1.724833   -0.580354   -0.278813
     17          7           0       -6.998521    2.588073    0.382161
     18          6           0       -6.052730    3.403705    0.721559
     19          6           0       -6.494014    4.784697    0.815572
     20          6           0       -7.753383    4.764105    0.421997
     21          6           0       -8.120336    3.509569    0.101848
     22          6           0       -5.592329    5.954640    1.144119
     23          6           0       -8.479059    5.967527    0.135017
     24          6           0       -8.410909    7.181663    0.735290
     25          7           0       -9.115138    0.621790   -0.511039
     26          6           0       -9.753266    1.794870   -0.706983
     27          6           0      -11.110654    1.519489   -1.124647
     28          6           0      -11.177557    0.192150   -1.226242
     29          6           0       -9.930692   -0.385048   -0.964218
     30          6           0      -12.269109    2.419987   -1.250539
     31          6           0      -12.383998   -0.720640   -1.582181
     32          6           0      -12.456702   -1.270282   -3.073119
     33          7           0       -7.185284   -1.394356   -0.188928
     34          6           0       -8.229849   -2.231739   -0.593593
     35          6           0       -7.831460   -3.595140   -0.453380
     36          6           0       -6.482385   -3.537882    0.013765
     37          6           0       -6.214364   -2.194838    0.024784
     38          6           0       -8.594145   -4.809075   -0.727808
     39          6           0       -5.321552   -4.329859    0.292871
     40          8           0       -5.270650   -5.537068    0.224180
     41          6           0       -4.144598   -3.313210    0.586137
     42          6           0       -3.458893   -3.621784    1.975667
     43          8           0       -3.694963   -3.100452    3.028010
     44          8           0       -2.697255   -4.648299    1.787170
     45          6           0       -2.113506   -5.049753    3.049110
     46          6           0        2.788656   -0.787278   -1.287890
     47          6           0        4.101972   -0.581310   -0.662889
     48          6           0        5.079178    0.307954   -1.047718
     49          6           0        4.975458    1.161855   -2.279866
     50          6           0        6.393204    0.310523   -0.295029
     51          6           0        7.690503   -0.106631   -1.081846
     52          6           0        8.860914   -0.252286   -0.183130
     53          6           0       10.165958   -0.556036   -0.904470
     54          6           0       10.084892   -1.934337   -1.437191
     55          6           0       11.430619   -0.110120   -0.023331
     56          6           0       12.833393   -0.352630   -0.708364
     57          6           0       13.953326   -0.042575    0.142332
     58          6           0       15.327514   -0.107808   -0.576086
     59          6           0       15.692471   -1.557997   -1.001661
     60          6           0       16.421136    0.459087    0.440992
     61          6           0       17.813863    0.522874   -0.076797
     62          6           0       18.835596    1.229779    0.852008
     63          6           0       20.258540    1.337086    0.354185
     64          6           0       20.352677    2.204843   -0.882865
     65          6           0       21.264989    1.735035    1.388742
     66          1           0       -4.013765    3.805215    1.299832
     67          1           0      -10.066812    3.956021   -0.696477
     68          1           0      -10.110891   -2.553426   -1.449592
     69          1           0       -2.541047   -1.163010    2.015162
     70          1           0       -2.171958    1.531739    1.207193
     71          1           0       -2.316477    0.812119    3.869976
     72          1           0       -3.363765    2.213532    3.528354
     73          1           0       -3.913356    0.577066    3.414962
     74          1           0       -2.018426   -1.585330   -0.394953
     75          1           0       -1.874559    0.106616   -0.865068
     76          1           0       -0.361641    0.465906    0.847160
     77          1           0       -0.326082   -1.159116    1.361356
     78          1           0       -6.211019    6.763091    0.648412
     79          1           0       -5.422895    6.092928    2.285027
     80          1           0       -4.658361    5.559178    0.614309
     81          1           0       -9.290796    5.916792   -0.705829
     82          1           0       -9.090770    7.909488    0.459311
     83          1           0       -7.849865    7.234211    1.683367
     84          1           0      -11.883405    2.850858   -2.031864
     85          1           0      -13.163978    1.841131   -1.589648
     86          1           0      -12.327804    2.943307   -0.371266
     87          1           0      -12.207537   -1.578948   -0.928218
     88          1           0      -13.307943   -0.146195   -1.340733
     89          1           0      -13.214900   -1.876237   -3.410916
     90          1           0      -12.751698   -0.441811   -3.709487
     91          1           0      -11.692987   -1.712343   -3.401390
     92          1           0       -9.101334   -4.682268   -1.657893
     93          1           0       -7.862389   -5.602663   -0.795950
     94          1           0       -9.411153   -4.909937   -0.084632
     95          1           0       -3.444118   -3.452822   -0.164031
     96          1           0       -1.327171   -4.380482    3.263143
     97          1           0       -2.762364   -5.277839    3.885483
     98          1           0       -1.637098   -6.153054    2.940266
     99          1           0        2.721621   -1.650219   -1.758620
    100          1           0        2.518618   -0.158186   -2.040037
    101          1           0        4.542857   -1.005586    0.207686
    102          1           0        4.035901    1.314391   -2.912671
    103          1           0        5.373703    2.300660   -1.890922
    104          1           0        5.829348    1.063705   -2.917788
    105          1           0        6.678759    1.437557   -0.200735
    106          1           0        6.161659   -0.155205    0.709381
    107          1           0        7.500118   -1.086563   -1.732136
    108          1           0        7.871261    0.549645   -1.972628
    109          1           0        8.922781    0.713026    0.288476
    110          1           0        8.875118   -0.939747    0.696723
    111          1           0        9.974648    0.165523   -1.693150
    112          1           0        9.105812   -2.233978   -2.150768
    113          1           0       10.789189   -2.237569   -2.105576
    114          1           0       10.142644   -2.745689   -0.550412
    115          1           0       11.268723    0.855299    0.331580
    116          1           0       11.408656   -0.758735    0.808985
    117          1           0       12.841142   -1.375217   -0.838592
    118          1           0       12.707423    0.129885   -1.670811
    119          1           0       13.965924    1.010570    0.572504
    120          1           0       13.906872   -0.837458    1.081799
    121          1           0       15.261763    0.569433   -1.463539
    122          1           0       15.462842   -2.362580   -0.249856
    123          1           0       14.899311   -1.749606   -1.817401
    124          1           0       16.640268   -1.745185   -1.422447
    125          1           0       16.043172    1.443127    0.825644
    126          1           0       16.531476   -0.346474    1.259375
    127          1           0       18.260609   -0.458990   -0.337857
    128          1           0       17.732973    1.080573   -0.952908
    129          1           0       18.371019    2.431381    1.263126
    130          1           0       18.719168    0.744410    1.859373
    131          1           0       20.611757    0.252477    0.191202
    132          1           0       20.206746    3.133054   -0.675212
    133          1           0       21.391828    2.135090   -1.256420
    134          1           0       19.652244    1.794871   -1.633186
    135          1           0       21.241374    0.899799    2.244057
    136          1           0       22.281481    1.702890    0.800077
    137          1           0       21.066844    2.720245    1.907235
 ---------------------------------------------------------------------

 SCF Done:  E(RCAM-B3LYP) =  -2932.67995826     A.U. after   17 cycles

 Excitation energies and oscillator strengths:

 Excited State   1:      Singlet-A      2.0610 eV  601.57 nm  f=0.2750  <S**2>=0.000
     240 -> 243       -0.23239
     241 -> 242        0.65867
 This state for optimization and/or second-order correction.
 Total Energy, E(TD-HF/TD-KS) =  -2932.60421698
 Copying the excited state density for this state as the 1-particle RhoCI density.

 The electronic state is 1-A.
 Alpha  occ. eigenvalues --  -46.83806 -19.27528 -19.27187 -19.20530 -19.19672
 Alpha  occ. eigenvalues --  -19.19377 -14.40825 -14.39409 -14.39096 -14.38551
 Alpha  occ. eigenvalues --  -10.38812 -10.38372 -10.33977 -10.31834 -10.31276
 Alpha  occ. eigenvalues --  -10.30672 -10.30486 -10.29369 -10.29060 -10.28770
 Alpha  occ. eigenvalues --  -10.28717 -10.28697 -10.28591 -10.28302 -10.28231
 Alpha  occ. eigenvalues --  -10.28101 -10.28047 -10.28015 -10.27608 -10.27544
 Alpha  occ. eigenvalues --  -10.27520 -10.27476 -10.27406 -10.27367 -10.27059
 Alpha  occ. eigenvalues --  -10.26811 -10.26718 -10.26619 -10.26482 -10.26417
 Alpha  occ. eigenvalues --  -10.26398 -10.26171 -10.26165 -10.26150 -10.26090
 Alpha  occ. eigenvalues --  -10.26039 -10.26000 -10.25760 -10.25732 -10.25709
 Alpha  occ. eigenvalues --  -10.25455 -10.25371 -10.25089 -10.25057 -10.24957
 Alpha  occ. eigenvalues --  -10.24802 -10.24630 -10.24412 -10.24401 -10.24223
 Alpha  occ. eigenvalues --  -10.24220 -10.23932 -10.23398 -10.23180 -10.22884
 Alpha  occ. eigenvalues --   -3.12886  -1.87597  -1.87146  -1.87049  -1.20808
 Alpha  occ. eigenvalues --   -1.20297  -1.10513  -1.10019  -1.09221  -1.05177
 Alpha  occ. eigenvalues --   -1.04797  -1.03568  -1.02347  -0.92052  -0.91691
 Alpha  occ. eigenvalues --   -0.91133  -0.90952  -0.90227  -0.89978  -0.89076
 Alpha  occ. eigenvalues --   -0.88804  -0.88685  -0.87645  -0.86440  -0.86191
 Alpha  occ. eigenvalues --   -0.85450  -0.84612  -0.83815  -0.83515  -0.83152
 Alpha  occ. eigenvalues --   -0.82200  -0.81603  -0.80676  -0.80469  -0.78696
 Alpha  occ. eigenvalues --   -0.78269  -0.77182  -0.76701  -0.76173  -0.75807
 Alpha  occ. eigenvalues --   -0.75607  -0.74883  -0.74474  -0.73801  -0.72466
 Alpha  occ. eigenvalues --   -0.71438  -0.70715  -0.70031  -0.69319  -0.68408
 Alpha  occ. eigenvalues --   -0.67373  -0.66931  -0.65746  -0.64730  -0.64410
 Alpha  occ. eigenvalues --   -0.64396  -0.63864  -0.63615  -0.62420  -0.62005
 Alpha  occ. eigenvalues --   -0.61333  -0.60693  -0.60535  -0.59824  -0.59212
 Alpha  occ. eigenvalues --   -0.58669  -0.58108  -0.57856  -0.57508  -0.57236
 Alpha  occ. eigenvalues --   -0.56502  -0.56126  -0.55892  -0.55434  -0.54654
 Alpha  occ. eigenvalues --   -0.54453  -0.54401  -0.53934  -0.53919  -0.53565
 Alpha  occ. eigenvalues --   -0.53504  -0.52642  -0.52581  -0.52401  -0.52166
 Alpha  occ. eigenvalues --   -0.51914  -0.51828  -0.51373  -0.51227  -0.50930
 Alpha  occ. eigenvalues --   -0.50558  -0.50466  -0.50292  -0.50086  -0.49863
 Alpha  occ. eigenvalues --   -0.49356  -0.48897  -0.48747  -0.48496  -0.48379
 Alpha  occ. eigenvalues --   -0.48180  -0.47825  -0.47681  -0.47439  -0.47132
 Alpha  occ. eigenvalues --   -0.47077  -0.46984  -0.46915  -0.46523  -0.46340
 Alpha  occ. eigenvalues --   -0.45959  -0.45821  -0.45627  -0.45569  -0.45208
 Alpha  occ. eigenvalues --   -0.45091  -0.44932  -0.44812  -0.44431  -0.44353
 Alpha  occ. eigenvalues --   -0.43908  -0.43710  -0.43626  -0.43418  -0.42893
 Alpha  occ. eigenvalues --   -0.42761  -0.42616  -0.42503  -0.42370  -0.42301
 Alpha  occ. eigenvalues --   -0.41975  -0.41767  -0.41634  -0.41257  -0.41228
 Alpha  occ. eigenvalues --   -0.41028  -0.40935  -0.40847  -0.40612  -0.40483
 Alpha  occ. eigenvalues --   -0.40154  -0.40130  -0.39926  -0.39749  -0.39494
 Alpha  occ. eigenvalues --   -0.39256  -0.38777  -0.38329  -0.38130  -0.38060
 Alpha  occ. eigenvalues --   -0.37845  -0.37758  -0.37311  -0.37097  -0.36898
 Alpha  occ. eigenvalues --   -0.36555  -0.36385  -0.36371  -0.35764  -0.35632
 Alpha  occ. eigenvalues --   -0.35400  -0.35273  -0.34727  -0.33891  -0.33664
 Alpha  occ. eigenvalues --   -0.33447  -0.32450  -0.31769  -0.30271  -0.29502
 Alpha  occ. eigenvalues --   -0.29385  -0.28877  -0.28355  -0.27810  -0.22638
 Alpha  occ. eigenvalues --   -0.21331
 Alpha virt. eigenvalues --   -0.06614  -0.02208   0.02350   0.04273   0.04895
 Alpha virt. eigenvalues --    0.06303   0.06782   0.07063   0.08075   0.08273
 Alpha virt. eigenvalues --    0.09120   0.11545   0.11569   0.11673   0.11744

 Mulliken charges:
               1
     1  Mg   0.809254
     2  C    0.011862
     3  C   -0.213247
     4  C   -0.194428
     5  C   -0.159777
     6  N   -0.638896
     7  C    0.285172
     8  C   -0.150166
     9  C   -0.143265
    10  C    0.369396
    11  C   -0.314834
    12  C   -0.174842
    13  C   -0.270882
    14  C    0.581133
    15  O   -0.491795
    16  O   -0.435338
    17  N   -0.706950
    18  C    0.334586
    19  C   -0.005190
    20  C    0.082019
    21  C    0.251886
    22  C   -0.354182
    23  C   -0.097163
    24  C   -0.259536
    25  N   -0.693077
    26  C    0.324402
    27  C   -0.039192
    28  C    0.022547
    29  C    0.280717
    30  C   -0.333551
    31  C   -0.233777
    32  C   -0.315088
    33  N   -0.690316
    34  C    0.235056
    35  C   -0.010754
    36  C    0.024492
    37  C    0.315781
    38  C   -0.378260
    39  C    0.356623
    40  O   -0.466257
    41  C   -0.308937
    42  C    0.610159
    43  O   -0.474634
    44  O   -0.407752
    45  C   -0.100256
    46  C    0.019456
    47  C   -0.136459
    48  C    0.141240
    49  C   -0.373439
    50  C   -0.234648
    51  C   -0.182293
    52  C   -0.157672
    53  C   -0.070249
    54  C   -0.294223
    55  C   -0.190121
    56  C   -0.175676
    57  C   -0.151648
    58  C   -0.063057
    59  C   -0.319890
    60  C   -0.168231
    61  C   -0.174617
    62  C   -0.141244
    63  C   -0.052406
    64  C   -0.293345
    65  C   -0.289845
    66  H    0.079902
    67  H    0.092699
    68  H    0.103860
    69  H    0.118460
    70  H    0.101230
    71  H    0.118138
    72  H    0.082222
    73  H    0.134271
    74  H    0.121226
    75  H    0.114493
    76  H    0.124718
    77  H    0.107311
    78  H    0.124502
    79  H    0.122057
    80  H    0.115513
    81  H    0.088795
    82  H    0.108390
    83  H    0.117263
    84  H    0.140612
    85  H    0.104764
    86  H    0.130491
    87  H    0.106525
    88  H    0.092912
    89  H    0.107488
    90  H    0.098666
    91  H    0.115628
    92  H    0.116559
    93  H    0.152905
    94  H    0.136143
    95  H    0.161587
    96  H    0.134338
    97  H    0.151953
    98  H    0.102215
    99  H    0.148933
   100  H    0.130495
   101  H    0.080248
   102  H    0.124417
   103  H    0.072253
   104  H    0.133155
   105  H    0.094165
   106  H    0.108206
   107  H    0.080132
   108  H    0.099578
   109  H    0.088982
   110  H    0.090159
   111  H    0.079391
   112  H    0.077982
   113  H    0.115915
   114  H    0.077309
   115  H    0.098863
   116  H    0.092247
   117  H    0.113110
   118  H    0.094378
   119  H    0.080073
   120  H    0.066297
   121  H    0.085354
   122  H    0.100275
   123  H    0.089812
   124  H    0.113446
   125  H    0.087221
   126  H    0.077779
   127  H    0.093063
   128  H    0.099069
   129  H    0.014227
   130  H    0.084962
   131  H    0.078353
   132  H    0.119284
   133  H    0.089650
   134  H    0.101724
   135  H    0.081880
   136  H    0.087666
   137  H    0.097730
 Sum of Mulliken charges =   0.00000

 Dipole moment (field-independent basis, Debye):
    X=              2.8966    Y=              4.2469    Z=             -0.6298  Tot=              5.1791
 Quadrupole moment (field-independent basis, Debye-Ang):
   XX=           -335.0569   YY=           -394.9483   ZZ=           -394.2318
   XY=            -31.2621   XZ=              3.8175   YZ=             -3.7296

 Normal termination of Gaussian 09 at Wed Jul  3 03:27:19 2019.
