 Gaussian 09, Revision D.01,
 Gaussian 09:  ES64L-G09RevD.01 24-Apr-2013

 -------------------------------------
 # td=(NStates=1) CAM-B3LYP/6-31G(d,p)
 -------------------------------------

 --
 TD
 --
 Symbolic Z-matrix:
 Charge =  0 Multiplicity = 1

                         Standard orientation:
 ---------------------------------------------------------------------
 Center     Atomic      Atomic             Coordinates (Angstroms)
 Number     Number       Type             X           Y           Z
 ---------------------------------------------------------------------
      1         12           0       -7.078042    0.653204    0.057913
      2          6           0       -4.927371   -1.964086    0.562159
      3          6           0       -4.779917    2.859674    1.197404
      4          6           0       -9.326446    3.134875   -0.395063
      5          6           0       -9.559885   -1.643200   -0.950193
      6          7           0       -5.088906    0.446778    0.683427
      7          6           0       -4.430031   -0.687962    0.853433
      8          6           0       -2.921348   -0.426506    1.154016
      9          6           0       -3.038895    1.032873    1.732397
     10          6           0       -4.409701    1.564418    1.161681
     11          6           0       -2.955369    1.016950    3.263443
     12          6           0       -1.918834   -0.781872   -0.004681
     13          6           0       -0.479139   -0.718254    0.463354
     14          6           0        0.551246   -0.768637   -0.614185
     15          8           0        0.257170   -1.102705   -1.733801
     16          8           0        1.797456   -0.439068   -0.241178
     17          7           0       -7.036889    2.715608    0.257225
     18          6           0       -6.014275    3.392252    0.767197
     19          6           0       -6.361033    4.743063    0.722127
     20          6           0       -7.652881    4.964253    0.332224
     21          6           0       -8.141594    3.567219    0.107007
     22          6           0       -5.318395    5.804514    1.119266
     23          6           0       -8.602941    6.119631    0.211793
     24          6           0       -8.463645    7.195854    0.902802
     25          7           0       -9.133969    0.730723   -0.522721
     26          6           0       -9.874080    1.862180   -0.686981
     27          6           0      -11.174952    1.551970   -1.158032
     28          6           0      -11.203583    0.176773   -1.258814
     29          6           0       -9.872031   -0.376306   -0.891149
     30          6           0      -12.239420    2.577459   -1.307980
     31          6           0      -12.361432   -0.606374   -1.733978
     32          6           0      -12.335113   -0.937255   -3.232546
     33          7           0       -7.308495   -1.332778   -0.044766
     34          6           0       -8.314115   -2.177403   -0.543796
     35          6           0       -7.847418   -3.602736   -0.487931
     36          6           0       -6.584158   -3.632576   -0.112713
     37          6           0       -6.290206   -2.197776    0.183807
     38          6           0       -8.803377   -4.761244   -0.749315
     39          6           0       -5.336767   -4.430793    0.281403
     40          8           0       -5.328875   -5.612063    0.251938
     41          6           0       -4.254492   -3.327988    0.523213
     42          6           0       -3.634456   -3.784387    1.885096
     43          8           0       -3.756265   -3.262990    2.999165
     44          8           0       -2.891989   -4.874489    1.652194
     45          6           0       -2.171303   -5.287894    2.882953
     46          6           0        2.798432   -0.635767   -1.278365
     47          6           0        4.122963   -0.527024   -0.603611
     48          6           0        5.179040    0.187973   -1.112546
     49          6           0        5.092074    0.931597   -2.335294
     50          6           0        6.547601    0.406976   -0.308715
     51          6           0        7.728914   -0.173379   -1.024546
     52          6           0        8.994133   -0.159482   -0.098820
     53          6           0       10.232412   -0.597215   -0.829506
     54          6           0       10.155705   -2.114012   -1.121817
     55          6           0       11.443368   -0.265739   -0.026804
     56          6           0       12.755144   -0.369961   -0.810577
     57          6           0       13.871251   -0.088035    0.032247
     58          6           0       15.308404   -0.149965   -0.617142
     59          6           0       15.586384   -1.557306   -0.970890
     60          6           0       16.384776    0.448583    0.329555
     61          6           0       17.839445    0.644016   -0.217649
     62          6           0       18.804056    1.292160    0.745629
     63          6           0       20.282418    1.416718    0.374839
     64          6           0       20.481152    2.214035   -0.837660
     65          6           0       21.131444    1.933635    1.606240
     66          1           0       -3.936944    3.537246    1.521198
     67          1           0      -10.216715    3.965016   -0.296892
     68          1           0      -10.314560   -2.464027   -1.389293
     69          1           0       -2.746791   -1.002597    1.934198
     70          1           0       -2.198846    1.742892    1.440974
     71          1           0       -2.029354    0.757154    3.575332
     72          1           0       -3.161229    2.142984    3.646619
     73          1           0       -3.869283    0.330826    3.878842
     74          1           0       -2.133411   -1.718244   -0.406601
     75          1           0       -2.142131    0.219794   -0.570301
     76          1           0       -0.344090    0.220940    1.067980
     77          1           0       -0.258847   -1.334300    1.316966
     78          1           0       -5.524532    6.772798    0.482504
     79          1           0       -5.352152    6.142642    2.229177
     80          1           0       -4.382838    5.616230    0.687116
     81          1           0       -9.421946    5.969151   -0.641055
     82          1           0       -9.215868    8.049996    0.658938
     83          1           0       -7.859300    7.521164    1.816848
     84          1           0      -11.966591    3.297719   -1.992922
     85          1           0      -13.107303    2.025617   -1.427889
     86          1           0      -12.424384    3.300240   -0.423177
     87          1           0      -12.464185   -1.487267   -1.082991
     88          1           0      -13.400972    0.105308   -1.797246
     89          1           0      -13.073984   -1.764306   -3.421636
     90          1           0      -12.583769   -0.060673   -3.713278
     91          1           0      -11.274876   -1.244011   -3.414992
     92          1           0       -9.039838   -4.951976   -1.779938
     93          1           0       -8.364486   -5.635239   -0.452430
     94          1           0       -9.778776   -4.531019   -0.260786
     95          1           0       -3.525261   -3.673804   -0.301995
     96          1           0       -1.546540   -4.509641    3.175876
     97          1           0       -2.899387   -5.382614    3.589063
     98          1           0       -1.276514   -6.046312    2.456919
     99          1           0        2.805675   -1.661625   -1.628195
    100          1           0        2.392518   -0.022221   -2.177927
    101          1           0        4.031356   -0.699703    0.427610
    102          1           0        4.098240    1.013005   -2.808173
    103          1           0        5.439230    2.057883   -2.218681
    104          1           0        5.679225    0.368817   -3.025291
    105          1           0        6.658538    1.359399    0.043023
    106          1           0        6.427135   -0.232848    0.685899
    107          1           0        7.803146   -1.124906   -1.318247
    108          1           0        7.858545    0.381330   -1.898725
    109          1           0        9.072372    1.043614    0.118930
    110          1           0        9.044818   -0.900166    0.764882
    111          1           0       10.159395   -0.191995   -1.748196
    112          1           0        9.385532   -2.311244   -1.872548
    113          1           0       11.283900   -2.230379   -1.837153
    114          1           0       10.426182   -2.729638   -0.221470
    115          1           0       11.367774    0.838402    0.330136
    116          1           0       11.434401   -0.801621    0.926496
    117          1           0       12.927660   -1.344323   -1.315403
    118          1           0       12.695480    0.367894   -1.624846
    119          1           0       13.648251    0.874537    0.372154
    120          1           0       14.058910   -0.710717    0.944971
    121          1           0       15.328008    0.418091   -1.642001
    122          1           0       15.746034   -2.125210    0.037102
    123          1           0       14.922376   -2.005879   -1.622448
    124          1           0       16.694126   -1.692143   -1.593475
    125          1           0       16.025256    1.445294    0.589224
    126          1           0       16.485539   -0.286456    0.955088
    127          1           0       18.366299   -0.359436   -0.696420
    128          1           0       17.789026    1.236001   -1.160171
    129          1           0       18.431085    2.317352    1.133908
    130          1           0       18.745780    0.458016    1.557467
    131          1           0       20.783124    0.428314    0.195471
    132          1           0       20.009802    3.320143   -0.690456
    133          1           0       21.599829    2.340563   -1.037661
    134          1           0       20.100964    2.032327   -1.769427
    135          1           0       21.179819    0.993314    2.304070
    136          1           0       22.243666    2.186461    1.341797
    137          1           0       20.830469    2.876693    1.895989
 ---------------------------------------------------------------------

 SCF Done:  E(RCAM-B3LYP) =  -2932.64058430     A.U. after   18 cycles

 Excitation energies and oscillator strengths:

 Excited State   1:      Singlet-A      2.0665 eV  599.96 nm  f=0.3077  <S**2>=0.000
     240 -> 243        0.22748
     241 -> 242        0.66067
 This state for optimization and/or second-order correction.
 Total Energy, E(TD-HF/TD-KS) =  -2932.56464017
 Copying the excited state density for this state as the 1-particle RhoCI density.

 The electronic state is 1-A.
 Alpha  occ. eigenvalues --  -46.84346 -19.26790 -19.26362 -19.21946 -19.21310
 Alpha  occ. eigenvalues --  -19.20424 -14.41486 -14.39920 -14.39231 -14.38765
 Alpha  occ. eigenvalues --  -10.39844 -10.38873 -10.36568 -10.31937 -10.31870
 Alpha  occ. eigenvalues --  -10.31079 -10.30871 -10.30461 -10.29540 -10.29257
 Alpha  occ. eigenvalues --  -10.29219 -10.28988 -10.28475 -10.28401 -10.28245
 Alpha  occ. eigenvalues --  -10.28092 -10.28024 -10.27841 -10.27628 -10.27615
 Alpha  occ. eigenvalues --  -10.27528 -10.27479 -10.27328 -10.27326 -10.27190
 Alpha  occ. eigenvalues --  -10.27096 -10.27030 -10.26833 -10.26536 -10.26444
 Alpha  occ. eigenvalues --  -10.26380 -10.26292 -10.26265 -10.26214 -10.26178
 Alpha  occ. eigenvalues --  -10.26137 -10.26128 -10.26057 -10.25927 -10.25712
 Alpha  occ. eigenvalues --  -10.25549 -10.25500 -10.25494 -10.25486 -10.25237
 Alpha  occ. eigenvalues --  -10.25172 -10.25009 -10.24830 -10.24734 -10.24598
 Alpha  occ. eigenvalues --  -10.24537 -10.24436 -10.24223 -10.24209 -10.24127
 Alpha  occ. eigenvalues --   -3.13322  -1.88042  -1.87532  -1.87516  -1.18557
 Alpha  occ. eigenvalues --   -1.18195  -1.14238  -1.09369  -1.08302  -1.04379
 Alpha  occ. eigenvalues --   -1.03532  -1.02977  -1.01831  -0.92328  -0.92082
 Alpha  occ. eigenvalues --   -0.90990  -0.90164  -0.89755  -0.89243  -0.88908
 Alpha  occ. eigenvalues --   -0.88563  -0.88065  -0.87876  -0.87192  -0.86442
 Alpha  occ. eigenvalues --   -0.85718  -0.84727  -0.83902  -0.83578  -0.82902
 Alpha  occ. eigenvalues --   -0.81922  -0.81523  -0.80948  -0.80243  -0.78158
 Alpha  occ. eigenvalues --   -0.77602  -0.77051  -0.76370  -0.75527  -0.75367
 Alpha  occ. eigenvalues --   -0.75067  -0.74958  -0.74697  -0.73109  -0.72212
 Alpha  occ. eigenvalues --   -0.71455  -0.70418  -0.69104  -0.68664  -0.67849
 Alpha  occ. eigenvalues --   -0.67071  -0.66685  -0.65168  -0.65094  -0.64994
 Alpha  occ. eigenvalues --   -0.63757  -0.63718  -0.63542  -0.62108  -0.61921
 Alpha  occ. eigenvalues --   -0.61689  -0.60863  -0.59673  -0.59439  -0.58968
 Alpha  occ. eigenvalues --   -0.58085  -0.58000  -0.57698  -0.57056  -0.57013
 Alpha  occ. eigenvalues --   -0.56505  -0.56408  -0.56106  -0.55137  -0.55123
 Alpha  occ. eigenvalues --   -0.54758  -0.54541  -0.54435  -0.53854  -0.53698
 Alpha  occ. eigenvalues --   -0.53504  -0.53398  -0.52314  -0.51973  -0.51865
 Alpha  occ. eigenvalues --   -0.51727  -0.51439  -0.51314  -0.50946  -0.50764
 Alpha  occ. eigenvalues --   -0.50729  -0.50439  -0.50398  -0.50112  -0.49903
 Alpha  occ. eigenvalues --   -0.49859  -0.49427  -0.49232  -0.48945  -0.48786
 Alpha  occ. eigenvalues --   -0.48260  -0.48171  -0.47926  -0.47514  -0.47425
 Alpha  occ. eigenvalues --   -0.47252  -0.46805  -0.46589  -0.46465  -0.46341
 Alpha  occ. eigenvalues --   -0.46265  -0.45789  -0.45638  -0.45477  -0.45200
 Alpha  occ. eigenvalues --   -0.44852  -0.44655  -0.44515  -0.44230  -0.44049
 Alpha  occ. eigenvalues --   -0.43871  -0.43645  -0.43614  -0.43393  -0.43007
 Alpha  occ. eigenvalues --   -0.42915  -0.42759  -0.42499  -0.42222  -0.42093
 Alpha  occ. eigenvalues --   -0.41929  -0.41706  -0.41180  -0.40997  -0.40851
 Alpha  occ. eigenvalues --   -0.40762  -0.40598  -0.40501  -0.40250  -0.39894
 Alpha  occ. eigenvalues --   -0.39831  -0.39465  -0.39192  -0.38800  -0.38708
 Alpha  occ. eigenvalues --   -0.38593  -0.38366  -0.38123  -0.37799  -0.37628
 Alpha  occ. eigenvalues --   -0.37457  -0.37405  -0.37312  -0.36909  -0.36580
 Alpha  occ. eigenvalues --   -0.36562  -0.36336  -0.35734  -0.35696  -0.35396
 Alpha  occ. eigenvalues --   -0.35216  -0.34852  -0.34715  -0.34065  -0.33478
 Alpha  occ. eigenvalues --   -0.33269  -0.32646  -0.32439  -0.31283  -0.30752
 Alpha  occ. eigenvalues --   -0.30324  -0.28851  -0.28198  -0.27327  -0.23890
 Alpha  occ. eigenvalues --   -0.20558
 Alpha virt. eigenvalues --   -0.05928  -0.02692   0.02015   0.04497   0.05735
 Alpha virt. eigenvalues --    0.05889   0.06216   0.06778   0.07210   0.07644
 Alpha virt. eigenvalues --    0.08135   0.10481   0.10539   0.11204   0.11504

 Mulliken charges:
               1
     1  Mg   0.811042
     2  C    0.071263
     3  C   -0.207160
     4  C   -0.186073
     5  C   -0.200229
     6  N   -0.662318
     7  C    0.299601
     8  C   -0.142465
     9  C   -0.173397
    10  C    0.357726
    11  C   -0.285326
    12  C   -0.135899
    13  C   -0.295161
    14  C    0.626284
    15  O   -0.473722
    16  O   -0.487085
    17  N   -0.709926
    18  C    0.397510
    19  C   -0.062648
    20  C    0.069058
    21  C    0.255361
    22  C   -0.373500
    23  C   -0.072536
    24  C   -0.231242
    25  N   -0.704126
    26  C    0.290519
    27  C    0.037799
    28  C   -0.003449
    29  C    0.360733
    30  C   -0.358541
    31  C   -0.258789
    32  C   -0.289533
    33  N   -0.705026
    34  C    0.252193
    35  C   -0.044445
    36  C    0.035836
    37  C    0.258012
    38  C   -0.370700
    39  C    0.402619
    40  O   -0.412445
    41  C   -0.343435
    42  C    0.620269
    43  O   -0.499603
    44  O   -0.450886
    45  C   -0.084322
    46  C    0.018405
    47  C   -0.168188
    48  C    0.108129
    49  C   -0.356720
    50  C   -0.218060
    51  C   -0.173399
    52  C   -0.159606
    53  C   -0.061480
    54  C   -0.303125
    55  C   -0.167444
    56  C   -0.174444
    57  C   -0.149210
    58  C   -0.089943
    59  C   -0.282873
    60  C   -0.136967
    61  C   -0.195510
    62  C   -0.138528
    63  C   -0.058660
    64  C   -0.291754
    65  C   -0.301326
    66  H    0.095711
    67  H    0.074618
    68  H    0.104086
    69  H    0.120504
    70  H    0.092624
    71  H    0.124183
    72  H    0.085631
    73  H    0.096187
    74  H    0.127177
    75  H    0.110726
    76  H    0.122808
    77  H    0.137297
    78  H    0.099595
    79  H    0.115507
    80  H    0.123962
    81  H    0.106625
    82  H    0.084427
    83  H    0.119050
    84  H    0.130130
    85  H    0.111736
    86  H    0.104636
    87  H    0.103678
    88  H    0.066925
    89  H    0.100112
    90  H    0.120595
    91  H    0.101833
    92  H    0.126515
    93  H    0.143809
    94  H    0.118586
    95  H    0.175198
    96  H    0.136229
    97  H    0.158550
    98  H    0.116079
    99  H    0.134143
   100  H    0.127615
   101  H    0.110782
   102  H    0.108805
   103  H    0.103770
   104  H    0.128513
   105  H    0.117396
   106  H    0.081063
   107  H    0.103522
   108  H    0.101012
   109  H    0.058678
   110  H    0.085557
   111  H    0.089701
   112  H    0.119352
   113  H    0.043418
   114  H    0.113472
   115  H    0.078624
   116  H    0.091197
   117  H    0.089315
   118  H    0.097931
   119  H    0.089613
   120  H    0.079487
   121  H    0.060638
   122  H    0.082086
   123  H    0.117745
   124  H    0.061254
   125  H    0.098418
   126  H    0.098981
   127  H    0.065687
   128  H    0.083049
   129  H    0.080609
   130  H    0.075897
   131  H    0.084320
   132  H    0.059922
   133  H    0.087077
   134  H    0.118844
   135  H    0.098827
   136  H    0.081975
   137  H    0.115241
 Sum of Mulliken charges =   0.00000

 Dipole moment (field-independent basis, Debye):
    X=              2.7416    Y=              3.5881    Z=              0.2076  Tot=              4.5204
 Quadrupole moment (field-independent basis, Debye-Ang):
   XX=           -375.7027   YY=           -390.1527   ZZ=           -399.5030
   XY=            -20.2205   XZ=              7.4055   YZ=             -0.7395

 Normal termination of Gaussian 09 at Sat Jul  6 20:23:53 2019.
