 Gaussian 09, Revision D.01,
 Gaussian 09:  ES64L-G09RevD.01 24-Apr-2013

 -------------------------------------
 # td=(NStates=1) CAM-B3LYP/6-31G(d,p)
 -------------------------------------

 --
 TD
 --
 Symbolic Z-matrix:
 Charge =  0 Multiplicity = 1

                         Standard orientation:
 ---------------------------------------------------------------------
 Center     Atomic      Atomic             Coordinates (Angstroms)
 Number     Number       Type             X           Y           Z
 ---------------------------------------------------------------------
      1         12           0       -7.116983    0.575097    0.053052
      2          6           0       -4.834393   -1.906110    0.451796
      3          6           0       -4.869602    2.853061    1.122135
      4          6           0       -9.500125    3.001224   -0.220107
      5          6           0       -9.473662   -1.812494   -0.927305
      6          7           0       -5.086328    0.452898    0.628554
      7          6           0       -4.343041   -0.660985    0.837014
      8          6           0       -2.917438   -0.288765    1.128114
      9          6           0       -3.018847    1.163402    1.617782
     10          6           0       -4.454722    1.509962    0.999422
     11          6           0       -2.920705    1.295822    3.100213
     12          6           0       -1.966854   -0.571287    0.063462
     13          6           0       -0.472087   -0.343951    0.430327
     14          6           0        0.474427   -0.649869   -0.617918
     15          8           0        0.228417   -1.165174   -1.753648
     16          8           0        1.763082   -0.286942   -0.226932
     17          7           0       -7.187721    2.563645    0.380319
     18          6           0       -6.133641    3.388592    0.749788
     19          6           0       -6.558989    4.782454    0.705239
     20          6           0       -7.875155    4.846270    0.401698
     21          6           0       -8.180264    3.431242    0.092828
     22          6           0       -5.584698    5.916385    1.198975
     23          6           0       -8.624321    5.978853    0.183466
     24          6           0       -8.458528    7.210863    0.718730
     25          7           0       -9.133064    0.579010   -0.606034
     26          6           0       -9.934237    1.709079   -0.653071
     27          6           0      -11.293625    1.333566   -1.010688
     28          6           0      -11.187956   -0.012241   -1.264438
     29          6           0       -9.960520   -0.453266   -0.894504
     30          6           0      -12.366485    2.294859   -1.281291
     31          6           0      -12.368837   -0.887002   -1.838105
     32          6           0      -12.381727   -1.098973   -3.313783
     33          7           0       -7.136047   -1.396222   -0.274907
     34          6           0       -8.233925   -2.284364   -0.623033
     35          6           0       -7.683103   -3.575562   -0.468877
     36          6           0       -6.481298   -3.585754   -0.035761
     37          6           0       -6.143957   -2.169352    0.010280
     38          6           0       -8.490745   -4.856328   -0.746152
     39          6           0       -5.246532   -4.408950    0.258183
     40          8           0       -5.125395   -5.559319    0.322411
     41          6           0       -4.108614   -3.286465    0.545702
     42          6           0       -3.482926   -3.562861    1.935606
     43          8           0       -3.673352   -3.002318    2.908088
     44          8           0       -2.684963   -4.620067    1.809581
     45          6           0       -2.193450   -5.073427    3.096804
     46          6           0        2.831040   -0.446878   -1.313724
     47          6           0        4.131939   -0.304903   -0.652068
     48          6           0        5.101389    0.432559   -0.919399
     49          6           0        5.121348    1.396118   -2.076638
     50          6           0        6.345423    0.453648   -0.236787
     51          6           0        7.677129   -0.224247   -0.919520
     52          6           0        8.916273   -0.393637   -0.057937
     53          6           0       10.183510   -0.741676   -0.718382
     54          6           0       10.269953   -2.232549   -1.098781
     55          6           0       11.447100   -0.220198    0.079868
     56          6           0       12.814877   -0.674158   -0.612126
     57          6           0       13.970461   -0.078220    0.319426
     58          6           0       15.355680   -0.332273   -0.382519
     59          6           0       15.766822   -1.768876   -0.718585
     60          6           0       16.388214    0.482486    0.394620
     61          6           0       17.807504    0.524377   -0.362291
     62          6           0       18.850637    1.168423    0.628538
     63          6           0       20.242028    1.458911    0.083287
     64          6           0       20.293072    2.256232   -1.257750
     65          6           0       21.125378    2.057819    1.178133
     66          1           0       -4.254938    3.443945    1.351824
     67          1           0      -10.044971    3.708342   -0.272515
     68          1           0      -10.159640   -2.404566   -1.224781
     69          1           0       -2.381271   -0.782637    2.087136
     70          1           0       -2.348239    1.627989    1.105123
     71          1           0       -1.791746    1.199870    3.592910
     72          1           0       -3.242669    2.370038    3.430236
     73          1           0       -3.694957    0.470646    3.690087
     74          1           0       -1.971074   -1.730438   -0.256974
     75          1           0       -2.251851    0.038042   -0.804967
     76          1           0       -0.266810    0.731288    0.561842
     77          1           0       -0.183265   -0.956338    1.395261
     78          1           0       -5.744074    6.713547    0.334792
     79          1           0       -5.795243    6.324460    2.176192
     80          1           0       -4.433616    5.624719    1.001782
     81          1           0       -9.222159    5.713116   -0.612809
     82          1           0       -9.252994    7.884694    0.700636
     83          1           0       -7.550072    7.354309    1.309545
     84          1           0      -12.052339    3.145950   -1.939383
     85          1           0      -13.231654    1.770556   -1.886784
     86          1           0      -12.948858    2.866539   -0.362486
     87          1           0      -12.347069   -1.860873   -1.138701
     88          1           0      -13.260284   -0.369286   -1.317123
     89          1           0      -13.182575   -1.701158   -3.634645
     90          1           0      -12.552191   -0.171866   -3.962180
     91          1           0      -11.515171   -1.442631   -3.601566
     92          1           0       -9.017446   -4.756809   -1.740832
     93          1           0       -7.813589   -5.841352   -0.889071
     94          1           0       -9.444450   -4.969376   -0.008072
     95          1           0       -3.356531   -3.596575   -0.132253
     96          1           0       -1.390627   -4.150043    3.190333
     97          1           0       -2.899415   -5.291994    3.752010
     98          1           0       -1.770520   -6.100128    2.861978
     99          1           0        2.617112   -1.395897   -1.759350
    100          1           0        2.678799    0.478998   -1.995540
    101          1           0        4.192803   -0.919390    0.345254
    102          1           0        4.092390    1.635186   -2.560447
    103          1           0        5.484118    2.330640   -1.719195
    104          1           0        5.835454    1.135061   -3.079248
    105          1           0        6.591570    1.425855    0.306452
    106          1           0        6.278270   -0.226176    0.566999
    107          1           0        7.466027   -1.084193   -1.675981
    108          1           0        7.979501    0.403258   -1.745651
    109          1           0        8.897661    0.562807    0.548278
    110          1           0        8.559523   -1.012378    0.822483
    111          1           0       10.080612   -0.058519   -1.711280
    112          1           0        9.506934   -2.544474   -1.862428
    113          1           0       11.077072   -2.425945   -1.808931
    114          1           0       10.187679   -2.927131   -0.223122
    115          1           0       11.397966    0.918124    0.180345
    116          1           0       11.320266   -0.703209    1.189414
    117          1           0       12.980371   -1.783506   -0.814894
    118          1           0       12.933194   -0.180577   -1.500644
    119          1           0       13.804950    1.040745    0.550049
    120          1           0       13.836958   -0.460243    1.394946
    121          1           0       15.364683    0.279557   -1.389666
    122          1           0       15.897001   -2.224864    0.319088
    123          1           0       15.095364   -2.320605   -1.239229
    124          1           0       16.674208   -1.744095   -1.372723
    125          1           0       16.067468    1.466204    0.844523
    126          1           0       16.556412   -0.181548    1.302627
    127          1           0       18.178286   -0.447450   -0.579001
    128          1           0       17.701594    0.921583   -1.210614
    129          1           0       18.391182    2.158380    0.907428
    130          1           0       18.971119    0.659464    1.638446
    131          1           0       20.525724    0.395755   -0.079892
    132          1           0       19.888235    3.287190   -0.817657
    133          1           0       21.488544    2.539197   -1.491180
    134          1           0       19.852360    2.004282   -2.339257
    135          1           0       20.972454    1.457628    2.255678
    136          1           0       22.181662    2.101671    0.922742
    137          1           0       20.695217    3.107194    1.457139
 ---------------------------------------------------------------------

 SCF Done:  E(RCAM-B3LYP) =  -2932.54394709     A.U. after   15 cycles

 Excitation energies and oscillator strengths:

 Excited State   1:      Singlet-A      2.1463 eV  577.66 nm  f=0.1759  <S**2>=0.000
     240 -> 243        0.27783
     241 -> 242        0.63520
 This state for optimization and/or second-order correction.
 Total Energy, E(TD-HF/TD-KS) =  -2932.46507114
 Copying the excited state density for this state as the 1-particle RhoCI density.

 The electronic state is 1-A.
 Alpha  occ. eigenvalues --  -46.84379 -19.25567 -19.25325 -19.22139 -19.20913
 Alpha  occ. eigenvalues --  -19.20654 -14.41686 -14.39417 -14.39413 -14.38132
 Alpha  occ. eigenvalues --  -10.39424 -10.37980 -10.36248 -10.32329 -10.31795
 Alpha  occ. eigenvalues --  -10.30963 -10.30698 -10.29711 -10.29043 -10.29011
 Alpha  occ. eigenvalues --  -10.28867 -10.28802 -10.28776 -10.28276 -10.28074
 Alpha  occ. eigenvalues --  -10.27977 -10.27914 -10.27887 -10.27581 -10.27527
 Alpha  occ. eigenvalues --  -10.27501 -10.27443 -10.27440 -10.27341 -10.27327
 Alpha  occ. eigenvalues --  -10.27218 -10.27104 -10.26903 -10.26821 -10.26705
 Alpha  occ. eigenvalues --  -10.26609 -10.26400 -10.26378 -10.26362 -10.26324
 Alpha  occ. eigenvalues --  -10.26311 -10.26198 -10.26140 -10.26134 -10.26114
 Alpha  occ. eigenvalues --  -10.25998 -10.25741 -10.25606 -10.25463 -10.25436
 Alpha  occ. eigenvalues --  -10.25336 -10.25269 -10.25116 -10.24891 -10.24812
 Alpha  occ. eigenvalues --  -10.24667 -10.24647 -10.23978 -10.23589 -10.23402
 Alpha  occ. eigenvalues --   -3.13430  -1.88140  -1.87646  -1.87631  -1.20532
 Alpha  occ. eigenvalues --   -1.15583  -1.14543  -1.11450  -1.06378  -1.05921
 Alpha  occ. eigenvalues --   -1.04729  -1.03525  -1.02288  -0.93017  -0.91719
 Alpha  occ. eigenvalues --   -0.91162  -0.90638  -0.89886  -0.89312  -0.88833
 Alpha  occ. eigenvalues --   -0.87868  -0.87823  -0.87418  -0.87265  -0.86474
 Alpha  occ. eigenvalues --   -0.84572  -0.84065  -0.83401  -0.82676  -0.82506
 Alpha  occ. eigenvalues --   -0.81537  -0.81207  -0.80512  -0.79488  -0.78242
 Alpha  occ. eigenvalues --   -0.77784  -0.77048  -0.76355  -0.75864  -0.75381
 Alpha  occ. eigenvalues --   -0.74457  -0.73911  -0.73684  -0.72793  -0.72182
 Alpha  occ. eigenvalues --   -0.71370  -0.70660  -0.69851  -0.69596  -0.69217
 Alpha  occ. eigenvalues --   -0.67796  -0.67457  -0.65966  -0.65518  -0.65229
 Alpha  occ. eigenvalues --   -0.63945  -0.62957  -0.62605  -0.62371  -0.61521
 Alpha  occ. eigenvalues --   -0.60795  -0.60781  -0.60507  -0.59708  -0.59424
 Alpha  occ. eigenvalues --   -0.58972  -0.58067  -0.57735  -0.57510  -0.56887
 Alpha  occ. eigenvalues --   -0.56340  -0.55850  -0.55443  -0.55006  -0.54651
 Alpha  occ. eigenvalues --   -0.54245  -0.54208  -0.53989  -0.53611  -0.53353
 Alpha  occ. eigenvalues --   -0.52632  -0.52394  -0.52216  -0.51808  -0.51746
 Alpha  occ. eigenvalues --   -0.51619  -0.51449  -0.51252  -0.50879  -0.50563
 Alpha  occ. eigenvalues --   -0.50189  -0.50086  -0.49745  -0.49631  -0.49460
 Alpha  occ. eigenvalues --   -0.49313  -0.48956  -0.48756  -0.48557  -0.48340
 Alpha  occ. eigenvalues --   -0.48123  -0.47647  -0.47578  -0.47284  -0.46865
 Alpha  occ. eigenvalues --   -0.46846  -0.46492  -0.46368  -0.46219  -0.46046
 Alpha  occ. eigenvalues --   -0.45643  -0.45487  -0.45402  -0.45201  -0.44997
 Alpha  occ. eigenvalues --   -0.44736  -0.44606  -0.44333  -0.44280  -0.44234
 Alpha  occ. eigenvalues --   -0.44068  -0.43631  -0.43273  -0.43020  -0.42923
 Alpha  occ. eigenvalues --   -0.42813  -0.42611  -0.42469  -0.42246  -0.42117
 Alpha  occ. eigenvalues --   -0.41993  -0.41707  -0.41572  -0.41453  -0.41422
 Alpha  occ. eigenvalues --   -0.41285  -0.40931  -0.40681  -0.40404  -0.40394
 Alpha  occ. eigenvalues --   -0.40145  -0.39866  -0.39481  -0.39172  -0.38656
 Alpha  occ. eigenvalues --   -0.38638  -0.38484  -0.38440  -0.38017  -0.37834
 Alpha  occ. eigenvalues --   -0.37661  -0.37379  -0.37173  -0.37091  -0.36597
 Alpha  occ. eigenvalues --   -0.36017  -0.35882  -0.35441  -0.35289  -0.35229
 Alpha  occ. eigenvalues --   -0.34979  -0.34829  -0.34665  -0.33967  -0.33444
 Alpha  occ. eigenvalues --   -0.33278  -0.32462  -0.32160  -0.31871  -0.31149
 Alpha  occ. eigenvalues --   -0.30592  -0.30295  -0.27559  -0.27316  -0.23284
 Alpha  occ. eigenvalues --   -0.20749
 Alpha virt. eigenvalues --   -0.05340  -0.03489   0.01747   0.03919   0.04932
 Alpha virt. eigenvalues --    0.06148   0.06281   0.06572   0.07247   0.08220
 Alpha virt. eigenvalues --    0.09045   0.10509   0.11276   0.11660   0.11738

 Mulliken charges:
               1
     1  Mg   0.812532
     2  C    0.045372
     3  C   -0.104026
     4  C   -0.065288
     5  C   -0.141814
     6  N   -0.628036
     7  C    0.323293
     8  C   -0.171542
     9  C   -0.087855
    10  C    0.315463
    11  C   -0.291587
    12  C   -0.159409
    13  C   -0.264834
    14  C    0.621463
    15  O   -0.506907
    16  O   -0.523731
    17  N   -0.683426
    18  C    0.300712
    19  C   -0.008755
    20  C    0.049706
    21  C    0.240566
    22  C   -0.375772
    23  C   -0.061005
    24  C   -0.258911
    25  N   -0.676200
    26  C    0.243475
    27  C    0.058451
    28  C   -0.003462
    29  C    0.290981
    30  C   -0.388326
    31  C   -0.232658
    32  C   -0.298189
    33  N   -0.738243
    34  C    0.297454
    35  C   -0.018545
    36  C    0.048323
    37  C    0.299785
    38  C   -0.373777
    39  C    0.383357
    40  O   -0.392573
    41  C   -0.336636
    42  C    0.601794
    43  O   -0.424732
    44  O   -0.462978
    45  C   -0.072297
    46  C    0.020001
    47  C   -0.134920
    48  C    0.188183
    49  C   -0.357580
    50  C   -0.257232
    51  C   -0.189308
    52  C   -0.161303
    53  C   -0.050430
    54  C   -0.312151
    55  C   -0.169625
    56  C   -0.179219
    57  C   -0.185499
    58  C   -0.058091
    59  C   -0.300317
    60  C   -0.178657
    61  C   -0.177154
    62  C   -0.172479
    63  C   -0.047759
    64  C   -0.291116
    65  C   -0.296601
    66  H   -0.004478
    67  H    0.014467
    68  H    0.054537
    69  H    0.099831
    70  H    0.097443
    71  H    0.089328
    72  H    0.103074
    73  H    0.106444
    74  H    0.113361
    75  H    0.112792
    76  H    0.143927
    77  H    0.136776
    78  H    0.112909
    79  H    0.141015
    80  H    0.103159
    81  H    0.098502
    82  H    0.113222
    83  H    0.101113
    84  H    0.121285
    85  H    0.101507
    86  H    0.094688
    87  H    0.083885
    88  H    0.098734
    89  H    0.113787
    90  H    0.099524
    91  H    0.125497
    92  H    0.113464
    93  H    0.128441
    94  H    0.110363
    95  H    0.159590
    96  H    0.114127
    97  H    0.147571
    98  H    0.119841
    99  H    0.154942
   100  H    0.115102
   101  H    0.084662
   102  H    0.092987
   103  H    0.122752
   104  H    0.094166
   105  H    0.099213
   106  H    0.107427
   107  H    0.084245
   108  H    0.092699
   109  H    0.084066
   110  H    0.080721
   111  H    0.062536
   112  H    0.096502
   113  H    0.106290
   114  H    0.108712
   115  H    0.095096
   116  H    0.070125
   117  H    0.099805
   118  H    0.110945
   119  H    0.083448
   120  H    0.082519
   121  H    0.059685
   122  H    0.095968
   123  H    0.113422
   124  H    0.103540
   125  H    0.093796
   126  H    0.076273
   127  H    0.097347
   128  H    0.103335
   129  H    0.069374
   130  H    0.087591
   131  H    0.084657
   132  H    0.086367
   133  H    0.070774
   134  H    0.107469
   135  H    0.077739
   136  H    0.111969
   137  H    0.092056
 Sum of Mulliken charges =   0.00000

 Dipole moment (field-independent basis, Debye):
    X=              2.7399    Y=              3.0675    Z=              0.2377  Tot=              4.1198
 Quadrupole moment (field-independent basis, Debye-Ang):
   XX=           -365.1139   YY=           -389.4591   ZZ=           -394.6845
   XY=            -15.8054   XZ=              4.4012   YZ=             -1.6759

 Normal termination of Gaussian 09 at Fri Jul  5 14:25:34 2019.
