 Gaussian 09, Revision D.01,
 Gaussian 09:  ES64L-G09RevD.01 24-Apr-2013

 -------------------------------------
 # td=(NStates=1) CAM-B3LYP/6-31G(d,p)
 -------------------------------------

 --
 TD
 --
 Symbolic Z-matrix:
 Charge =  0 Multiplicity = 1

                         Standard orientation:
 ---------------------------------------------------------------------
 Center     Atomic      Atomic             Coordinates (Angstroms)
 Number     Number       Type             X           Y           Z
 ---------------------------------------------------------------------
      1         12           0       -7.202288    0.624852    0.058987
      2          6           0       -4.845391   -1.910038    0.589814
      3          6           0       -4.846187    2.857199    1.179185
      4          6           0       -9.356323    3.018388   -0.455665
      5          6           0       -9.586943   -1.782717   -0.964403
      6          7           0       -5.226332    0.491666    0.752376
      7          6           0       -4.395707   -0.558434    0.823675
      8          6           0       -2.949069   -0.284234    1.212869
      9          6           0       -3.145369    1.142621    1.658869
     10          6           0       -4.449096    1.520156    1.158528
     11          6           0       -2.996713    1.354472    3.211613
     12          6           0       -1.960342   -0.535218    0.087790
     13          6           0       -0.478984   -0.314590    0.636566
     14          6           0        0.485600   -0.566213   -0.401012
     15          8           0        0.187580   -0.894506   -1.613562
     16          8           0        1.718304   -0.338479   -0.113274
     17          7           0       -7.134113    2.592206    0.274443
     18          6           0       -6.085585    3.374617    0.804139
     19          6           0       -6.517604    4.810325    0.711323
     20          6           0       -7.799386    4.826015    0.265111
     21          6           0       -8.152242    3.382549   -0.018792
     22          6           0       -5.600270    5.902323    1.064901
     23          6           0       -8.631214    5.977022    0.039750
     24          6           0       -8.669233    7.142303    0.826697
     25          7           0       -9.171567    0.599695   -0.523991
     26          6           0       -9.899131    1.725683   -0.733612
     27          6           0      -11.169377    1.377263   -1.155712
     28          6           0      -11.189942   -0.092609   -1.241029
     29          6           0       -9.976486   -0.488936   -0.822307
     30          6           0      -12.392454    2.345953   -1.490501
     31          6           0      -12.324216   -0.878941   -1.827393
     32          6           0      -12.027692   -1.281011   -3.306673
     33          7           0       -7.278319   -1.371886   -0.096198
     34          6           0       -8.245679   -2.298693   -0.562464
     35          6           0       -7.775576   -3.581925   -0.560448
     36          6           0       -6.566165   -3.508750   -0.008299
     37          6           0       -6.194581   -2.142816    0.153102
     38          6           0       -8.550275   -4.801207   -0.779690
     39          6           0       -5.281085   -4.323436    0.189258
     40          8           0       -5.182341   -5.472612    0.140251
     41          6           0       -4.142096   -3.243695    0.570193
     42          6           0       -3.611436   -3.660577    1.988082
     43          8           0       -3.778149   -3.116717    3.021875
     44          8           0       -2.737287   -4.664132    1.733415
     45          6           0       -2.006308   -5.160551    2.869031
     46          6           0        2.761360   -0.690629   -1.097186
     47          6           0        4.152588   -0.424691   -0.472560
     48          6           0        5.210033    0.358732   -0.941618
     49          6           0        5.046698    1.167751   -2.182707
     50          6           0        6.481029    0.289091   -0.156146
     51          6           0        7.675138   -0.238597   -0.958682
     52          6           0        9.075643   -0.050348   -0.135391
     53          6           0       10.258815   -0.606595   -0.849767
     54          6           0       10.070670   -2.138388   -1.134590
     55          6           0       11.480879   -0.280765    0.025087
     56          6           0       12.792219   -0.292337   -0.694402
     57          6           0       13.936872   -0.060192    0.174520
     58          6           0       15.390207   -0.190842   -0.474089
     59          6           0       15.641612   -1.704659   -0.852094
     60          6           0       16.470203    0.460891    0.381015
     61          6           0       17.971847    0.401360   -0.182415
     62          6           0       18.955615    1.230464    0.661266
     63          6           0       20.395270    1.260504    0.125803
     64          6           0       20.349698    2.196169   -1.087295
     65          6           0       21.303462    1.852013    1.197283
     66          1           0       -4.149365    3.454402    1.416770
     67          1           0      -10.085980    3.761628   -0.783299
     68          1           0      -10.327134   -2.564958   -1.199004
     69          1           0       -2.620762   -0.847194    2.024917
     70          1           0       -2.429068    1.689059    1.171778
     71          1           0       -1.797596    1.282099    3.175217
     72          1           0       -3.294159    2.319225    3.584698
     73          1           0       -3.628331    0.811742    3.722702
     74          1           0       -1.684416   -1.481239   -0.350491
     75          1           0       -2.006839    0.247351   -0.627521
     76          1           0       -0.069818    0.783278    0.978817
     77          1           0       -0.546329   -1.104530    1.314510
     78          1           0       -5.970589    6.991501    0.851863
     79          1           0       -5.390560    5.785635    2.245123
     80          1           0       -4.627518    5.904509    0.712157
     81          1           0       -9.160216    6.103161   -1.052754
     82          1           0       -8.957874    8.123162    0.715086
     83          1           0       -7.988482    6.751236    1.886368
     84          1           0      -12.265303    3.200563   -2.135384
     85          1           0      -13.261419    1.806614   -1.816536
     86          1           0      -12.972228    2.679874   -0.498928
     87          1           0      -12.475527   -1.842216   -1.215486
     88          1           0      -13.354319   -0.521915   -1.713833
     89          1           0      -13.043978   -1.524634   -3.643714
     90          1           0      -11.586639   -0.385597   -3.837492
     91          1           0      -11.358256   -2.329730   -3.238212
     92          1           0       -8.850186   -4.888198   -2.068071
     93          1           0       -7.872570   -5.647693   -0.580390
     94          1           0       -9.418887   -4.563155   -0.262470
     95          1           0       -3.417847   -3.303270   -0.244965
     96          1           0       -1.572888   -4.345786    3.589578
     97          1           0       -2.859374   -5.816053    3.398618
     98          1           0       -1.294491   -5.858788    2.369718
     99          1           0        2.836360   -1.697492   -1.392083
    100          1           0        2.566685   -0.151280   -2.129694
    101          1           0        4.110827   -0.729911    0.570661
    102          1           0        4.174823    1.084617   -2.632148
    103          1           0        5.488866    2.190172   -2.023833
    104          1           0        5.779776    0.897105   -2.938753
    105          1           0        6.777938    1.362803    0.008918
    106          1           0        6.457985   -0.299171    0.894118
    107          1           0        7.594587   -1.319134   -1.202130
    108          1           0        7.656027    0.437931   -1.912253
    109          1           0        8.839855    0.934430    0.169006
    110          1           0        8.801449   -0.657136    0.805977
    111          1           0       10.273657   -0.175698   -1.754149
    112          1           0        9.332176   -2.093204   -1.976240
    113          1           0       10.999974   -2.444505   -1.480882
    114          1           0        9.618972   -2.768894   -0.320988
    115          1           0       11.294255    0.715818    0.312008
    116          1           0       11.457481   -0.901342    0.964814
    117          1           0       13.145761   -1.496144   -0.866480
    118          1           0       12.796400    0.357187   -1.654991
    119          1           0       13.710915    0.961514    0.591065
    120          1           0       14.095471   -0.600855    0.997809
    121          1           0       15.317687    0.318866   -1.244020
    122          1           0       15.716143   -2.331711    0.078127
    123          1           0       14.786136   -2.087652   -1.548861
    124          1           0       16.648416   -1.797137   -1.246634
    125          1           0       16.211181    1.467682    0.503500
    126          1           0       16.341027   -0.107089    1.290864
    127          1           0       18.239455   -0.727109   -0.463692
    128          1           0       17.635903    0.828227   -1.218670
    129          1           0       18.520169    2.252214    0.799550
    130          1           0       18.886800    0.833407    1.587382
    131          1           0       20.759056    0.095082   -0.455751
    132          1           0       19.944014    3.351760   -1.018880
    133          1           0       21.269653    2.358238   -1.690716
    134          1           0       19.598577    1.838097   -1.906093
    135          1           0       21.226514    1.557188    2.275394
    136          1           0       22.379874    1.880561    0.799115
    137          1           0       20.959229    2.916672    1.285192
 ---------------------------------------------------------------------

 SCF Done:  E(RCAM-B3LYP) =  -2932.54995199     A.U. after   18 cycles

 Excitation energies and oscillator strengths:

 Excited State   1:      Singlet-A      2.2034 eV  562.70 nm  f=0.1349  <S**2>=0.000
     240 -> 242       -0.26781
     240 -> 243        0.24172
     241 -> 242        0.54434
     241 -> 243        0.25120
 This state for optimization and/or second-order correction.
 Total Energy, E(TD-HF/TD-KS) =  -2932.46897987
 Copying the excited state density for this state as the 1-particle RhoCI density.

 The electronic state is 1-A.
 Alpha  occ. eigenvalues --  -46.82756 -19.27770 -19.25917 -19.21771 -19.20830
 Alpha  occ. eigenvalues --  -19.19073 -14.41983 -14.39395 -14.38203 -14.37167
 Alpha  occ. eigenvalues --  -10.39224 -10.38983 -10.34809 -10.33165 -10.32978
 Alpha  occ. eigenvalues --  -10.31110 -10.30678 -10.30581 -10.29280 -10.29146
 Alpha  occ. eigenvalues --  -10.28892 -10.28593 -10.28553 -10.28549 -10.28161
 Alpha  occ. eigenvalues --  -10.28114 -10.27874 -10.27702 -10.27675 -10.27576
 Alpha  occ. eigenvalues --  -10.27467 -10.27463 -10.27099 -10.26972 -10.26960
 Alpha  occ. eigenvalues --  -10.26748 -10.26747 -10.26722 -10.26721 -10.26566
 Alpha  occ. eigenvalues --  -10.26562 -10.26512 -10.26473 -10.26462 -10.26431
 Alpha  occ. eigenvalues --  -10.26375 -10.26184 -10.26088 -10.25848 -10.25675
 Alpha  occ. eigenvalues --  -10.25663 -10.25533 -10.25527 -10.25496 -10.25338
 Alpha  occ. eigenvalues --  -10.25337 -10.25320 -10.25079 -10.24811 -10.24637
 Alpha  occ. eigenvalues --  -10.24322 -10.24280 -10.24061 -10.23663 -10.23155
 Alpha  occ. eigenvalues --   -3.12032  -1.86724  -1.86306  -1.86196  -1.19710
 Alpha  occ. eigenvalues --   -1.18663  -1.14681  -1.10716  -1.06128  -1.05078
 Alpha  occ. eigenvalues --   -1.03593  -1.02777  -1.01815  -0.91983  -0.91688
 Alpha  occ. eigenvalues --   -0.91050  -0.90822  -0.89793  -0.89458  -0.88939
 Alpha  occ. eigenvalues --   -0.88711  -0.88407  -0.87631  -0.87314  -0.85785
 Alpha  occ. eigenvalues --   -0.85280  -0.84367  -0.83421  -0.82169  -0.82029
 Alpha  occ. eigenvalues --   -0.81119  -0.80641  -0.80512  -0.80266  -0.78477
 Alpha  occ. eigenvalues --   -0.77364  -0.76776  -0.76462  -0.75800  -0.75612
 Alpha  occ. eigenvalues --   -0.75170  -0.74748  -0.74505  -0.74144  -0.72139
 Alpha  occ. eigenvalues --   -0.72101  -0.70729  -0.69022  -0.68492  -0.67776
 Alpha  occ. eigenvalues --   -0.66432  -0.66177  -0.65899  -0.64938  -0.64594
 Alpha  occ. eigenvalues --   -0.64242  -0.63925  -0.63584  -0.63276  -0.62163
 Alpha  occ. eigenvalues --   -0.61868  -0.61558  -0.60593  -0.60264  -0.59199
 Alpha  occ. eigenvalues --   -0.58888  -0.58605  -0.57759  -0.57037  -0.56709
 Alpha  occ. eigenvalues --   -0.56221  -0.55614  -0.55458  -0.55226  -0.55169
 Alpha  occ. eigenvalues --   -0.54909  -0.54536  -0.53853  -0.53814  -0.53441
 Alpha  occ. eigenvalues --   -0.53334  -0.52895  -0.52575  -0.52242  -0.51730
 Alpha  occ. eigenvalues --   -0.51505  -0.51093  -0.50970  -0.50922  -0.50485
 Alpha  occ. eigenvalues --   -0.50270  -0.50159  -0.50088  -0.50059  -0.49724
 Alpha  occ. eigenvalues --   -0.49353  -0.49330  -0.48718  -0.48496  -0.48303
 Alpha  occ. eigenvalues --   -0.48150  -0.47883  -0.47380  -0.47376  -0.47174
 Alpha  occ. eigenvalues --   -0.46696  -0.46625  -0.46328  -0.46158  -0.45890
 Alpha  occ. eigenvalues --   -0.45738  -0.45689  -0.45212  -0.45113  -0.44985
 Alpha  occ. eigenvalues --   -0.44889  -0.44637  -0.44428  -0.44321  -0.43998
 Alpha  occ. eigenvalues --   -0.43789  -0.43581  -0.43401  -0.43215  -0.42932
 Alpha  occ. eigenvalues --   -0.42859  -0.42807  -0.42595  -0.42223  -0.42189
 Alpha  occ. eigenvalues --   -0.42065  -0.41962  -0.41815  -0.41459  -0.41430
 Alpha  occ. eigenvalues --   -0.41131  -0.41050  -0.40714  -0.40333  -0.40242
 Alpha  occ. eigenvalues --   -0.40013  -0.39954  -0.39849  -0.39593  -0.39529
 Alpha  occ. eigenvalues --   -0.39082  -0.38766  -0.38616  -0.37894  -0.37866
 Alpha  occ. eigenvalues --   -0.37590  -0.37282  -0.37141  -0.36904  -0.36500
 Alpha  occ. eigenvalues --   -0.36483  -0.36078  -0.35950  -0.35662  -0.35264
 Alpha  occ. eigenvalues --   -0.35233  -0.34595  -0.34151  -0.33567  -0.32975
 Alpha  occ. eigenvalues --   -0.32821  -0.32149  -0.31810  -0.30465  -0.29132
 Alpha  occ. eigenvalues --   -0.28751  -0.28659  -0.28031  -0.26063  -0.22776
 Alpha  occ. eigenvalues --   -0.20929
 Alpha virt. eigenvalues --   -0.05244  -0.03424   0.02243   0.04193   0.04970
 Alpha virt. eigenvalues --    0.05326   0.06428   0.06592   0.07215   0.07744
 Alpha virt. eigenvalues --    0.08628   0.10214   0.10901   0.11406   0.11427

 Mulliken charges:
               1
     1  Mg   0.800545
     2  C    0.050268
     3  C   -0.180676
     4  C   -0.178930
     5  C   -0.160420
     6  N   -0.620405
     7  C    0.294833
     8  C   -0.142358
     9  C   -0.168947
    10  C    0.351698
    11  C   -0.288071
    12  C   -0.170588
    13  C   -0.289740
    14  C    0.603383
    15  O   -0.537164
    16  O   -0.445412
    17  N   -0.741024
    18  C    0.298546
    19  C    0.055261
    20  C    0.017204
    21  C    0.386780
    22  C   -0.384568
    23  C   -0.099773
    24  C   -0.228860
    25  N   -0.720509
    26  C    0.317466
    27  C   -0.022803
    28  C    0.031059
    29  C    0.328231
    30  C   -0.375593
    31  C   -0.263957
    32  C   -0.282912
    33  N   -0.716154
    34  C    0.230939
    35  C    0.035977
    36  C   -0.052102
    37  C    0.299582
    38  C   -0.354684
    39  C    0.374513
    40  O   -0.404639
    41  C   -0.350935
    42  C    0.618502
    43  O   -0.442034
    44  O   -0.449443
    45  C   -0.089075
    46  C    0.010967
    47  C   -0.178660
    48  C    0.145807
    49  C   -0.359852
    50  C   -0.227231
    51  C   -0.196094
    52  C   -0.171200
    53  C   -0.057536
    54  C   -0.315771
    55  C   -0.164066
    56  C   -0.162084
    57  C   -0.173753
    58  C   -0.060539
    59  C   -0.324968
    60  C   -0.183523
    61  C   -0.185367
    62  C   -0.155231
    63  C   -0.029439
    64  C   -0.301751
    65  C   -0.307201
    66  H    0.043361
    67  H    0.085691
    68  H    0.099321
    69  H    0.123963
    70  H    0.111815
    71  H    0.100612
    72  H    0.113427
    73  H    0.139582
    74  H    0.146497
    75  H    0.123768
    76  H    0.120440
    77  H    0.151040
    78  H    0.120106
    79  H    0.100056
    80  H    0.131543
    81  H    0.087367
    82  H    0.125793
    83  H    0.069829
    84  H    0.121258
    85  H    0.114411
    86  H    0.094763
    87  H    0.089598
    88  H    0.110594
    89  H    0.106314
    90  H    0.122917
    91  H    0.086175
    92  H    0.065895
    93  H    0.150178
    94  H    0.135655
    95  H    0.165369
    96  H    0.128899
    97  H    0.119798
    98  H    0.132434
    99  H    0.149858
   100  H    0.121001
   101  H    0.098114
   102  H    0.121389
   103  H    0.114651
   104  H    0.120176
   105  H    0.090189
   106  H    0.092568
   107  H    0.102897
   108  H    0.071018
   109  H    0.096035
   110  H    0.076936
   111  H    0.097119
   112  H    0.099993
   113  H    0.114597
   114  H    0.101344
   115  H    0.098552
   116  H    0.093392
   117  H    0.054181
   118  H    0.087743
   119  H    0.060247
   120  H    0.102941
   121  H    0.087724
   122  H    0.094432
   123  H    0.102508
   124  H    0.105490
   125  H    0.098831
   126  H    0.081358
   127  H    0.080312
   128  H    0.081980
   129  H    0.096749
   130  H    0.106303
   131  H    0.050212
   132  H    0.072376
   133  H    0.098727
   134  H    0.096964
   135  H    0.103737
   136  H    0.099822
   137  H    0.103545
 Sum of Mulliken charges =   0.00000

 Dipole moment (field-independent basis, Debye):
    X=              4.4770    Y=              4.8419    Z=              0.7856  Tot=              6.6411
 Quadrupole moment (field-independent basis, Debye-Ang):
   XX=           -369.2014   YY=           -388.4076   ZZ=           -398.3736
   XY=            -13.6459   XZ=             12.0744   YZ=             -5.1669

 Normal termination of Gaussian 09 at Thu Jul  4 07:46:12 2019.
