 Gaussian 09, Revision D.01,
 Gaussian 09:  ES64L-G09RevD.01 24-Apr-2013

 -------------------------------------
 # td=(NStates=1) CAM-B3LYP/6-31G(d,p)
 -------------------------------------

 --
 TD
 --
 Symbolic Z-matrix:
 Charge =  0 Multiplicity = 1

                         Standard orientation:
 ---------------------------------------------------------------------
 Center     Atomic      Atomic             Coordinates (Angstroms)
 Number     Number       Type             X           Y           Z
 ---------------------------------------------------------------------
      1         12           0       -7.116997    0.599966    0.156573
      2          6           0       -4.927982   -1.966600    0.621664
      3          6           0       -4.784558    2.808209    1.227524
      4          6           0       -9.260237    2.978754   -0.257638
      5          6           0       -9.520490   -1.723398   -0.758134
      6          7           0       -5.099496    0.396251    0.782366
      7          6           0       -4.330311   -0.780975    0.845510
      8          6           0       -2.814176   -0.489163    1.195045
      9          6           0       -3.056296    1.043677    1.612329
     10          6           0       -4.347427    1.438078    1.107027
     11          6           0       -2.842765    1.354829    3.091178
     12          6           0       -1.893138   -0.698136    0.104889
     13          6           0       -0.485443   -0.493128    0.514177
     14          6           0        0.501608   -0.718963   -0.571739
     15          8           0        0.210262   -1.282022   -1.612905
     16          8           0        1.788597   -0.253532   -0.244374
     17          7           0       -7.011210    2.661440    0.347258
     18          6           0       -6.007347    3.340003    0.785489
     19          6           0       -6.297498    4.777225    0.737545
     20          6           0       -7.588388    4.807891    0.359455
     21          6           0       -8.068136    3.464913    0.090631
     22          6           0       -5.356921    5.829042    1.161001
     23          6           0       -8.470734    6.053718    0.168117
     24          6           0       -8.382527    7.151254    0.953030
     25          7           0       -9.044270    0.703132   -0.542290
     26          6           0       -9.782894    1.822708   -0.656974
     27          6           0      -11.128231    1.545027   -1.165415
     28          6           0      -11.271498    0.241962   -1.235283
     29          6           0       -9.898626   -0.333497   -0.948548
     30          6           0      -12.155363    2.614083   -1.388003
     31          6           0      -12.422096   -0.606288   -1.782942
     32          6           0      -12.216302   -1.012609   -3.341135
     33          7           0       -7.308647   -1.370053   -0.063091
     34          6           0       -8.378583   -2.183402   -0.477421
     35          6           0       -7.881061   -3.555778   -0.482649
     36          6           0       -6.532113   -3.605317   -0.166978
     37          6           0       -6.204661   -2.177469    0.214444
     38          6           0       -8.773958   -4.738388   -0.979409
     39          6           0       -5.348227   -4.422276    0.090076
     40          8           0       -5.207986   -5.606934    0.101188
     41          6           0       -4.215565   -3.377456    0.585184
     42          6           0       -3.601378   -3.769187    1.883124
     43          8           0       -3.701364   -3.132492    2.928447
     44          8           0       -2.931713   -4.917457    1.679842
     45          6           0       -2.285320   -5.500829    2.847709
     46          6           0        2.809100   -0.545260   -1.259294
     47          6           0        4.091699   -0.294902   -0.534315
     48          6           0        5.101187    0.452441   -1.062072
     49          6           0        5.198472    1.272475   -2.308719
     50          6           0        6.355436    0.458930   -0.212346
     51          6           0        7.613470   -0.057232   -0.893025
     52          6           0        8.878580   -0.048700   -0.093668
     53          6           0       10.119398   -0.545129   -0.809486
     54          6           0       10.079114   -1.941422   -1.294993
     55          6           0       11.429900   -0.207062    0.025054
     56          6           0       12.732145   -0.453694   -0.623107
     57          6           0       13.964539   -0.092034    0.217876
     58          6           0       15.267022   -0.134751   -0.455394
     59          6           0       15.620639   -1.548804   -0.938374
     60          6           0       16.339266    0.453075    0.347632
     61          6           0       17.829495    0.588793   -0.164206
     62          6           0       18.748538    1.178033    0.826349
     63          6           0       20.173444    1.231084    0.139387
     64          6           0       20.400893    2.094470   -1.053886
     65          6           0       21.299602    1.630310    1.213288
     66          1           0       -4.170805    3.522865    1.557960
     67          1           0       -9.929309    3.755826   -0.743295
     68          1           0      -10.252194   -2.443159   -1.030845
     69          1           0       -2.717699   -1.223996    2.124789
     70          1           0       -2.263669    1.473894    0.971818
     71          1           0       -1.813148    1.285883    3.566815
     72          1           0       -3.210818    2.481082    3.197866
     73          1           0       -3.667152    0.822084    3.795484
     74          1           0       -1.961410   -1.752297   -0.258508
     75          1           0       -2.354945   -0.148185   -0.898355
     76          1           0       -0.371763    0.591345    0.947285
     77          1           0       -0.458267   -1.209075    1.472957
     78          1           0       -5.640827    6.671840    0.591846
     79          1           0       -5.619633    6.024537    2.305463
     80          1           0       -4.302082    5.507396    0.961748
     81          1           0       -9.269560    5.768095   -0.463983
     82          1           0       -9.062798    8.008845    0.843719
     83          1           0       -7.746823    7.059845    1.651090
     84          1           0      -11.615653    3.063855   -2.260368
     85          1           0      -13.207978    2.333098   -1.785450
     86          1           0      -12.076844    3.353579   -0.696722
     87          1           0      -12.703826   -1.612183   -1.184650
     88          1           0      -13.411665    0.048806   -1.698905
     89          1           0      -13.449718   -1.374992   -3.761471
     90          1           0      -11.916405   -0.233384   -3.868480
     91          1           0      -11.596232   -1.640567   -3.339640
     92          1           0       -9.041283   -4.525073   -2.107074
     93          1           0       -8.180787   -5.623744   -0.830429
     94          1           0       -9.655189   -4.814422   -0.416802
     95          1           0       -3.564153   -3.427862   -0.191216
     96          1           0       -1.696758   -4.735245    3.262590
     97          1           0       -3.072591   -5.774746    3.501042
     98          1           0       -1.711576   -6.288386    2.676779
     99          1           0        2.682571   -1.583159   -1.637972
    100          1           0        2.611961    0.111249   -2.055744
    101          1           0        4.150379   -0.797530    0.532841
    102          1           0        4.235324    1.375433   -2.821262
    103          1           0        5.461854    2.266442   -2.221230
    104          1           0        5.886533    0.701912   -3.192520
    105          1           0        6.614055    1.570450   -0.040012
    106          1           0        5.992288   -0.179980    0.629543
    107          1           0        7.189739   -0.956725   -1.302286
    108          1           0        7.725063    0.835349   -1.676974
    109          1           0        9.010967    1.163795    0.148019
    110          1           0        8.783026   -0.588504    0.905526
    111          1           0       10.433576    0.061848   -1.710699
    112          1           0        9.161128   -2.022137   -1.869053
    113          1           0       10.819239   -2.247177   -1.823615
    114          1           0        9.941262   -2.670484   -0.447942
    115          1           0       11.324859    0.700234    0.757519
    116          1           0       11.358910   -1.103835    0.677034
    117          1           0       12.712382   -1.489587   -0.960903
    118          1           0       12.655492    0.049903   -1.643003
    119          1           0       13.717307    0.945038    0.602459
    120          1           0       13.862173   -0.594871    1.089300
    121          1           0       14.982405    0.727762   -1.222267
    122          1           0       15.555450   -2.080463    0.062654
    123          1           0       15.064067   -2.060744   -1.606893
    124          1           0       16.603842   -1.663173   -1.354823
    125          1           0       16.181050    1.430704    0.821098
    126          1           0       16.538721   -0.103970    1.315424
    127          1           0       18.154496   -0.339235   -0.358955
    128          1           0       17.746766    1.138127   -1.343903
    129          1           0       18.340217    1.965884    1.180961
    130          1           0       18.772917    0.472583    1.594403
    131          1           0       20.484535    0.082503   -0.188667
    132          1           0       20.128640    3.113878   -0.720555
    133          1           0       21.393822    2.181598   -1.358186
    134          1           0       19.745455    1.783286   -1.743183
    135          1           0       21.495259    0.737851    2.160094
    136          1           0       22.236764    1.434830    0.629256
    137          1           0       21.206238    2.635067    1.637780
 ---------------------------------------------------------------------

 SCF Done:  E(RCAM-B3LYP) =  -2932.56522454     A.U. after   15 cycles

 Excitation energies and oscillator strengths:

 Excited State   1:      Singlet-A      2.0976 eV  591.08 nm  f=0.2462  <S**2>=0.000
     240 -> 243        0.24738
     241 -> 242        0.65300
 This state for optimization and/or second-order correction.
 Total Energy, E(TD-HF/TD-KS) =  -2932.48813901
 Copying the excited state density for this state as the 1-particle RhoCI density.

 The electronic state is 1-A.
 Alpha  occ. eigenvalues --  -46.83806 -19.26662 -19.25946 -19.21991 -19.21242
 Alpha  occ. eigenvalues --  -19.21204 -14.41658 -14.39179 -14.39123 -14.38171
 Alpha  occ. eigenvalues --  -10.39976 -10.39593 -10.35917 -10.31424 -10.30723
 Alpha  occ. eigenvalues --  -10.30646 -10.29969 -10.29660 -10.29411 -10.29116
 Alpha  occ. eigenvalues --  -10.29000 -10.28618 -10.28369 -10.28138 -10.27987
 Alpha  occ. eigenvalues --  -10.27944 -10.27912 -10.27757 -10.27726 -10.27695
 Alpha  occ. eigenvalues --  -10.27617 -10.27562 -10.27443 -10.27395 -10.27315
 Alpha  occ. eigenvalues --  -10.27299 -10.26891 -10.26686 -10.26484 -10.26430
 Alpha  occ. eigenvalues --  -10.26338 -10.26327 -10.26283 -10.26109 -10.26105
 Alpha  occ. eigenvalues --  -10.25961 -10.25951 -10.25940 -10.25921 -10.25895
 Alpha  occ. eigenvalues --  -10.25815 -10.25544 -10.25379 -10.25139 -10.24932
 Alpha  occ. eigenvalues --  -10.24850 -10.24842 -10.24821 -10.24782 -10.24381
 Alpha  occ. eigenvalues --  -10.24172 -10.24095 -10.23318 -10.23224 -10.22812
 Alpha  occ. eigenvalues --   -3.12913  -1.87623  -1.87167  -1.87073  -1.17929
 Alpha  occ. eigenvalues --   -1.16555  -1.12910  -1.09146  -1.09129  -1.05410
 Alpha  occ. eigenvalues --   -1.04049  -1.02795  -1.01456  -0.92746  -0.91943
 Alpha  occ. eigenvalues --   -0.91549  -0.91279  -0.90073  -0.89127  -0.88977
 Alpha  occ. eigenvalues --   -0.88744  -0.88287  -0.87568  -0.86947  -0.85973
 Alpha  occ. eigenvalues --   -0.85444  -0.84600  -0.84135  -0.83732  -0.83067
 Alpha  occ. eigenvalues --   -0.82522  -0.82112  -0.81287  -0.80655  -0.78496
 Alpha  occ. eigenvalues --   -0.77952  -0.77426  -0.77153  -0.77017  -0.76696
 Alpha  occ. eigenvalues --   -0.75883  -0.75199  -0.74466  -0.73417  -0.72650
 Alpha  occ. eigenvalues --   -0.71856  -0.70548  -0.70145  -0.68776  -0.68502
 Alpha  occ. eigenvalues --   -0.67676  -0.66312  -0.65410  -0.64864  -0.64483
 Alpha  occ. eigenvalues --   -0.63889  -0.63760  -0.62704  -0.62422  -0.62407
 Alpha  occ. eigenvalues --   -0.61551  -0.60788  -0.60130  -0.59878  -0.59273
 Alpha  occ. eigenvalues --   -0.59017  -0.58355  -0.58073  -0.57187  -0.56712
 Alpha  occ. eigenvalues --   -0.56184  -0.55986  -0.55793  -0.55680  -0.55444
 Alpha  occ. eigenvalues --   -0.54935  -0.54608  -0.54075  -0.53763  -0.53519
 Alpha  occ. eigenvalues --   -0.53294  -0.52988  -0.52328  -0.52210  -0.52063
 Alpha  occ. eigenvalues --   -0.51730  -0.51501  -0.51281  -0.51129  -0.51025
 Alpha  occ. eigenvalues --   -0.50750  -0.50608  -0.50288  -0.50066  -0.50034
 Alpha  occ. eigenvalues --   -0.49765  -0.49481  -0.49302  -0.49181  -0.48911
 Alpha  occ. eigenvalues --   -0.48518  -0.48488  -0.47828  -0.47595  -0.47496
 Alpha  occ. eigenvalues --   -0.47305  -0.46832  -0.46636  -0.46244  -0.46084
 Alpha  occ. eigenvalues --   -0.45877  -0.45643  -0.45410  -0.45295  -0.45200
 Alpha  occ. eigenvalues --   -0.45151  -0.45063  -0.44644  -0.44600  -0.44461
 Alpha  occ. eigenvalues --   -0.44269  -0.43968  -0.43846  -0.43777  -0.43687
 Alpha  occ. eigenvalues --   -0.43179  -0.42775  -0.42694  -0.42561  -0.42456
 Alpha  occ. eigenvalues --   -0.42374  -0.42031  -0.41997  -0.41668  -0.41550
 Alpha  occ. eigenvalues --   -0.41381  -0.41182  -0.41086  -0.40836  -0.40476
 Alpha  occ. eigenvalues --   -0.39861  -0.39526  -0.39226  -0.38902  -0.38608
 Alpha  occ. eigenvalues --   -0.38397  -0.38144  -0.37974  -0.37807  -0.37736
 Alpha  occ. eigenvalues --   -0.37422  -0.36935  -0.36865  -0.36703  -0.36532
 Alpha  occ. eigenvalues --   -0.36377  -0.36149  -0.36046  -0.35763  -0.35172
 Alpha  occ. eigenvalues --   -0.34945  -0.34942  -0.34582  -0.34142  -0.33950
 Alpha  occ. eigenvalues --   -0.33099  -0.33014  -0.32725  -0.31093  -0.30515
 Alpha  occ. eigenvalues --   -0.29629  -0.29596  -0.28535  -0.27543  -0.23520
 Alpha  occ. eigenvalues --   -0.20302
 Alpha virt. eigenvalues --   -0.05379  -0.02572   0.01268   0.04372   0.04817
 Alpha virt. eigenvalues --    0.05365   0.05667   0.06322   0.06643   0.07641
 Alpha virt. eigenvalues --    0.08892   0.10425   0.11060   0.11109   0.11752

 Mulliken charges:
               1
     1  Mg   0.805862
     2  C    0.047741
     3  C   -0.184069
     4  C   -0.199814
     5  C   -0.203668
     6  N   -0.630565
     7  C    0.263556
     8  C   -0.152867
     9  C   -0.149629
    10  C    0.371787
    11  C   -0.300710
    12  C   -0.162897
    13  C   -0.266426
    14  C    0.634703
    15  O   -0.464688
    16  O   -0.511812
    17  N   -0.706757
    18  C    0.323139
    19  C    0.008476
    20  C   -0.033473
    21  C    0.320395
    22  C   -0.363819
    23  C   -0.056557
    24  C   -0.223496
    25  N   -0.653048
    26  C    0.307008
    27  C    0.055741
    28  C    0.011872
    29  C    0.203119
    30  C   -0.368963
    31  C   -0.253592
    32  C   -0.253009
    33  N   -0.753795
    34  C    0.387580
    35  C   -0.039806
    36  C    0.033426
    37  C    0.274274
    38  C   -0.361319
    39  C    0.350375
    40  O   -0.425100
    41  C   -0.323540
    42  C    0.642529
    43  O   -0.488993
    44  O   -0.458781
    45  C   -0.076873
    46  C    0.013167
    47  C   -0.148573
    48  C    0.135665
    49  C   -0.365497
    50  C   -0.218724
    51  C   -0.163950
    52  C   -0.149830
    53  C   -0.059116
    54  C   -0.305469
    55  C   -0.183955
    56  C   -0.179688
    57  C   -0.172435
    58  C   -0.037747
    59  C   -0.314514
    60  C   -0.187360
    61  C   -0.161773
    62  C   -0.155876
    63  C   -0.064460
    64  C   -0.287152
    65  C   -0.296705
    66  H    0.054936
    67  H    0.060336
    68  H    0.082823
    69  H    0.136976
    70  H    0.105415
    71  H    0.112114
    72  H    0.096206
    73  H    0.112051
    74  H    0.124121
    75  H    0.098162
    76  H    0.126279
    77  H    0.136159
    78  H    0.133473
    79  H    0.115792
    80  H    0.115842
    81  H    0.082763
    82  H    0.107412
    83  H    0.092968
    84  H    0.121358
    85  H    0.116835
    86  H    0.136454
    87  H    0.090582
    88  H    0.085205
    89  H    0.050216
    90  H    0.122502
    91  H    0.119522
    92  H    0.116619
    93  H    0.143417
    94  H    0.131739
    95  H    0.170876
    96  H    0.128889
    97  H    0.137612
    98  H    0.133607
    99  H    0.133686
   100  H    0.125809
   101  H    0.106331
   102  H    0.108945
   103  H    0.135814
   104  H    0.103355
   105  H    0.079804
   106  H    0.085261
   107  H    0.100172
   108  H    0.082259
   109  H    0.067449
   110  H    0.089161
   111  H    0.075935
   112  H    0.106752
   113  H    0.116495
   114  H    0.086272
   115  H    0.078178
   116  H    0.082768
   117  H    0.095394
   118  H    0.068710
   119  H    0.083336
   120  H    0.096148
   121  H    0.073458
   122  H    0.095095
   123  H    0.114960
   124  H    0.107599
   125  H    0.087854
   126  H    0.066053
   127  H    0.108033
   128  H    0.035149
   129  H    0.097956
   130  H    0.107975
   131  H    0.056227
   132  H    0.092089
   133  H    0.110772
   134  H    0.114354
   135  H    0.047044
   136  H    0.099155
   137  H    0.109401
 Sum of Mulliken charges =   0.00000

 Dipole moment (field-independent basis, Debye):
    X=              2.2040    Y=              2.3675    Z=             -0.1044  Tot=              3.2363
 Quadrupole moment (field-independent basis, Debye-Ang):
   XX=           -374.4104   YY=           -389.8861   ZZ=           -396.0988
   XY=            -17.9961   XZ=              7.6933   YZ=             -5.2362

 Normal termination of Gaussian 09 at Fri Jul  5 23:04:18 2019.
