 Gaussian 16, Revision A.03,
 Gaussian 16:  ES64L-G16RevA.03 25-Dec-2016

 ----------------------------------------------------------------------
 # td=(NStates=1) iop(3/107=0140000000,3/108=0140000000) CAM-B3LYP/6-31
 G(d,p)
 ----------------------------------------------------------------------

 --
 TD
 --
 Symbolic Z-matrix:
 Charge =  0 Multiplicity = 1

                         Standard orientation:
 ---------------------------------------------------------------------
 Center     Atomic      Atomic             Coordinates (Angstroms)
 Number     Number       Type             X           Y           Z
 ---------------------------------------------------------------------
      1         12           0       -7.121741    0.655297   -0.061990
      2          6           0       -4.867508   -1.928615    0.407642
      3          6           0       -4.791429    2.832426    0.975759
      4          6           0       -9.355571    3.044223   -0.454163
      5          6           0       -9.572581   -1.680031   -0.756216
      6          7           0       -5.088174    0.431258    0.682471
      7          6           0       -4.296752   -0.693443    0.715678
      8          6           0       -2.988143   -0.417067    1.166944
      9          6           0       -3.045676    1.057116    1.590392
     10          6           0       -4.330406    1.494594    1.080346
     11          6           0       -3.066498    1.202357    3.229153
     12          6           0       -1.833063   -0.630360    0.018173
     13          6           0       -0.470835   -0.489155    0.551594
     14          6           0        0.557252   -0.655301   -0.549850
     15          8           0        0.226722   -1.043266   -1.741566
     16          8           0        1.856333   -0.383033   -0.177633
     17          7           0       -7.084585    2.689856    0.293757
     18          6           0       -6.018681    3.367302    0.717255
     19          6           0       -6.328519    4.789219    0.753796
     20          6           0       -7.593183    4.856489    0.374023
     21          6           0       -8.140080    3.518932    0.009317
     22          6           0       -5.489066    5.890481    1.194322
     23          6           0       -8.470843    6.053833    0.185137
     24          6           0       -8.349172    7.210058    0.745277
     25          7           0       -9.146846    0.728907   -0.466726
     26          6           0       -9.822720    1.735242   -0.693287
     27          6           0      -11.144169    1.478984   -1.047120
     28          6           0      -11.279342    0.101144   -1.153769
     29          6           0       -9.889752   -0.356853   -0.785826
     30          6           0      -12.350034    2.467121   -1.354895
     31          6           0      -12.416984   -0.821652   -1.512791
     32          6           0      -12.362932   -1.149298   -3.095083
     33          7           0       -7.252589   -1.432456   -0.178943
     34          6           0       -8.313298   -2.236584   -0.558934
     35          6           0       -7.882883   -3.580035   -0.452760
     36          6           0       -6.512541   -3.555197   -0.145220
     37          6           0       -6.168310   -2.125251    0.068815
     38          6           0       -8.582068   -4.882146   -0.872997
     39          6           0       -5.385886   -4.290040    0.187836
     40          8           0       -5.301763   -5.556317    0.220942
     41          6           0       -4.216975   -3.272382    0.548446
     42          6           0       -3.608591   -3.677928    1.942259
     43          8           0       -3.797416   -3.032455    2.957938
     44          8           0       -2.821590   -4.715909    1.825503
     45          6           0       -2.240117   -5.086639    3.083903
     46          6           0        2.775790   -0.780301   -1.201305
     47          6           0        4.150902   -0.564964   -0.621359
     48          6           0        5.114014    0.358933   -1.030335
     49          6           0        5.068050    1.035010   -2.286504
     50          6           0        6.457127    0.392533   -0.288112
     51          6           0        7.663499   -0.182484   -1.006281
     52          6           0        8.954525   -0.155875   -0.206367
     53          6           0       10.117765   -0.490436   -0.906905
     54          6           0       10.192853   -2.002369   -1.336644
     55          6           0       11.408095   -0.237656   -0.045227
     56          6           0       12.703583   -0.372685   -0.746053
     57          6           0       13.948495    0.024010    0.170073
     58          6           0       15.360225   -0.168100   -0.529834
     59          6           0       15.825318   -1.641669   -0.767092
     60          6           0       16.406094    0.491227    0.343371
     61          6           0       17.849596    0.460022   -0.228260
     62          6           0       18.806244    1.047414    0.773114
     63          6           0       20.215150    1.358738    0.292544
     64          6           0       20.441729    2.216474   -0.987551
     65          6           0       21.161809    1.842580    1.459013
     66          1           0       -4.159015    3.632857    1.537097
     67          1           0      -10.267823    3.797562   -0.525410
     68          1           0      -10.478233   -2.469525   -0.948067
     69          1           0       -2.811572   -1.219852    1.831689
     70          1           0       -2.296772    1.800100    1.363941
     71          1           0       -2.040228    0.585814    3.569150
     72          1           0       -2.872632    2.388018    3.362886
     73          1           0       -4.081468    0.961546    3.670812
     74          1           0       -1.728288   -1.641294   -0.517341
     75          1           0       -1.898985    0.168765   -0.756605
     76          1           0       -0.221312    0.421894    1.233782
     77          1           0       -0.305054   -1.362448    1.181857
     78          1           0       -5.588319    6.763986    0.402480
     79          1           0       -5.614734    6.276664    2.134421
     80          1           0       -4.352920    5.661090    1.088008
     81          1           0       -9.510233    5.882626   -0.211297
     82          1           0       -9.139352    7.967507    0.598694
     83          1           0       -7.362610    7.542049    1.428770
     84          1           0      -11.938812    3.240559   -2.015792
     85          1           0      -13.145130    1.906928   -1.945778
     86          1           0      -12.720137    3.009430   -0.550806
     87          1           0      -12.364233   -1.711867   -1.010301
     88          1           0      -13.466072   -0.277886   -1.674912
     89          1           0      -13.083342   -1.857197   -3.260250
     90          1           0      -12.760889   -0.339807   -3.834873
     91          1           0      -11.459363   -1.576326   -3.258612
     92          1           0       -9.241673   -4.720043   -1.844034
     93          1           0       -7.860018   -5.660837   -1.173644
     94          1           0       -9.356402   -5.309111    0.107986
     95          1           0       -3.523529   -3.583886   -0.034573
     96          1           0       -1.518539   -4.383818    3.566757
     97          1           0       -2.958874   -5.395167    3.739462
     98          1           0       -1.698556   -5.855202    2.977746
     99          1           0        2.530232   -2.005994   -1.329567
    100          1           0        2.511187   -0.222564   -2.268909
    101          1           0        4.148618   -1.093219    0.261236
    102          1           0        3.982898    0.972890   -2.689170
    103          1           0        5.311871    2.096739   -2.153077
    104          1           0        5.643666    0.689109   -3.126070
    105          1           0        6.673451    1.380243   -0.011900
    106          1           0        6.409980   -0.048648    0.735839
    107          1           0        7.374959   -1.337452   -1.264038
    108          1           0        7.867190    0.333339   -2.026235
    109          1           0        9.165915    0.819741    0.100698
    110          1           0        8.648559   -0.730269    0.815492
    111          1           0       10.188154    0.193854   -1.934399
    112          1           0        9.262381   -2.320257   -1.968707
    113          1           0       11.156735   -2.292082   -1.860581
    114          1           0       10.113122   -2.548476   -0.397412
    115          1           0       11.392302    0.917123    0.092782
    116          1           0       11.457290   -0.817395    0.856292
    117          1           0       12.941441   -1.496062   -1.005346
    118          1           0       12.583643   -0.107025   -1.585747
    119          1           0       14.103383    1.021697    0.453738
    120          1           0       13.949137   -0.488347    1.351009
    121          1           0       15.284550    0.332533   -1.532592
    122          1           0       15.905880   -2.152919    0.192616
    123          1           0       15.006666   -2.206637   -1.294938
    124          1           0       16.977232   -1.796954   -1.411507
    125          1           0       15.955165    1.706909    0.546558
    126          1           0       16.415598    0.011249    1.341332
    127          1           0       18.125236   -0.617813   -0.368114
    128          1           0       17.958113    0.807497   -1.369510
    129          1           0       18.528550    2.124965    1.258472
    130          1           0       19.033304    0.521601    1.829799
    131          1           0       20.575885    0.334541    0.121898
    132          1           0       19.541141    2.974963   -0.788501
    133          1           0       21.402154    2.557951   -0.999917
    134          1           0       20.007878    1.692319   -1.954400
    135          1           0       20.985394    1.142445    2.234053
    136          1           0       22.179406    2.017133    0.931538
    137          1           0       20.733761    2.839793    1.951883
 ---------------------------------------------------------------------

 SCF Done:  E(RCAM-B3LYP) =  -2933.38146540     A.U. after   16 cycles

 Excitation energies and oscillator strengths:

 Excited State   1:      Singlet-A      2.1639 eV  572.95 nm  f=0.2517  <S**2>=0.000
     240 -> 242       -0.10301
     240 -> 243        0.24358
     241 -> 242        0.64996
 This state for optimization and/or second-order correction.
 Total Energy, E(TD-HF/TD-DFT) =  -2933.30194196
 Copying the excited state density for this state as the 1-particle RhoCI density.

 The electronic state is 1-A.
 Alpha  occ. eigenvalues --  -46.81047 -19.23427 -19.23412 -19.17179 -19.16075
 Alpha  occ. eigenvalues --  -19.13752 -14.37514 -14.34877 -14.34801 -14.34701
 Alpha  occ. eigenvalues --  -10.35705 -10.34310 -10.29563 -10.28408 -10.26753
 Alpha  occ. eigenvalues --  -10.25545 -10.25428 -10.25254 -10.25154 -10.25073
 Alpha  occ. eigenvalues --  -10.24215 -10.24143 -10.24137 -10.24102 -10.23950
 Alpha  occ. eigenvalues --  -10.23831 -10.23804 -10.23741 -10.23490 -10.23343
 Alpha  occ. eigenvalues --  -10.23214 -10.23202 -10.23169 -10.23090 -10.23026
 Alpha  occ. eigenvalues --  -10.23012 -10.22966 -10.22900 -10.22743 -10.22653
 Alpha  occ. eigenvalues --  -10.22646 -10.22538 -10.22530 -10.22509 -10.22462
 Alpha  occ. eigenvalues --  -10.22328 -10.22242 -10.22203 -10.22084 -10.21946
 Alpha  occ. eigenvalues --  -10.21921 -10.21839 -10.21815 -10.21535 -10.21532
 Alpha  occ. eigenvalues --  -10.21481 -10.21403 -10.21189 -10.21173 -10.21104
 Alpha  occ. eigenvalues --  -10.21103 -10.21071 -10.20329 -10.20143 -10.19570
 Alpha  occ. eigenvalues --   -3.09418  -1.84379  -1.83895  -1.83792  -1.14880
 Alpha  occ. eigenvalues --   -1.12412  -1.04300  -1.02302  -1.01809  -1.01460
 Alpha  occ. eigenvalues --   -1.00091  -0.99158  -0.98377  -0.87706  -0.87136
 Alpha  occ. eigenvalues --   -0.85664  -0.85261  -0.84794  -0.84711  -0.84121
 Alpha  occ. eigenvalues --   -0.83257  -0.82990  -0.82456  -0.81861  -0.81196
 Alpha  occ. eigenvalues --   -0.80805  -0.80046  -0.79384  -0.78327  -0.78132
 Alpha  occ. eigenvalues --   -0.77673  -0.76745  -0.76399  -0.75527  -0.73420
 Alpha  occ. eigenvalues --   -0.73098  -0.72652  -0.71966  -0.71563  -0.70514
 Alpha  occ. eigenvalues --   -0.70320  -0.69920  -0.69210  -0.68641  -0.67875
 Alpha  occ. eigenvalues --   -0.67679  -0.66534  -0.66230  -0.64439  -0.63928
 Alpha  occ. eigenvalues --   -0.62622  -0.62119  -0.61531  -0.61394  -0.61093
 Alpha  occ. eigenvalues --   -0.60648  -0.59030  -0.58324  -0.58118  -0.57681
 Alpha  occ. eigenvalues --   -0.57146  -0.57020  -0.56331  -0.56043  -0.55011
 Alpha  occ. eigenvalues --   -0.54857  -0.54464  -0.53773  -0.53158  -0.52682
 Alpha  occ. eigenvalues --   -0.52626  -0.52330  -0.51708  -0.51125  -0.51036
 Alpha  occ. eigenvalues --   -0.50912  -0.50875  -0.49812  -0.49346  -0.49190
 Alpha  occ. eigenvalues --   -0.49057  -0.48768  -0.48593  -0.48447  -0.48262
 Alpha  occ. eigenvalues --   -0.48174  -0.47882  -0.47325  -0.47200  -0.47142
 Alpha  occ. eigenvalues --   -0.46799  -0.46645  -0.46528  -0.46146  -0.46029
 Alpha  occ. eigenvalues --   -0.45777  -0.45461  -0.44936  -0.44751  -0.44486
 Alpha  occ. eigenvalues --   -0.44331  -0.44155  -0.44015  -0.43735  -0.43626
 Alpha  occ. eigenvalues --   -0.43300  -0.43228  -0.43056  -0.42877  -0.42270
 Alpha  occ. eigenvalues --   -0.42154  -0.41891  -0.41366  -0.41295  -0.41091
 Alpha  occ. eigenvalues --   -0.40994  -0.40954  -0.40724  -0.40568  -0.40435
 Alpha  occ. eigenvalues --   -0.40374  -0.40262  -0.40095  -0.39965  -0.39722
 Alpha  occ. eigenvalues --   -0.39659  -0.39316  -0.39163  -0.39076  -0.39007
 Alpha  occ. eigenvalues --   -0.38542  -0.38373  -0.38181  -0.38041  -0.37923
 Alpha  occ. eigenvalues --   -0.37660  -0.37513  -0.37328  -0.37047  -0.36878
 Alpha  occ. eigenvalues --   -0.36730  -0.36499  -0.36411  -0.36262  -0.36171
 Alpha  occ. eigenvalues --   -0.35550  -0.35489  -0.35317  -0.35242  -0.35003
 Alpha  occ. eigenvalues --   -0.34319  -0.34197  -0.34125  -0.33688  -0.33642
 Alpha  occ. eigenvalues --   -0.33529  -0.33264  -0.33127  -0.32665  -0.32579
 Alpha  occ. eigenvalues --   -0.32413  -0.32145  -0.31408  -0.30413  -0.30341
 Alpha  occ. eigenvalues --   -0.30250  -0.29939  -0.29646  -0.28053  -0.26870
 Alpha  occ. eigenvalues --   -0.26359  -0.25888  -0.25699  -0.25035  -0.21693
 Alpha  occ. eigenvalues --   -0.19921
 Alpha virt. eigenvalues --   -0.06486  -0.03633   0.00019   0.01675   0.02269
 Alpha virt. eigenvalues --    0.02922   0.03482   0.04801   0.05650   0.05997
 Alpha virt. eigenvalues --    0.06479   0.08196   0.08610   0.08806   0.09601

 Mulliken charges:
               1
     1  Mg   0.819598
     2  C    0.090183
     3  C   -0.210826
     4  C   -0.211161
     5  C   -0.182186
     6  N   -0.645557
     7  C    0.346577
     8  C   -0.155422
     9  C   -0.175392
    10  C    0.364523
    11  C   -0.288912
    12  C   -0.177506
    13  C   -0.260693
    14  C    0.607965
    15  O   -0.495829
    16  O   -0.453014
    17  N   -0.738972
    18  C    0.346802
    19  C    0.061722
    20  C    0.010220
    21  C    0.323757
    22  C   -0.406144
    23  C   -0.052310
    24  C   -0.242705
    25  N   -0.679618
    26  C    0.377042
    27  C   -0.021505
    28  C    0.068689
    29  C    0.271624
    30  C   -0.369712
    31  C   -0.257174
    32  C   -0.327877
    33  N   -0.768529
    34  C    0.282837
    35  C    0.006635
    36  C    0.069814
    37  C    0.325207
    38  C   -0.355141
    39  C    0.291877
    40  O   -0.514925
    41  C   -0.289133
    42  C    0.603731
    43  O   -0.486471
    44  O   -0.412743
    45  C   -0.081444
    46  C    0.008419
    47  C   -0.105507
    48  C    0.127436
    49  C   -0.370515
    50  C   -0.224951
    51  C   -0.161913
    52  C   -0.125366
    53  C   -0.066334
    54  C   -0.309018
    55  C   -0.168062
    56  C   -0.139918
    57  C   -0.163704
    58  C   -0.054186
    59  C   -0.293499
    60  C   -0.144014
    61  C   -0.175643
    62  C   -0.156921
    63  C   -0.059243
    64  C   -0.291384
    65  C   -0.305395
    66  H    0.059499
    67  H    0.074296
    68  H    0.086902
    69  H    0.127979
    70  H    0.118558
    71  H    0.098721
    72  H    0.088115
    73  H    0.140435
    74  H    0.127599
    75  H    0.116333
    76  H    0.119580
    77  H    0.140113
    78  H    0.117423
    79  H    0.145414
    80  H    0.100216
    81  H    0.084680
    82  H    0.099331
    83  H    0.079767
    84  H    0.116267
    85  H    0.105830
    86  H    0.131170
    87  H    0.118131
    88  H    0.101678
    89  H    0.114886
    90  H    0.100824
    91  H    0.122380
    92  H    0.099106
    93  H    0.154711
    94  H    0.083164
    95  H    0.144648
    96  H    0.114063
    97  H    0.141246
    98  H    0.123944
    99  H    0.094990
   100  H    0.113137
   101  H    0.092640
   102  H    0.095072
   103  H    0.114183
   104  H    0.136916
   105  H    0.102790
   106  H    0.091651
   107  H    0.078092
   108  H    0.078847
   109  H    0.097664
   110  H    0.070251
   111  H    0.056659
   112  H    0.088517
   113  H    0.098147
   114  H    0.103958
   115  H    0.076728
   116  H    0.099340
   117  H    0.067387
   118  H    0.089863
   119  H    0.104024
   120  H    0.048242
   121  H    0.089072
   122  H    0.108195
   123  H    0.095421
   124  H    0.061075
   125  H    0.041093
   126  H    0.099789
   127  H    0.106049
   128  H    0.085998
   129  H    0.059796
   130  H    0.074125
   131  H    0.081168
   132  H    0.087867
   133  H    0.110537
   134  H    0.088477
   135  H    0.110408
   136  H    0.097246
   137  H    0.079393
 Sum of Mulliken charges =  -0.00000

 Dipole moment (field-independent basis, Debye):
    X=              2.0524    Y=              4.7713    Z=              0.6887  Tot=              5.2395
 Quadrupole moment (field-independent basis, Debye-Ang):
   XX=           -357.5052   YY=           -403.9748   ZZ=           -396.5196
   XY=            -33.0668   XZ=             13.0341   YZ=             -3.3895

 Normal termination of Gaussian 16 at Fri Sep  6 01:09:58 2019.
