 Gaussian 09, Revision D.01,
 Gaussian 09:  ES64L-G09RevD.01 24-Apr-2013

 -------------------------------------
 # td=(NStates=1) CAM-B3LYP/6-31G(d,p)
 -------------------------------------

 --
 TD
 --
 Symbolic Z-matrix:
 Charge =  0 Multiplicity = 1

                         Standard orientation:
 ---------------------------------------------------------------------
 Center     Atomic      Atomic             Coordinates (Angstroms)
 Number     Number       Type             X           Y           Z
 ---------------------------------------------------------------------
      1         12           0       -7.136978    0.556256    0.132618
      2          6           0       -4.804144   -1.926365    0.510491
      3          6           0       -4.676144    2.854198    1.149505
      4          6           0       -9.366686    3.189453   -0.359840
      5          6           0       -9.573877   -1.749670   -0.763116
      6          7           0       -5.112721    0.419812    0.729037
      7          6           0       -4.337794   -0.760140    0.883292
      8          6           0       -2.865007   -0.391324    1.258349
      9          6           0       -2.967434    1.003548    1.703453
     10          6           0       -4.328503    1.469759    1.171841
     11          6           0       -2.832543    1.173896    3.148668
     12          6           0       -1.953923   -0.597281    0.102855
     13          6           0       -0.542060   -0.425908    0.493696
     14          6           0        0.507582   -0.703852   -0.671636
     15          8           0        0.243096   -0.922974   -1.833329
     16          8           0        1.799542   -0.623292   -0.252333
     17          7           0       -7.086501    2.674292    0.376092
     18          6           0       -5.952724    3.345196    0.721045
     19          6           0       -6.321923    4.750357    0.732635
     20          6           0       -7.606735    4.903566    0.362004
     21          6           0       -8.121546    3.510547    0.034496
     22          6           0       -5.471781    5.900227    1.130129
     23          6           0       -8.432611    6.107063    0.105648
     24          6           0       -8.317639    7.270763    0.756227
     25          7           0       -9.063500    0.676378   -0.502953
     26          6           0       -9.907043    1.852006   -0.649477
     27          6           0      -11.173659    1.467697   -1.106430
     28          6           0      -11.174729    0.135046   -1.119821
     29          6           0       -9.893338   -0.401313   -0.722446
     30          6           0      -12.237297    2.534339   -1.422205
     31          6           0      -12.391884   -0.604211   -1.664020
     32          6           0      -12.337586   -0.974732   -3.172613
     33          7           0       -7.237186   -1.437176   -0.147398
     34          6           0       -8.257184   -2.265630   -0.595652
     35          6           0       -7.789236   -3.648459   -0.620206
     36          6           0       -6.395045   -3.511448   -0.218118
     37          6           0       -6.192163   -2.189467    0.067892
     38          6           0       -8.710961   -4.776094   -1.157044
     39          6           0       -5.290789   -4.311608    0.151986
     40          8           0       -5.164037   -5.540901    0.128515
     41          6           0       -4.160916   -3.362084    0.617165
     42          6           0       -3.595313   -3.702330    2.004580
     43          8           0       -3.931104   -3.151547    3.011511
     44          8           0       -2.829736   -4.825650    1.896897
     45          6           0       -2.357657   -5.224751    3.233535
     46          6           0        2.816611   -0.806819   -1.185258
     47          6           0        4.078411   -0.550136   -0.519802
     48          6           0        5.016336    0.255641   -0.981857
     49          6           0        4.929720    0.963781   -2.301044
     50          6           0        6.386406    0.371495   -0.268796
     51          6           0        7.654505   -0.196925   -1.020187
     52          6           0        8.933936   -0.111774   -0.150717
     53          6           0       10.179577   -0.681188   -0.943926
     54          6           0       10.055021   -2.081372   -1.373623
     55          6           0       11.427670   -0.272617   -0.149075
     56          6           0       12.739816   -0.420170   -0.927589
     57          6           0       13.920715   -0.242347    0.035614
     58          6           0       15.351247   -0.180416   -0.440047
     59          6           0       15.815879   -1.737083   -0.883503
     60          6           0       16.391227    0.484363    0.496034
     61          6           0       17.801459    0.631513   -0.115917
     62          6           0       18.797420    1.336729    0.811013
     63          6           0       20.283869    1.445341    0.367094
     64          6           0       20.395310    2.293158   -0.905642
     65          6           0       21.090476    1.937992    1.352108
     66          1           0       -3.896694    3.487707    1.294442
     67          1           0       -9.869918    4.053699   -0.541723
     68          1           0      -10.316419   -2.362101   -1.263475
     69          1           0       -2.539973   -1.250566    2.160637
     70          1           0       -2.214168    1.551766    1.277962
     71          1           0       -1.718405    1.032936    3.341325
     72          1           0       -3.114257    2.349122    3.562020
     73          1           0       -3.608344    0.344650    3.629417
     74          1           0       -2.057522   -1.564662   -0.427560
     75          1           0       -2.204051    0.099166   -0.771996
     76          1           0       -0.330086    0.904723    0.740581
     77          1           0       -0.199618   -1.018602    1.280774
     78          1           0       -5.741533    6.673149    0.563477
     79          1           0       -5.477535    6.153052    2.238616
     80          1           0       -4.549275    5.730626    0.851037
     81          1           0       -9.273046    6.049516   -0.665885
     82          1           0       -9.124226    7.965546    0.340591
     83          1           0       -7.805326    7.666192    1.630275
     84          1           0      -12.010162    2.779539   -2.520925
     85          1           0      -13.291125    2.128038   -1.229792
     86          1           0      -12.258440    3.325278   -0.585911
     87          1           0      -12.456267   -1.436822   -0.887717
     88          1           0      -13.384981   -0.027812   -1.337075
     89          1           0      -13.206065   -1.500202   -3.418938
     90          1           0      -12.496983   -0.189053   -3.918710
     91          1           0      -11.546870   -1.725338   -3.446237
     92          1           0       -9.130352   -4.463279   -2.039034
     93          1           0       -8.050264   -5.731804   -1.165639
     94          1           0       -9.418979   -4.742985   -0.337306
     95          1           0       -3.309887   -3.396347   -0.130814
     96          1           0       -1.977419   -4.362424    3.751483
     97          1           0       -3.263246   -5.423777    3.856384
     98          1           0       -1.588902   -5.968797    3.089617
     99          1           0        2.620494   -1.758291   -1.484026
    100          1           0        2.399622   -0.096974   -1.935286
    101          1           0        4.452319   -1.070239    0.561841
    102          1           0        3.915276    1.040497   -2.826048
    103          1           0        5.167482    2.044681   -1.872937
    104          1           0        5.754007    0.606255   -3.053245
    105          1           0        6.596551    1.383727   -0.204814
    106          1           0        6.278377   -0.139222    0.655460
    107          1           0        7.261813   -1.165648   -1.583024
    108          1           0        7.869259    0.349910   -1.968538
    109          1           0        9.163103    0.954035    0.189444
    110          1           0        8.796987   -0.655649    0.786058
    111          1           0       10.284304    0.147698   -1.750701
    112          1           0        8.957300   -2.344537   -1.916865
    113          1           0       10.694926   -2.584510   -2.170421
    114          1           0       10.081503   -3.016610   -0.520786
    115          1           0       11.475687    0.825980    0.187215
    116          1           0       11.359716   -0.849750    0.812669
    117          1           0       12.908557   -1.429960   -1.316195
    118          1           0       12.677124    0.303231   -1.701778
    119          1           0       13.887967    0.939501    0.619481
    120          1           0       13.542465   -0.781510    1.085189
    121          1           0       15.524859    0.345170   -1.402158
    122          1           0       15.965671   -2.326966   -0.017325
    123          1           0       15.068442   -2.205203   -1.518868
    124          1           0       16.727412   -1.690260   -1.477645
    125          1           0       16.026402    1.459693    0.750196
    126          1           0       16.210553   -0.388449    1.329466
    127          1           0       18.196843   -0.412551   -0.444829
    128          1           0       17.785775    1.140486   -1.116121
    129          1           0       18.331509    2.453216    0.978455
    130          1           0       18.688873    0.836799    1.561268
    131          1           0       20.280382    0.467735    0.020600
    132          1           0       20.009984    3.284864   -0.541912
    133          1           0       21.491189    2.172786   -1.244789
    134          1           0       19.760200    1.943782   -1.756449
    135          1           0       21.029282    1.347591    2.323716
    136          1           0       22.109847    1.963487    1.027721
    137          1           0       20.867381    3.000806    1.680651
 ---------------------------------------------------------------------

 SCF Done:  E(RCAM-B3LYP) =  -2932.62478865     A.U. after   17 cycles

 Excitation energies and oscillator strengths:

 Excited State   1:      Singlet-A      2.1620 eV  573.46 nm  f=0.2251  <S**2>=0.000
     240 -> 243       -0.23207
     241 -> 242        0.65340
 This state for optimization and/or second-order correction.
 Total Energy, E(TD-HF/TD-KS) =  -2932.54533518
 Copying the excited state density for this state as the 1-particle RhoCI density.

 The electronic state is 1-A.
 Alpha  occ. eigenvalues --  -46.83974 -19.26223 -19.24840 -19.21373 -19.21051
 Alpha  occ. eigenvalues --  -19.18471 -14.41613 -14.39226 -14.39066 -14.38923
 Alpha  occ. eigenvalues --  -10.39404 -10.39122 -10.33488 -10.31827 -10.30942
 Alpha  occ. eigenvalues --  -10.30778 -10.30345 -10.30005 -10.29984 -10.29489
 Alpha  occ. eigenvalues --  -10.29376 -10.28652 -10.28612 -10.28541 -10.28525
 Alpha  occ. eigenvalues --  -10.28477 -10.28477 -10.28416 -10.28254 -10.28188
 Alpha  occ. eigenvalues --  -10.28175 -10.28171 -10.27991 -10.27912 -10.27663
 Alpha  occ. eigenvalues --  -10.27462 -10.27103 -10.26981 -10.26964 -10.26944
 Alpha  occ. eigenvalues --  -10.26934 -10.26891 -10.26702 -10.26453 -10.26362
 Alpha  occ. eigenvalues --  -10.26316 -10.26309 -10.26290 -10.26208 -10.26127
 Alpha  occ. eigenvalues --  -10.26078 -10.25897 -10.25743 -10.25693 -10.25573
 Alpha  occ. eigenvalues --  -10.25443 -10.25265 -10.25228 -10.25197 -10.24135
 Alpha  occ. eigenvalues --  -10.24110 -10.24062 -10.24061 -10.23775 -10.23767
 Alpha  occ. eigenvalues --   -3.12944  -1.87665  -1.87165  -1.87126  -1.18524
 Alpha  occ. eigenvalues --   -1.17791  -1.09707  -1.09446  -1.08454  -1.04314
 Alpha  occ. eigenvalues --   -1.03219  -1.02285  -1.01364  -0.91774  -0.91611
 Alpha  occ. eigenvalues --   -0.91503  -0.91114  -0.90203  -0.89202  -0.88697
 Alpha  occ. eigenvalues --   -0.88295  -0.88002  -0.87586  -0.86673  -0.85970
 Alpha  occ. eigenvalues --   -0.85311  -0.84302  -0.83643  -0.83113  -0.82719
 Alpha  occ. eigenvalues --   -0.81724  -0.80974  -0.80624  -0.80014  -0.78171
 Alpha  occ. eigenvalues --   -0.77528  -0.77279  -0.75943  -0.75679  -0.75474
 Alpha  occ. eigenvalues --   -0.75161  -0.74951  -0.74343  -0.73369  -0.72607
 Alpha  occ. eigenvalues --   -0.71646  -0.70131  -0.69719  -0.68979  -0.67900
 Alpha  occ. eigenvalues --   -0.66935  -0.66508  -0.65319  -0.64593  -0.64124
 Alpha  occ. eigenvalues --   -0.63908  -0.63448  -0.62922  -0.62760  -0.62071
 Alpha  occ. eigenvalues --   -0.61031  -0.60863  -0.59624  -0.59405  -0.58727
 Alpha  occ. eigenvalues --   -0.58564  -0.58087  -0.57696  -0.57207  -0.56787
 Alpha  occ. eigenvalues --   -0.56098  -0.55331  -0.55202  -0.55072  -0.54878
 Alpha  occ. eigenvalues --   -0.54379  -0.54247  -0.53770  -0.53168  -0.53069
 Alpha  occ. eigenvalues --   -0.52448  -0.52319  -0.52177  -0.52136  -0.52009
 Alpha  occ. eigenvalues --   -0.51639  -0.51285  -0.51045  -0.50974  -0.50581
 Alpha  occ. eigenvalues --   -0.50459  -0.50302  -0.50078  -0.49692  -0.49528
 Alpha  occ. eigenvalues --   -0.49399  -0.48876  -0.48861  -0.48447  -0.48299
 Alpha  occ. eigenvalues --   -0.48122  -0.47620  -0.47500  -0.47347  -0.47032
 Alpha  occ. eigenvalues --   -0.46998  -0.46882  -0.46785  -0.46580  -0.46256
 Alpha  occ. eigenvalues --   -0.46082  -0.45698  -0.45482  -0.45157  -0.44992
 Alpha  occ. eigenvalues --   -0.44647  -0.44524  -0.44394  -0.44371  -0.44261
 Alpha  occ. eigenvalues --   -0.43967  -0.43851  -0.43709  -0.43338  -0.43124
 Alpha  occ. eigenvalues --   -0.42883  -0.42560  -0.42375  -0.42210  -0.41827
 Alpha  occ. eigenvalues --   -0.41637  -0.41521  -0.41428  -0.41241  -0.41096
 Alpha  occ. eigenvalues --   -0.40888  -0.40757  -0.40638  -0.40503  -0.40196
 Alpha  occ. eigenvalues --   -0.39890  -0.39732  -0.39648  -0.39299  -0.39198
 Alpha  occ. eigenvalues --   -0.38617  -0.38376  -0.38270  -0.37883  -0.37561
 Alpha  occ. eigenvalues --   -0.37554  -0.37139  -0.36850  -0.36481  -0.36170
 Alpha  occ. eigenvalues --   -0.36015  -0.35902  -0.35871  -0.35396  -0.35245
 Alpha  occ. eigenvalues --   -0.35125  -0.34885  -0.33918  -0.33779  -0.33395
 Alpha  occ. eigenvalues --   -0.32872  -0.32385  -0.32315  -0.31089  -0.30034
 Alpha  occ. eigenvalues --   -0.29082  -0.28815  -0.28256  -0.27757  -0.23398
 Alpha  occ. eigenvalues --   -0.21865
 Alpha virt. eigenvalues --   -0.06510  -0.02804   0.02458   0.04202   0.05463
 Alpha virt. eigenvalues --    0.06417   0.06674   0.06876   0.07132   0.07775
 Alpha virt. eigenvalues --    0.08472   0.10356   0.11082   0.11275   0.11473

 Mulliken charges:
               1
     1  Mg   0.812258
     2  C    0.027478
     3  C   -0.199553
     4  C   -0.147041
     5  C   -0.155655
     6  N   -0.642908
     7  C    0.285146
     8  C   -0.142663
     9  C   -0.119556
    10  C    0.345680
    11  C   -0.272215
    12  C   -0.167108
    13  C   -0.223063
    14  C    0.579101
    15  O   -0.473133
    16  O   -0.481165
    17  N   -0.733374
    18  C    0.361916
    19  C   -0.042634
    20  C    0.045000
    21  C    0.301518
    22  C   -0.348654
    23  C   -0.112193
    24  C   -0.224930
    25  N   -0.701719
    26  C    0.251033
    27  C    0.063771
    28  C   -0.030389
    29  C    0.335099
    30  C   -0.355789
    31  C   -0.241532
    32  C   -0.314928
    33  N   -0.732969
    34  C    0.234217
    35  C   -0.012411
    36  C   -0.014881
    37  C    0.353738
    38  C   -0.351557
    39  C    0.350839
    40  O   -0.488145
    41  C   -0.300801
    42  C    0.625451
    43  O   -0.462922
    44  O   -0.453993
    45  C   -0.096226
    46  C    0.025501
    47  C   -0.131760
    48  C    0.114941
    49  C   -0.346529
    50  C   -0.208831
    51  C   -0.186848
    52  C   -0.176403
    53  C   -0.037031
    54  C   -0.304382
    55  C   -0.191425
    56  C   -0.161447
    57  C   -0.145658
    58  C   -0.074972
    59  C   -0.336657
    60  C   -0.153224
    61  C   -0.207359
    62  C   -0.135495
    63  C   -0.047551
    64  C   -0.299936
    65  C   -0.295688
    66  H    0.077486
    67  H    0.064658
    68  H    0.103510
    69  H    0.092367
    70  H    0.106531
    71  H    0.107206
    72  H    0.078623
    73  H    0.112819
    74  H    0.125538
    75  H    0.120310
    76  H    0.078244
    77  H    0.140393
    78  H    0.127000
    79  H    0.114282
    80  H    0.113177
    81  H    0.110060
    82  H    0.084666
    83  H    0.122779
    84  H    0.131786
    85  H    0.107101
    86  H    0.119560
    87  H    0.099929
    88  H    0.089847
    89  H    0.117106
    90  H    0.116178
    91  H    0.108681
    92  H    0.136201
    93  H    0.144837
    94  H    0.138062
    95  H    0.153569
    96  H    0.130941
    97  H    0.140064
    98  H    0.130918
    99  H    0.124883
   100  H    0.123520
   101  H    0.075261
   102  H    0.113333
   103  H    0.097191
   104  H    0.116472
   105  H    0.105238
   106  H    0.100465
   107  H    0.088980
   108  H    0.090849
   109  H    0.095397
   110  H    0.097776
   111  H    0.083279
   112  H    0.083604
   113  H    0.114053
   114  H    0.077390
   115  H    0.090812
   116  H    0.082932
   117  H    0.104066
   118  H    0.104668
   119  H    0.017251
   120  H    0.081223
   121  H    0.087463
   122  H    0.106422
   123  H    0.100059
   124  H    0.099619
   125  H    0.103056
   126  H    0.076751
   127  H    0.080622
   128  H    0.089223
   129  H    0.045842
   130  H    0.100904
   131  H    0.095920
   132  H    0.097478
   133  H    0.090194
   134  H    0.096331
   135  H    0.091520
   136  H    0.101319
   137  H    0.096822
 Sum of Mulliken charges =   0.00000

 Dipole moment (field-independent basis, Debye):
    X=              1.0073    Y=              5.0630    Z=             -0.1091  Tot=              5.1633
 Quadrupole moment (field-independent basis, Debye-Ang):
   XX=           -330.5489   YY=           -398.4065   ZZ=           -395.8790
   XY=            -32.9450   XZ=             12.1914   YZ=             -1.3130

 Normal termination of Gaussian 09 at Fri Jul  5 07:33:47 2019.
