 Gaussian 09, Revision D.01,
 Gaussian 09:  ES64L-G09RevD.01 24-Apr-2013

 -------------------------------------
 # td=(NStates=1) CAM-B3LYP/6-31G(d,p)
 -------------------------------------

 --
 TD
 --
 Symbolic Z-matrix:
 Charge =  0 Multiplicity = 1

                         Standard orientation:
 ---------------------------------------------------------------------
 Center     Atomic      Atomic             Coordinates (Angstroms)
 Number     Number       Type             X           Y           Z
 ---------------------------------------------------------------------
      1         12           0       -7.133664    0.587664    0.091875
      2          6           0       -4.936034   -1.938489    0.644960
      3          6           0       -4.820054    2.858933    1.024646
      4          6           0       -9.454701    3.142672   -0.407779
      5          6           0       -9.646219   -1.773535   -0.864626
      6          7           0       -5.116820    0.385298    0.795701
      7          6           0       -4.342954   -0.764560    0.937379
      8          6           0       -2.975222   -0.393886    1.235477
      9          6           0       -2.982477    1.116573    1.613184
     10          6           0       -4.369982    1.483089    1.152393
     11          6           0       -2.948666    1.324958    3.158263
     12          6           0       -1.962259   -0.596602    0.002836
     13          6           0       -0.521461   -0.452936    0.550565
     14          6           0        0.528803   -0.658366   -0.573909
     15          8           0        0.347724   -1.001498   -1.690780
     16          8           0        1.816926   -0.377699   -0.100211
     17          7           0       -7.152670    2.605812    0.311726
     18          6           0       -6.060255    3.457875    0.705593
     19          6           0       -6.506106    4.830373    0.686622
     20          6           0       -7.830949    4.868546    0.307043
     21          6           0       -8.248913    3.482136    0.121912
     22          6           0       -5.555843    5.854700    1.068205
     23          6           0       -8.615438    6.054802    0.137093
     24          6           0       -8.461288    7.114595    0.814395
     25          7           0       -9.129273    0.608489   -0.569905
     26          6           0       -9.862588    1.800784   -0.707338
     27          6           0      -11.195478    1.501438   -1.129107
     28          6           0      -11.215345    0.109318   -1.243638
     29          6           0       -9.967820   -0.465396   -0.815379
     30          6           0      -12.270640    2.478802   -1.330722
     31          6           0      -12.396975   -0.684428   -1.854698
     32          6           0      -12.315071   -0.878373   -3.345779
     33          7           0       -7.264835   -1.415827   -0.043788
     34          6           0       -8.395223   -2.272500   -0.523088
     35          6           0       -7.858048   -3.553732   -0.550007
     36          6           0       -6.532171   -3.610218   -0.023794
     37          6           0       -6.251479   -2.205148    0.258575
     38          6           0       -8.585182   -4.891805   -0.746365
     39          6           0       -5.346470   -4.326938    0.228902
     40          8           0       -5.116727   -5.570195    0.150322
     41          6           0       -4.188539   -3.343352    0.539466
     42          6           0       -3.540938   -3.706983    1.935427
     43          8           0       -3.879905   -3.143617    2.933063
     44          8           0       -2.652876   -4.635596    1.702654
     45          6           0       -2.161815   -5.171509    2.952489
     46          6           0        2.828771   -0.705654   -1.093819
     47          6           0        4.157817   -0.474336   -0.490036
     48          6           0        5.129680    0.225313   -0.990662
     49          6           0        5.128279    1.047671   -2.262633
     50          6           0        6.512370    0.173961   -0.162056
     51          6           0        7.661482   -0.421683   -0.926411
     52          6           0        8.979598   -0.296430   -0.156399
     53          6           0       10.239653   -0.706665   -0.888091
     54          6           0       10.117780   -2.079971   -1.425790
     55          6           0       11.577753   -0.302327   -0.013571
     56          6           0       12.770232   -0.578473   -0.732531
     57          6           0       13.996745   -0.189299    0.181061
     58          6           0       15.366541   -0.125263   -0.575534
     59          6           0       15.807613   -1.479617   -1.188499
     60          6           0       16.507964    0.356109    0.392721
     61          6           0       17.843431    0.858450   -0.326285
     62          6           0       18.771291    1.359165    0.776993
     63          6           0       20.213160    1.432911    0.362458
     64          6           0       20.475466    2.354815   -0.885064
     65          6           0       21.100473    1.961851    1.436690
     66          1           0       -4.072953    3.707608    1.410338
     67          1           0      -10.277526    3.841935   -0.510841
     68          1           0      -10.521316   -2.353897   -1.218729
     69          1           0       -2.543907   -1.075043    1.919920
     70          1           0       -1.970328    1.735455    1.171181
     71          1           0       -2.050934    1.084267    3.575030
     72          1           0       -3.175602    2.418156    3.394699
     73          1           0       -3.816182    0.767821    3.796435
     74          1           0       -1.941313   -1.454792   -0.438159
     75          1           0       -2.105215    0.200631   -0.741520
     76          1           0       -0.339543    0.453955    0.980668
     77          1           0       -0.222857   -1.235569    1.278396
     78          1           0       -5.936616    6.857074    0.603841
     79          1           0       -5.643871    5.949763    2.258181
     80          1           0       -4.456905    5.732874    0.830403
     81          1           0       -9.527661    5.990710   -0.661709
     82          1           0       -9.074003    7.887853    0.582901
     83          1           0       -7.625621    7.043016    1.483317
     84          1           0      -12.081027    2.932256   -2.329905
     85          1           0      -13.429228    1.995866   -1.271774
     86          1           0      -12.169925    3.594482   -0.694883
     87          1           0      -12.448248   -1.693743   -1.619543
     88          1           0      -13.176822   -0.087258   -1.512327
     89          1           0      -13.126492   -1.358655   -3.830638
     90          1           0      -12.489097    0.107396   -3.952740
     91          1           0      -11.336054   -1.365149   -3.670227
     92          1           0       -9.267100   -4.682425   -1.630441
     93          1           0       -8.095027   -5.729390   -0.796772
     94          1           0       -9.264121   -5.014002    0.171091
     95          1           0       -3.498735   -3.552086   -0.131391
     96          1           0       -1.594603   -4.415869    3.586975
     97          1           0       -3.098254   -5.562838    3.643687
     98          1           0       -1.757701   -6.152509    2.593965
     99          1           0        2.808418   -1.747671   -1.314581
    100          1           0        2.651252   -0.141218   -2.019717
    101          1           0        4.257504   -1.031698    0.514504
    102          1           0        4.096469    0.856573   -2.709282
    103          1           0        5.533688    2.054343   -2.236055
    104          1           0        5.938251    0.564825   -2.967861
    105          1           0        6.716165    1.457706    0.179270
    106          1           0        6.404221   -0.227383    0.904439
    107          1           0        7.268466   -1.449925   -1.159820
    108          1           0        7.639697    0.091452   -1.712994
    109          1           0        9.012639    0.779852   -0.057724
    110          1           0        8.872048   -0.879227    0.852626
    111          1           0       10.360969    0.106011   -1.738870
    112          1           0        9.255177   -2.320435   -1.989968
    113          1           0       11.039452   -2.374315   -2.120671
    114          1           0       10.184934   -2.576372   -0.484027
    115          1           0       11.415323    0.632403    0.380195
    116          1           0       11.626797   -1.114161    0.878515
    117          1           0       12.796409   -1.745101   -0.975187
    118          1           0       12.994496   -0.117633   -1.655512
    119          1           0       13.946278    0.809343    0.592749
    120          1           0       13.943693   -0.991027    0.850105
    121          1           0       15.235215    0.594056   -1.473666
    122          1           0       15.771771   -2.272035   -0.456833
    123          1           0       15.212898   -1.897502   -2.072838
    124          1           0       16.725051   -1.392855   -1.592075
    125          1           0       16.095438    1.415494    0.849586
    126          1           0       16.664541   -0.242420    1.274519
    127          1           0       18.342043    0.047246   -0.634217
    128          1           0       17.703495    1.484293   -1.188039
    129          1           0       18.478404    2.361789    1.259150
    130          1           0       18.689243    0.719475    1.534237
    131          1           0       20.700364    0.378132    0.254634
    132          1           0       20.141848    3.446778   -0.512365
    133          1           0       21.572419    2.188755   -1.254576
    134          1           0       19.928749    1.898703   -1.833462
    135          1           0       20.931877    1.487473    2.377425
    136          1           0       22.132772    1.894316    1.026071
    137          1           0       20.820570    2.966354    1.693449
 ---------------------------------------------------------------------

 SCF Done:  E(RCAM-B3LYP) =  -2932.66076396     A.U. after   18 cycles

 Excitation energies and oscillator strengths:

 Excited State   1:      Singlet-A      2.1214 eV  584.45 nm  f=0.1784  <S**2>=0.000
     240 -> 242       -0.14473
     240 -> 243        0.27073
     241 -> 242        0.62519
 This state for optimization and/or second-order correction.
 Total Energy, E(TD-HF/TD-KS) =  -2932.58280423
 Copying the excited state density for this state as the 1-particle RhoCI density.

 The electronic state is 1-A.
 Alpha  occ. eigenvalues --  -46.83802 -19.27852 -19.25387 -19.21949 -19.20968
 Alpha  occ. eigenvalues --  -19.17793 -14.42116 -14.39482 -14.39193 -14.38839
 Alpha  occ. eigenvalues --  -10.39371 -10.38797 -10.33339 -10.33327 -10.32870
 Alpha  occ. eigenvalues --  -10.30996 -10.30794 -10.30587 -10.30046 -10.29818
 Alpha  occ. eigenvalues --  -10.29553 -10.29376 -10.29180 -10.28519 -10.28362
 Alpha  occ. eigenvalues --  -10.28348 -10.28218 -10.28096 -10.27854 -10.27768
 Alpha  occ. eigenvalues --  -10.27758 -10.27700 -10.27699 -10.27632 -10.27537
 Alpha  occ. eigenvalues --  -10.27418 -10.27380 -10.27122 -10.26941 -10.26839
 Alpha  occ. eigenvalues --  -10.26584 -10.26536 -10.26412 -10.26374 -10.26332
 Alpha  occ. eigenvalues --  -10.26321 -10.26284 -10.25994 -10.25767 -10.25596
 Alpha  occ. eigenvalues --  -10.25564 -10.25482 -10.25481 -10.25403 -10.24978
 Alpha  occ. eigenvalues --  -10.24804 -10.24684 -10.24484 -10.24272 -10.24075
 Alpha  occ. eigenvalues --  -10.24042 -10.24005 -10.23962 -10.23369 -10.23304
 Alpha  occ. eigenvalues --   -3.12786  -1.87500  -1.87013  -1.86967  -1.20212
 Alpha  occ. eigenvalues --   -1.18022  -1.10932  -1.09598  -1.06477  -1.04179
 Alpha  occ. eigenvalues --   -1.02268  -1.01698  -1.00888  -0.91521  -0.91286
 Alpha  occ. eigenvalues --   -0.91013  -0.90517  -0.90281  -0.89830  -0.89000
 Alpha  occ. eigenvalues --   -0.88161  -0.88157  -0.87597  -0.87020  -0.86044
 Alpha  occ. eigenvalues --   -0.85674  -0.85007  -0.83690  -0.83494  -0.83207
 Alpha  occ. eigenvalues --   -0.81778  -0.81546  -0.80798  -0.80343  -0.78333
 Alpha  occ. eigenvalues --   -0.78088  -0.76848  -0.75724  -0.75595  -0.75383
 Alpha  occ. eigenvalues --   -0.74942  -0.74418  -0.74110  -0.73450  -0.72626
 Alpha  occ. eigenvalues --   -0.71867  -0.71413  -0.69639  -0.68771  -0.68317
 Alpha  occ. eigenvalues --   -0.66890  -0.66387  -0.65637  -0.65149  -0.64702
 Alpha  occ. eigenvalues --   -0.63662  -0.63010  -0.62949  -0.62318  -0.61761
 Alpha  occ. eigenvalues --   -0.61114  -0.60961  -0.60409  -0.59799  -0.59265
 Alpha  occ. eigenvalues --   -0.58717  -0.57793  -0.57612  -0.57364  -0.56839
 Alpha  occ. eigenvalues --   -0.56149  -0.55732  -0.55639  -0.55594  -0.54856
 Alpha  occ. eigenvalues --   -0.54761  -0.54613  -0.54227  -0.54114  -0.53665
 Alpha  occ. eigenvalues --   -0.52991  -0.52949  -0.52579  -0.52330  -0.52124
 Alpha  occ. eigenvalues --   -0.51364  -0.51213  -0.51106  -0.50692  -0.50598
 Alpha  occ. eigenvalues --   -0.50325  -0.50276  -0.50106  -0.49989  -0.49517
 Alpha  occ. eigenvalues --   -0.49502  -0.49133  -0.48635  -0.48428  -0.48339
 Alpha  occ. eigenvalues --   -0.47987  -0.47776  -0.47675  -0.47398  -0.47153
 Alpha  occ. eigenvalues --   -0.47039  -0.46628  -0.46505  -0.46351  -0.46078
 Alpha  occ. eigenvalues --   -0.45841  -0.45556  -0.45373  -0.45013  -0.44799
 Alpha  occ. eigenvalues --   -0.44760  -0.44589  -0.44478  -0.44195  -0.44090
 Alpha  occ. eigenvalues --   -0.43836  -0.43756  -0.43488  -0.43391  -0.43267
 Alpha  occ. eigenvalues --   -0.43092  -0.43008  -0.42772  -0.42472  -0.42300
 Alpha  occ. eigenvalues --   -0.42109  -0.41947  -0.41738  -0.41690  -0.41260
 Alpha  occ. eigenvalues --   -0.41208  -0.40734  -0.40461  -0.40345  -0.40094
 Alpha  occ. eigenvalues --   -0.40000  -0.39705  -0.39629  -0.39336  -0.38876
 Alpha  occ. eigenvalues --   -0.38491  -0.38299  -0.38001  -0.37813  -0.37589
 Alpha  occ. eigenvalues --   -0.37489  -0.37365  -0.37295  -0.37041  -0.37022
 Alpha  occ. eigenvalues --   -0.36608  -0.36450  -0.36445  -0.36300  -0.36002
 Alpha  occ. eigenvalues --   -0.35658  -0.35219  -0.35105  -0.34271  -0.33151
 Alpha  occ. eigenvalues --   -0.32947  -0.32446  -0.32158  -0.30872  -0.30282
 Alpha  occ. eigenvalues --   -0.28573  -0.28481  -0.27979  -0.27102  -0.23270
 Alpha  occ. eigenvalues --   -0.21852
 Alpha virt. eigenvalues --   -0.06623  -0.03489   0.01430   0.04366   0.06013
 Alpha virt. eigenvalues --    0.06466   0.07099   0.07348   0.07498   0.07617
 Alpha virt. eigenvalues --    0.08220   0.09930   0.10890   0.11688   0.11823

 Mulliken charges:
               1
     1  Mg   0.809301
     2  C    0.038923
     3  C   -0.232072
     4  C   -0.159651
     5  C   -0.142976
     6  N   -0.643119
     7  C    0.350644
     8  C   -0.156586
     9  C   -0.147557
    10  C    0.360277
    11  C   -0.306069
    12  C   -0.165411
    13  C   -0.270246
    14  C    0.588577
    15  O   -0.442009
    16  O   -0.506266
    17  N   -0.719721
    18  C    0.321256
    19  C    0.058335
    20  C    0.015265
    21  C    0.322724
    22  C   -0.401833
    23  C   -0.058836
    24  C   -0.225368
    25  N   -0.715685
    26  C    0.287223
    27  C    0.079979
    28  C   -0.044153
    29  C    0.317635
    30  C   -0.385872
    31  C   -0.211772
    32  C   -0.311854
    33  N   -0.745075
    34  C    0.268320
    35  C   -0.045678
    36  C    0.068699
    37  C    0.313544
    38  C   -0.335699
    39  C    0.315143
    40  O   -0.520988
    41  C   -0.284096
    42  C    0.617414
    43  O   -0.463495
    44  O   -0.416061
    45  C   -0.108012
    46  C    0.015135
    47  C   -0.131307
    48  C    0.124612
    49  C   -0.358955
    50  C   -0.212088
    51  C   -0.149603
    52  C   -0.163856
    53  C   -0.068247
    54  C   -0.300617
    55  C   -0.148643
    56  C   -0.178154
    57  C   -0.167584
    58  C   -0.071674
    59  C   -0.312506
    60  C   -0.185079
    61  C   -0.178789
    62  C   -0.153982
    63  C   -0.075146
    64  C   -0.286581
    65  C   -0.293400
    66  H    0.066145
    67  H    0.080220
    68  H    0.107841
    69  H    0.120909
    70  H    0.098487
    71  H    0.121578
    72  H    0.104735
    73  H    0.114240
    74  H    0.129602
    75  H    0.118438
    76  H    0.137150
    77  H    0.135035
    78  H    0.114522
    79  H    0.117462
    80  H    0.125484
    81  H    0.078780
    82  H    0.102389
    83  H    0.102854
    84  H    0.136567
    85  H    0.103130
    86  H    0.088674
    87  H    0.110645
    88  H    0.102107
    89  H    0.113146
    90  H    0.083604
    91  H    0.106909
    92  H    0.097224
    93  H    0.149265
    94  H    0.119047
    95  H    0.147314
    96  H    0.139149
    97  H    0.119762
    98  H    0.138993
    99  H    0.127656
   100  H    0.116644
   101  H    0.092849
   102  H    0.106561
   103  H    0.133962
   104  H    0.105240
   105  H    0.021551
   106  H    0.093589
   107  H    0.094053
   108  H    0.103796
   109  H    0.097456
   110  H    0.075692
   111  H    0.053707
   112  H    0.116935
   113  H    0.083434
   114  H    0.105896
   115  H    0.102211
   116  H    0.060565
   117  H    0.082099
   118  H    0.093988
   119  H    0.093029
   120  H    0.098388
   121  H    0.072585
   122  H    0.099046
   123  H    0.083890
   124  H    0.111030
   125  H    0.056710
   126  H    0.101307
   127  H    0.110392
   128  H    0.102652
   129  H    0.070662
   130  H    0.102200
   131  H    0.070171
   132  H    0.096023
   133  H    0.092767
   134  H    0.085956
   135  H    0.094981
   136  H    0.096306
   137  H    0.091980
 Sum of Mulliken charges =   0.00000

 Dipole moment (field-independent basis, Debye):
    X=              1.4627    Y=              5.1170    Z=              0.6094  Tot=              5.3568
 Quadrupole moment (field-independent basis, Debye-Ang):
   XX=           -347.7398   YY=           -392.9603   ZZ=           -395.9655
   XY=            -38.2205   XZ=             11.8572   YZ=             -4.0514

 Normal termination of Gaussian 09 at Tue Jul  2 12:54:04 2019.
