 Gaussian 16, Revision A.03,
 Gaussian 16:  ES64L-G16RevA.03 25-Dec-2016

 ----------------------------------------------------------------------
 # td=(NStates=1) iop(3/107=0140000000,3/108=0140000000) CAM-B3LYP/6-31
 G(d,p)
 ----------------------------------------------------------------------

 --
 TD
 --
 Symbolic Z-matrix:
 Charge =  0 Multiplicity = 1

                         Standard orientation:
 ---------------------------------------------------------------------
 Center     Atomic      Atomic             Coordinates (Angstroms)
 Number     Number       Type             X           Y           Z
 ---------------------------------------------------------------------
      1         12           0       -7.195297    0.666530    0.124440
      2          6           0       -4.953715   -1.964001    0.450761
      3          6           0       -4.912097    2.824051    1.247232
      4          6           0       -9.508568    3.154100   -0.453338
      5          6           0       -9.504042   -1.710144   -0.876054
      6          7           0       -5.174145    0.406940    0.750395
      7          6           0       -4.415130   -0.759092    0.681667
      8          6           0       -2.940689   -0.304733    1.070625
      9          6           0       -2.999018    1.049905    1.690488
     10          6           0       -4.486951    1.429195    1.246522
     11          6           0       -2.947381    1.042955    3.246383
     12          6           0       -1.949799   -0.527302   -0.125071
     13          6           0       -0.484465   -0.296169    0.401802
     14          6           0        0.568026   -0.661095   -0.643260
     15          8           0        0.366674   -1.010963   -1.726991
     16          8           0        1.758735   -0.476513   -0.107811
     17          7           0       -7.182502    2.532611    0.368520
     18          6           0       -6.060117    3.365716    0.828540
     19          6           0       -6.388367    4.759992    0.796510
     20          6           0       -7.733581    4.829571    0.340629
     21          6           0       -8.123621    3.488438    0.058966
     22          6           0       -5.467532    5.816220    1.208498
     23          6           0       -8.444536    6.057279    0.053906
     24          6           0       -8.376891    7.268719    0.804066
     25          7           0       -9.156729    0.707402   -0.686015
     26          6           0       -9.941934    1.847568   -0.776890
     27          6           0      -11.327701    1.444821   -1.127851
     28          6           0      -11.276774    0.171152   -1.402517
     29          6           0       -9.920335   -0.323781   -0.966191
     30          6           0      -12.387257    2.406281   -1.334396
     31          6           0      -12.447041   -0.770226   -1.731801
     32          6           0      -12.352019   -1.379136   -3.088838
     33          7           0       -7.280106   -1.410474   -0.101926
     34          6           0       -8.297817   -2.261668   -0.442258
     35          6           0       -7.930003   -3.611874   -0.407143
     36          6           0       -6.571543   -3.587699    0.025910
     37          6           0       -6.270204   -2.139161    0.070746
     38          6           0       -8.697946   -4.851457   -0.614581
     39          6           0       -5.415064   -4.404955    0.219462
     40          8           0       -5.245895   -5.638928    0.157378
     41          6           0       -4.222188   -3.344167    0.528346
     42          6           0       -3.610453   -3.693314    1.828524
     43          8           0       -3.707545   -3.073730    2.878094
     44          8           0       -2.766170   -4.712602    1.697486
     45          6           0       -2.200562   -5.255260    3.007076
     46          6           0        2.857556   -0.686885   -1.106457
     47          6           0        4.216682   -0.298024   -0.499525
     48          6           0        5.189405    0.496676   -1.018337
     49          6           0        5.114479    1.315464   -2.145168
     50          6           0        6.529807    0.532712   -0.297405
     51          6           0        7.667290   -0.041385   -1.026279
     52          6           0        8.926201   -0.001256   -0.021351
     53          6           0       10.211425   -0.468650   -0.833144
     54          6           0       10.156946   -1.950708   -1.429586
     55          6           0       11.399767   -0.349231    0.019230
     56          6           0       12.879616   -0.575094   -0.728258
     57          6           0       14.035178   -0.277447    0.158825
     58          6           0       15.427920   -0.153478   -0.527402
     59          6           0       15.825493   -1.523588   -1.037872
     60          6           0       16.505773    0.473530    0.398892
     61          6           0       17.950452    0.533128   -0.182486
     62          6           0       18.866403    1.230222    0.750761
     63          6           0       20.355384    1.234546    0.320028
     64          6           0       20.465569    1.893887   -0.994959
     65          6           0       21.149990    1.887384    1.427636
     66          1           0       -4.037875    3.373780    1.715143
     67          1           0      -10.314991    3.901322   -0.578171
     68          1           0      -10.241538   -2.482629   -1.233305
     69          1           0       -2.639428   -1.036455    1.790060
     70          1           0       -2.369355    1.827675    1.156018
     71          1           0       -1.706338    1.001236    3.307595
     72          1           0       -3.382300    2.139582    3.476403
     73          1           0       -3.696372    0.463830    3.875769
     74          1           0       -1.952630   -1.493506   -0.486965
     75          1           0       -2.201707    0.139223   -1.061070
     76          1           0       -0.357665    0.729961    0.953295
     77          1           0       -0.373542   -1.201113    1.068223
     78          1           0       -5.558750    6.573643    0.520478
     79          1           0       -5.333848    6.209640    2.196416
     80          1           0       -4.393487    5.483331    0.865099
     81          1           0       -9.289895    6.184678   -0.750685
     82          1           0       -8.931842    8.115279    0.382989
     83          1           0       -7.734823    7.511523    1.690062
     84          1           0      -12.332581    2.981307   -2.378058
     85          1           0      -13.567172    1.936451   -1.184367
     86          1           0      -12.241423    3.309971   -0.455371
     87          1           0      -12.337178   -1.587402   -1.234253
     88          1           0      -13.314150   -0.139979   -1.431410
     89          1           0      -13.225428   -1.878031   -3.430767
     90          1           0      -12.126555   -0.371834   -3.837924
     91          1           0      -11.424123   -1.941458   -3.012605
     92          1           0       -9.098677   -4.842141   -1.729373
     93          1           0       -8.031235   -5.489028   -0.429730
     94          1           0       -9.600908   -5.006729    0.034327
     95          1           0       -3.645827   -3.545073   -0.328862
     96          1           0       -1.546585   -4.392094    3.387866
     97          1           0       -3.031347   -5.631132    3.631866
     98          1           0       -1.534826   -5.974743    2.559268
     99          1           0        3.016042   -1.703120   -1.418238
    100          1           0        2.582357   -0.210062   -2.103487
    101          1           0        4.489158   -0.768044    0.493399
    102          1           0        4.060080    1.195927   -2.511669
    103          1           0        5.169363    2.425568   -2.069770
    104          1           0        5.757223    1.043913   -2.829964
    105          1           0        6.786143    1.471518   -0.096524
    106          1           0        6.276818   -0.045382    0.605121
    107          1           0        7.269512   -1.162954   -1.361036
    108          1           0        7.853408    0.674139   -1.774034
    109          1           0        9.130985    1.028272    0.177107
    110          1           0        8.746152   -0.652821    0.932768
    111          1           0       10.247415    0.131265   -1.735311
    112          1           0        9.351459   -1.979300   -2.071361
    113          1           0       11.155974   -2.371138   -1.950412
    114          1           0       10.012953   -2.761745   -0.472661
    115          1           0       11.372576    0.655867    0.277086
    116          1           0       11.392388   -1.119723    0.908650
    117          1           0       13.071481   -1.666444   -0.974142
    118          1           0       12.956140    0.042335   -1.552010
    119          1           0       13.585669    0.721129    0.605694
    120          1           0       14.287063   -0.972818    0.917116
    121          1           0       15.433530    0.614734   -1.312893
    122          1           0       16.184112   -2.389340   -0.162380
    123          1           0       15.069024   -1.815411   -1.662078
    124          1           0       16.682656   -1.719096   -1.776651
    125          1           0       16.217981    1.399672    0.854781
    126          1           0       16.487351   -0.105130    1.310865
    127          1           0       18.514758   -0.419413   -0.287094
    128          1           0       17.768741    1.252625   -1.055434
    129          1           0       18.432536    2.274427    0.661543
    130          1           0       18.689187    0.758446    1.890662
    131          1           0       20.564561    0.224052    0.234644
    132          1           0       19.843848    2.924422   -0.931948
    133          1           0       21.616319    2.402586   -1.372601
    134          1           0       20.150424    1.067486   -1.807851
    135          1           0       21.029695    1.175479    2.192932
    136          1           0       22.092799    2.261857    1.124423
    137          1           0       20.473932    2.600140    1.797785
 ---------------------------------------------------------------------

 SCF Done:  E(RCAM-B3LYP) =  -2933.41910595     A.U. after   16 cycles

 Excitation energies and oscillator strengths:

 Excited State   1:      Singlet-A      1.8669 eV  664.12 nm  f=0.2974  <S**2>=0.000
     240 -> 243       -0.17551
     241 -> 242        0.68325
 This state for optimization and/or second-order correction.
 Total Energy, E(TD-HF/TD-DFT) =  -2933.35049836
 Copying the excited state density for this state as the 1-particle RhoCI density.

 The electronic state is 1-A.
 Alpha  occ. eigenvalues --  -46.79992 -19.22109 -19.21056 -19.16523 -19.15846
 Alpha  occ. eigenvalues --  -19.15316 -14.37775 -14.35698 -14.35364 -14.35327
 Alpha  occ. eigenvalues --  -10.33591 -10.33503 -10.30325 -10.28233 -10.27724
 Alpha  occ. eigenvalues --  -10.26701 -10.26362 -10.25775 -10.25513 -10.25209
 Alpha  occ. eigenvalues --  -10.25129 -10.24988 -10.24605 -10.24599 -10.24317
 Alpha  occ. eigenvalues --  -10.24268 -10.23957 -10.23829 -10.23574 -10.23518
 Alpha  occ. eigenvalues --  -10.23389 -10.23388 -10.23355 -10.23093 -10.23031
 Alpha  occ. eigenvalues --  -10.23022 -10.22746 -10.22540 -10.22426 -10.22412
 Alpha  occ. eigenvalues --  -10.22399 -10.22366 -10.22342 -10.22158 -10.21798
 Alpha  occ. eigenvalues --  -10.21757 -10.21705 -10.21661 -10.21609 -10.21506
 Alpha  occ. eigenvalues --  -10.21411 -10.21398 -10.21383 -10.21208 -10.20976
 Alpha  occ. eigenvalues --  -10.20966 -10.20957 -10.20623 -10.20572 -10.20411
 Alpha  occ. eigenvalues --  -10.20397 -10.20031 -10.19875 -10.19539 -10.18273
 Alpha  occ. eigenvalues --   -3.08755  -1.83672  -1.83227  -1.83191  -1.14829
 Alpha  occ. eigenvalues --   -1.11762  -1.05988  -1.04014  -1.02253  -1.01533
 Alpha  occ. eigenvalues --   -0.98769  -0.98519  -0.96538  -0.87386  -0.87255
 Alpha  occ. eigenvalues --   -0.85924  -0.84764  -0.84680  -0.84491  -0.84040
 Alpha  occ. eigenvalues --   -0.83713  -0.83518  -0.82835  -0.82052  -0.80937
 Alpha  occ. eigenvalues --   -0.80128  -0.79224  -0.79065  -0.78651  -0.77528
 Alpha  occ. eigenvalues --   -0.77089  -0.76191  -0.75855  -0.75473  -0.73681
 Alpha  occ. eigenvalues --   -0.73189  -0.71989  -0.71722  -0.71289  -0.71188
 Alpha  occ. eigenvalues --   -0.70458  -0.69777  -0.69504  -0.68445  -0.68347
 Alpha  occ. eigenvalues --   -0.66410  -0.65596  -0.64534  -0.64197  -0.63862
 Alpha  occ. eigenvalues --   -0.62617  -0.61514  -0.60738  -0.60333  -0.60183
 Alpha  occ. eigenvalues --   -0.59640  -0.58652  -0.58521  -0.58017  -0.57762
 Alpha  occ. eigenvalues --   -0.57351  -0.56440  -0.55993  -0.55395  -0.55057
 Alpha  occ. eigenvalues --   -0.54605  -0.54538  -0.54019  -0.53582  -0.52657
 Alpha  occ. eigenvalues --   -0.52513  -0.51985  -0.51387  -0.51071  -0.51043
 Alpha  occ. eigenvalues --   -0.50642  -0.50387  -0.50371  -0.49965  -0.49505
 Alpha  occ. eigenvalues --   -0.49077  -0.48929  -0.48609  -0.48510  -0.48019
 Alpha  occ. eigenvalues --   -0.47885  -0.47534  -0.47080  -0.46966  -0.46886
 Alpha  occ. eigenvalues --   -0.46810  -0.46508  -0.46263  -0.46011  -0.45905
 Alpha  occ. eigenvalues --   -0.45551  -0.45483  -0.45342  -0.45248  -0.44805
 Alpha  occ. eigenvalues --   -0.44645  -0.44608  -0.44314  -0.43984  -0.43878
 Alpha  occ. eigenvalues --   -0.43497  -0.43340  -0.42717  -0.42658  -0.42522
 Alpha  occ. eigenvalues --   -0.42400  -0.41930  -0.41791  -0.41649  -0.41245
 Alpha  occ. eigenvalues --   -0.41126  -0.41069  -0.40852  -0.40795  -0.40622
 Alpha  occ. eigenvalues --   -0.40400  -0.40261  -0.40172  -0.40053  -0.39788
 Alpha  occ. eigenvalues --   -0.39587  -0.39424  -0.39329  -0.39307  -0.38969
 Alpha  occ. eigenvalues --   -0.38840  -0.38288  -0.38231  -0.38155  -0.37841
 Alpha  occ. eigenvalues --   -0.37688  -0.37434  -0.37387  -0.37155  -0.36782
 Alpha  occ. eigenvalues --   -0.36519  -0.36448  -0.36276  -0.36184  -0.35636
 Alpha  occ. eigenvalues --   -0.35579  -0.35398  -0.35049  -0.34933  -0.34465
 Alpha  occ. eigenvalues --   -0.33945  -0.33736  -0.33707  -0.33617  -0.33419
 Alpha  occ. eigenvalues --   -0.33401  -0.33235  -0.32528  -0.32449  -0.32442
 Alpha  occ. eigenvalues --   -0.32096  -0.31875  -0.31107  -0.30700  -0.30408
 Alpha  occ. eigenvalues --   -0.30175  -0.30045  -0.29334  -0.28547  -0.27342
 Alpha  occ. eigenvalues --   -0.26856  -0.26823  -0.26430  -0.24967  -0.22237
 Alpha  occ. eigenvalues --   -0.19124
 Alpha virt. eigenvalues --   -0.07396  -0.03498  -0.00741   0.01678   0.03899
 Alpha virt. eigenvalues --    0.04053   0.04805   0.05125   0.05296   0.06174
 Alpha virt. eigenvalues --    0.07008   0.08445   0.08957   0.09347   0.09789

 Mulliken charges:
               1
     1  Mg   0.836766
     2  C    0.077916
     3  C   -0.217747
     4  C   -0.184010
     5  C   -0.200952
     6  N   -0.619865
     7  C    0.265558
     8  C   -0.133855
     9  C   -0.142037
    10  C    0.288462
    11  C   -0.285409
    12  C   -0.172508
    13  C   -0.273847
    14  C    0.603696
    15  O   -0.444594
    16  O   -0.459144
    17  N   -0.747788
    18  C    0.324854
    19  C    0.059585
    20  C    0.038786
    21  C    0.299452
    22  C   -0.391413
    23  C   -0.127892
    24  C   -0.237381
    25  N   -0.668475
    26  C    0.289368
    27  C    0.070846
    28  C    0.018861
    29  C    0.305923
    30  C   -0.374423
    31  C   -0.207620
    32  C   -0.293479
    33  N   -0.699061
    34  C    0.279043
    35  C    0.024725
    36  C    0.019184
    37  C    0.327167
    38  C   -0.348517
    39  C    0.311211
    40  O   -0.482866
    41  C   -0.310458
    42  C    0.634861
    43  O   -0.498014
    44  O   -0.461815
    45  C   -0.088837
    46  C   -0.017834
    47  C   -0.154630
    48  C    0.143862
    49  C   -0.373638
    50  C   -0.214294
    51  C   -0.169231
    52  C   -0.173724
    53  C   -0.064209
    54  C   -0.292758
    55  C   -0.154645
    56  C   -0.187074
    57  C   -0.159915
    58  C   -0.064843
    59  C   -0.298568
    60  C   -0.182857
    61  C   -0.164337
    62  C   -0.171813
    63  C   -0.050740
    64  C   -0.269769
    65  C   -0.299686
    66  H    0.080164
    67  H    0.082367
    68  H    0.072496
    69  H    0.120747
    70  H    0.112291
    71  H    0.097064
    72  H    0.084870
    73  H    0.150017
    74  H    0.123026
    75  H    0.095998
    76  H    0.119296
    77  H    0.133807
    78  H    0.135777
    79  H    0.134891
    80  H    0.092775
    81  H    0.096558
    82  H    0.101166
    83  H    0.105426
    84  H    0.122749
    85  H    0.090203
    86  H    0.087296
    87  H    0.118403
    88  H    0.088032
    89  H    0.115756
    90  H    0.063639
    91  H    0.111530
    92  H    0.105136
    93  H    0.149579
    94  H    0.122537
    95  H    0.167621
    96  H    0.133650
    97  H    0.151596
    98  H    0.138586
    99  H    0.140517
   100  H    0.128716
   101  H    0.085204
   102  H    0.095800
   103  H    0.117453
   104  H    0.131934
   105  H    0.100129
   106  H    0.084454
   107  H    0.081503
   108  H    0.099846
   109  H    0.102231
   110  H    0.093057
   111  H    0.085245
   112  H    0.109204
   113  H    0.092759
   114  H    0.057013
   115  H    0.086546
   116  H    0.083462
   117  H    0.090602
   118  H    0.098231
   119  H    0.062683
   120  H    0.096934
   121  H    0.080499
   122  H    0.065244
   123  H    0.115252
   124  H    0.096053
   125  H    0.089572
   126  H    0.078707
   127  H    0.089961
   128  H    0.094325
   129  H    0.079385
   130  H    0.056152
   131  H    0.093442
   132  H    0.083155
   133  H    0.052474
   134  H    0.096389
   135  H    0.103722
   136  H    0.103276
   137  H    0.110264
 Sum of Mulliken charges =  -0.00000

 Dipole moment (field-independent basis, Debye):
    X=              1.5082    Y=              4.3825    Z=              0.2516  Tot=              4.6416
 Quadrupole moment (field-independent basis, Debye-Ang):
   XX=           -370.2528   YY=           -393.5089   ZZ=           -400.0409
   XY=            -17.4641   XZ=              2.2209   YZ=             -5.4694

 Normal termination of Gaussian 16 at Sun Sep 22 14:41:32 2019.
