 Gaussian 09, Revision D.01,
 Gaussian 09:  ES64L-G09RevD.01 24-Apr-2013

 -------------------------------------
 # td=(NStates=1) CAM-B3LYP/6-31G(d,p)
 -------------------------------------

 --
 TD
 --
 Symbolic Z-matrix:
 Charge =  0 Multiplicity = 1

                         Standard orientation:
 ---------------------------------------------------------------------
 Center     Atomic      Atomic             Coordinates (Angstroms)
 Number     Number       Type             X           Y           Z
 ---------------------------------------------------------------------
      1         12           0       -7.045725    0.622882   -0.005343
      2          6           0       -4.867140   -1.910119    0.557035
      3          6           0       -4.880010    2.805737    1.185541
      4          6           0       -9.471223    3.034303   -0.440159
      5          6           0       -9.560534   -1.773906   -0.743119
      6          7           0       -5.020276    0.446407    0.636409
      7          6           0       -4.372156   -0.672731    0.828325
      8          6           0       -2.896977   -0.446033    1.247012
      9          6           0       -3.025623    1.136095    1.618373
     10          6           0       -4.450123    1.576368    1.037048
     11          6           0       -2.952653    1.453674    3.181026
     12          6           0       -1.978096   -0.509130    0.061367
     13          6           0       -0.484583   -0.339461    0.531698
     14          6           0        0.515759   -0.512198   -0.518019
     15          8           0        0.288905   -0.867701   -1.716541
     16          8           0        1.803516   -0.356068   -0.110919
     17          7           0       -7.078742    2.601407    0.173608
     18          6           0       -6.093936    3.405078    0.699269
     19          6           0       -6.450322    4.805945    0.861606
     20          6           0       -7.719035    4.848730    0.343835
     21          6           0       -8.192563    3.455450   -0.024190
     22          6           0       -5.482751    5.911114    1.236044
     23          6           0       -8.562850    5.890584    0.126434
     24          6           0       -8.528131    7.177009    0.701154
     25          7           0       -9.129336    0.618736   -0.581733
     26          6           0       -9.865251    1.771834   -0.593297
     27          6           0      -11.215467    1.401527   -1.133258
     28          6           0      -11.261069    0.114178   -1.334798
     29          6           0       -9.929090   -0.353720   -0.916966
     30          6           0      -12.367892    2.488670   -1.386771
     31          6           0      -12.413911   -0.727987   -1.800834
     32          6           0      -12.281246   -1.317557   -3.225285
     33          7           0       -7.217827   -1.414009   -0.307983
     34          6           0       -8.326921   -2.316903   -0.533714
     35          6           0       -7.809241   -3.670797   -0.446851
     36          6           0       -6.449550   -3.533063   -0.106019
     37          6           0       -6.171770   -2.145681    0.071591
     38          6           0       -8.601572   -4.850407   -0.704085
     39          6           0       -5.217955   -4.304236    0.211214
     40          8           0       -5.105500   -5.537141    0.218423
     41          6           0       -4.170505   -3.302632    0.626162
     42          6           0       -3.543857   -3.750397    1.976862
     43          8           0       -3.670212   -3.074595    2.964985
     44          8           0       -2.650722   -4.724287    1.792790
     45          6           0       -2.250360   -5.321396    2.984213
     46          6           0        2.784275   -0.700986   -1.218148
     47          6           0        4.150608   -0.463924   -0.528090
     48          6           0        5.077664    0.365364   -0.954609
     49          6           0        5.187096    1.126066   -2.253215
     50          6           0        6.378423    0.494166   -0.166194
     51          6           0        7.583739   -0.253581   -0.979447
     52          6           0        8.911768   -0.088770   -0.121519
     53          6           0       10.189198   -0.591215   -0.912012
     54          6           0       10.001957   -2.126637   -1.289792
     55          6           0       11.438292   -0.303737   -0.058212
     56          6           0       12.806496   -0.579117   -0.768868
     57          6           0       13.974218   -0.206080    0.150117
     58          6           0       15.353522   -0.310767   -0.533322
     59          6           0       15.784547   -1.728919   -0.817523
     60          6           0       16.422876    0.304571    0.393714
     61          6           0       17.844632    0.632254   -0.151726
     62          6           0       18.735905    1.348230    0.854586
     63          6           0       20.312339    1.475154    0.251913
     64          6           0       20.297442    2.120147   -1.084387
     65          6           0       21.143575    2.103595    1.263721
     66          1           0       -4.275192    3.647376    1.777253
     67          1           0      -10.086137    3.920303   -0.690889
     68          1           0      -10.280895   -2.437375   -1.092983
     69          1           0       -2.416447   -0.876249    2.184797
     70          1           0       -2.267856    1.776502    1.155549
     71          1           0       -1.843223    1.455891    3.600037
     72          1           0       -3.293618    2.546320    3.508806
     73          1           0       -3.564202    0.733643    3.860489
     74          1           0       -1.982536   -1.565192   -0.156904
     75          1           0       -2.432769    0.295084   -0.625017
     76          1           0       -0.474521    0.840346    0.854700
     77          1           0       -0.342858   -0.937357    1.417228
     78          1           0       -5.732263    6.875098    0.683365
     79          1           0       -5.441301    5.929274    2.419342
     80          1           0       -4.635718    5.486865    1.116327
     81          1           0       -9.386951    5.565288   -0.473656
     82          1           0       -9.263452    8.039497    0.414904
     83          1           0       -7.767565    7.601424    1.462493
     84          1           0      -12.019648    3.059348   -2.241219
     85          1           0      -13.384991    2.176446   -1.364151
     86          1           0      -12.262148    2.938752   -0.364392
     87          1           0      -12.745190   -1.570452   -1.004666
     88          1           0      -13.339682   -0.273314   -1.705805
     89          1           0      -13.122350   -1.790487   -3.778725
     90          1           0      -11.812659   -0.573905   -3.854554
     91          1           0      -11.312865   -1.863054   -3.160232
     92          1           0       -9.261962   -4.969768   -1.639372
     93          1           0       -7.884426   -5.811741   -1.021803
     94          1           0       -9.167961   -5.095094    0.216596
     95          1           0       -3.308774   -3.333151   -0.219595
     96          1           0       -1.513357   -4.679049    3.561544
     97          1           0       -3.216752   -5.573723    3.601965
     98          1           0       -1.716513   -6.243900    2.671862
     99          1           0        2.617489   -1.768930   -1.430861
    100          1           0        2.763789   -0.160640   -1.927948
    101          1           0        4.019930   -0.901543    0.457543
    102          1           0        4.092538    1.237181   -2.587413
    103          1           0        5.532731    2.098497   -2.122495
    104          1           0        5.903913    0.553572   -3.072127
    105          1           0        6.789132    1.481688   -0.052245
    106          1           0        6.247089   -0.030388    0.738341
    107          1           0        7.238813   -1.368653   -1.204792
    108          1           0        7.796330    0.114907   -2.071299
    109          1           0        9.192285    0.820867    0.521365
    110          1           0        8.868083   -1.001172    0.799974
    111          1           0       10.076043    0.128558   -1.841890
    112          1           0        9.144480   -2.291284   -1.928920
    113          1           0       11.005960   -2.285730   -1.760681
    114          1           0        9.909444   -2.391174   -0.247100
    115          1           0       11.550210    0.678807    0.254919
    116          1           0       11.436485   -1.021968    0.945049
    117          1           0       12.596962   -1.601192   -1.071628
    118          1           0       12.871203   -0.058541   -1.810093
    119          1           0       13.700348    0.757023    0.067103
    120          1           0       13.980867   -0.949790    0.969703
    121          1           0       15.401725    0.219207   -1.390498
    122          1           0       15.695439   -2.599832   -0.056593
    123          1           0       15.082274   -1.992439   -1.467900
    124          1           0       16.828589   -1.590020   -1.248846
    125          1           0       15.772993    1.022726    0.996378
    126          1           0       16.429346   -0.325685    1.147230
    127          1           0       18.382685   -0.275648   -0.408965
    128          1           0       17.580411    1.287236   -1.036171
    129          1           0       18.213279    2.286566    0.843729
    130          1           0       18.974180    0.772989    1.805093
    131          1           0       20.638339    0.326711   -0.007487
    132          1           0       19.910911    3.190760   -1.017157
    133          1           0       21.229986    2.399416   -1.474401
    134          1           0       19.826803    1.607078   -2.087283
    135          1           0       21.024954    1.771311    2.210748
    136          1           0       22.233093    1.829786    0.901827
    137          1           0       21.041939    3.169529    1.451989
 ---------------------------------------------------------------------

 SCF Done:  E(RCAM-B3LYP) =  -2932.55895412     A.U. after   18 cycles

 Excitation energies and oscillator strengths:

 Excited State   1:      Singlet-A      2.0099 eV  616.87 nm  f=0.3339  <S**2>=0.000
     240 -> 243       -0.21401
     241 -> 242        0.66221
 This state for optimization and/or second-order correction.
 Total Energy, E(TD-HF/TD-KS) =  -2932.48509166
 Copying the excited state density for this state as the 1-particle RhoCI density.

 The electronic state is 1-A.
 Alpha  occ. eigenvalues --  -46.85258 -19.27246 -19.26078 -19.21728 -19.20366
 Alpha  occ. eigenvalues --  -19.19865 -14.41461 -14.40164 -14.39940 -14.39254
 Alpha  occ. eigenvalues --  -10.40015 -10.39138 -10.35270 -10.32456 -10.31054
 Alpha  occ. eigenvalues --  -10.30054 -10.30051 -10.29941 -10.29940 -10.29721
 Alpha  occ. eigenvalues --  -10.29673 -10.29415 -10.29326 -10.29185 -10.29022
 Alpha  occ. eigenvalues --  -10.28426 -10.28381 -10.28145 -10.27891 -10.27857
 Alpha  occ. eigenvalues --  -10.27843 -10.27798 -10.27715 -10.27492 -10.27329
 Alpha  occ. eigenvalues --  -10.27319 -10.27268 -10.27217 -10.27165 -10.27164
 Alpha  occ. eigenvalues --  -10.26942 -10.26867 -10.26804 -10.26660 -10.26535
 Alpha  occ. eigenvalues --  -10.26348 -10.26327 -10.26325 -10.26232 -10.26070
 Alpha  occ. eigenvalues --  -10.25900 -10.25658 -10.25580 -10.25390 -10.25340
 Alpha  occ. eigenvalues --  -10.25338 -10.25305 -10.25249 -10.25013 -10.24995
 Alpha  occ. eigenvalues --  -10.24499 -10.24202 -10.23918 -10.23229 -10.22692
 Alpha  occ. eigenvalues --   -3.14170  -1.88887  -1.88417  -1.88332  -1.20293
 Alpha  occ. eigenvalues --   -1.15990  -1.10968  -1.09982  -1.05649  -1.05509
 Alpha  occ. eigenvalues --   -1.04933  -1.02905  -1.02004  -0.92572  -0.91060
 Alpha  occ. eigenvalues --   -0.90835  -0.90171  -0.89753  -0.89218  -0.89009
 Alpha  occ. eigenvalues --   -0.88532  -0.88218  -0.87847  -0.87400  -0.85252
 Alpha  occ. eigenvalues --   -0.85010  -0.84293  -0.83830  -0.82673  -0.82569
 Alpha  occ. eigenvalues --   -0.81732  -0.81467  -0.80461  -0.79595  -0.77992
 Alpha  occ. eigenvalues --   -0.77569  -0.77238  -0.76509  -0.76349  -0.75664
 Alpha  occ. eigenvalues --   -0.75503  -0.75315  -0.74605  -0.72956  -0.72426
 Alpha  occ. eigenvalues --   -0.71518  -0.70370  -0.69904  -0.68679  -0.68416
 Alpha  occ. eigenvalues --   -0.67068  -0.66211  -0.65557  -0.65201  -0.64190
 Alpha  occ. eigenvalues --   -0.64049  -0.63540  -0.63496  -0.62737  -0.62446
 Alpha  occ. eigenvalues --   -0.61099  -0.60715  -0.60572  -0.59867  -0.59077
 Alpha  occ. eigenvalues --   -0.58990  -0.57866  -0.57591  -0.57332  -0.57032
 Alpha  occ. eigenvalues --   -0.56669  -0.56304  -0.55756  -0.55515  -0.55000
 Alpha  occ. eigenvalues --   -0.54817  -0.54402  -0.54360  -0.53446  -0.53350
 Alpha  occ. eigenvalues --   -0.52810  -0.52654  -0.51884  -0.51721  -0.51448
 Alpha  occ. eigenvalues --   -0.51251  -0.51043  -0.50977  -0.50855  -0.50668
 Alpha  occ. eigenvalues --   -0.50360  -0.50199  -0.50021  -0.49960  -0.49718
 Alpha  occ. eigenvalues --   -0.49587  -0.48931  -0.48922  -0.48572  -0.48404
 Alpha  occ. eigenvalues --   -0.48290  -0.48058  -0.47740  -0.47672  -0.47089
 Alpha  occ. eigenvalues --   -0.46915  -0.46729  -0.46647  -0.46185  -0.46117
 Alpha  occ. eigenvalues --   -0.46009  -0.45640  -0.45262  -0.45187  -0.44817
 Alpha  occ. eigenvalues --   -0.44548  -0.44539  -0.44399  -0.44269  -0.44039
 Alpha  occ. eigenvalues --   -0.43661  -0.43579  -0.43372  -0.43236  -0.43058
 Alpha  occ. eigenvalues --   -0.42500  -0.42244  -0.42086  -0.42007  -0.41963
 Alpha  occ. eigenvalues --   -0.41894  -0.41706  -0.41580  -0.41477  -0.41422
 Alpha  occ. eigenvalues --   -0.41204  -0.41090  -0.40776  -0.40528  -0.40361
 Alpha  occ. eigenvalues --   -0.40280  -0.39779  -0.39516  -0.39253  -0.38772
 Alpha  occ. eigenvalues --   -0.38737  -0.38239  -0.38056  -0.37812  -0.37245
 Alpha  occ. eigenvalues --   -0.37088  -0.36742  -0.36736  -0.36619  -0.36348
 Alpha  occ. eigenvalues --   -0.36248  -0.36079  -0.36030  -0.35553  -0.34743
 Alpha  occ. eigenvalues --   -0.34535  -0.34252  -0.34239  -0.33317  -0.32850
 Alpha  occ. eigenvalues --   -0.32640  -0.32600  -0.32015  -0.31598  -0.30286
 Alpha  occ. eigenvalues --   -0.30063  -0.30032  -0.29161  -0.26653  -0.23570
 Alpha  occ. eigenvalues --   -0.21005
 Alpha virt. eigenvalues --   -0.06838  -0.03084   0.01397   0.03436   0.04950
 Alpha virt. eigenvalues --    0.05094   0.05837   0.06175   0.06224   0.07583
 Alpha virt. eigenvalues --    0.08393   0.10481   0.11260   0.11329   0.11473

 Mulliken charges:
               1
     1  Mg   0.817081
     2  C    0.062516
     3  C   -0.192929
     4  C   -0.154091
     5  C   -0.173156
     6  N   -0.659857
     7  C    0.320873
     8  C   -0.176980
     9  C   -0.157434
    10  C    0.353018
    11  C   -0.312551
    12  C   -0.134352
    13  C   -0.277797
    14  C    0.627189
    15  O   -0.508941
    16  O   -0.501331
    17  N   -0.715967
    18  C    0.278276
    19  C    0.030351
    20  C    0.041994
    21  C    0.246996
    22  C   -0.340481
    23  C   -0.099952
    24  C   -0.273413
    25  N   -0.639216
    26  C    0.286059
    27  C   -0.029743
    28  C    0.040681
    29  C    0.254007
    30  C   -0.349785
    31  C   -0.226951
    32  C   -0.324344
    33  N   -0.741384
    34  C    0.273515
    35  C    0.049219
    36  C   -0.002870
    37  C    0.352065
    38  C   -0.405003
    39  C    0.377660
    40  O   -0.474738
    41  C   -0.319449
    42  C    0.618728
    43  O   -0.449760
    44  O   -0.416630
    45  C   -0.086294
    46  C    0.064823
    47  C   -0.159246
    48  C    0.111507
    49  C   -0.346527
    50  C   -0.213700
    51  C   -0.187485
    52  C   -0.155090
    53  C   -0.086960
    54  C   -0.291927
    55  C   -0.165369
    56  C   -0.218642
    57  C   -0.157034
    58  C   -0.079559
    59  C   -0.301379
    60  C   -0.178702
    61  C   -0.183938
    62  C   -0.172000
    63  C   -0.046625
    64  C   -0.301925
    65  C   -0.299161
    66  H    0.077949
    67  H    0.104821
    68  H    0.091267
    69  H    0.127258
    70  H    0.098751
    71  H    0.086510
    72  H    0.093376
    73  H    0.118062
    74  H    0.117211
    75  H    0.121082
    76  H    0.121592
    77  H    0.146229
    78  H    0.129945
    79  H    0.104855
    80  H    0.128701
    81  H    0.080745
    82  H    0.098394
    83  H    0.106641
    84  H    0.131912
    85  H    0.122023
    86  H    0.121926
    87  H    0.077884
    88  H    0.109137
    89  H    0.114547
    90  H    0.115008
    91  H    0.102680
    92  H    0.126161
    93  H    0.124835
    94  H    0.140823
    95  H    0.163508
    96  H    0.119101
    97  H    0.122578
    98  H    0.127612
    99  H    0.130179
   100  H    0.108397
   101  H    0.103447
   102  H    0.099734
   103  H    0.131089
   104  H    0.109086
   105  H    0.104862
   106  H    0.110564
   107  H    0.096936
   108  H    0.083708
   109  H    0.097878
   110  H    0.033435
   111  H    0.066621
   112  H    0.112232
   113  H    0.105688
   114  H    0.112143
   115  H    0.098415
   116  H    0.063443
   117  H    0.090370
   118  H    0.076481
   119  H    0.113203
   120  H    0.105086
   121  H    0.083377
   122  H    0.083362
   123  H    0.111064
   124  H    0.093770
   125  H    0.061036
   126  H    0.095535
   127  H    0.097323
   128  H    0.094856
   129  H    0.102211
   130  H    0.090391
   131  H    0.063052
   132  H    0.085305
   133  H    0.104825
   134  H    0.087582
   135  H    0.113506
   136  H    0.085035
   137  H    0.105763
 Sum of Mulliken charges =   0.00000

 Dipole moment (field-independent basis, Debye):
    X=              0.7656    Y=              3.5076    Z=              0.6543  Tot=              3.6494
 Quadrupole moment (field-independent basis, Debye-Ang):
   XX=           -340.9045   YY=           -392.9321   ZZ=           -397.7471
   XY=             -4.5496   XZ=             10.5160   YZ=             -4.0822

 Normal termination of Gaussian 09 at Tue Jul  2 19:33:57 2019.
