 Gaussian 16, Revision A.03,
 Gaussian 16:  ES64L-G16RevA.03 25-Dec-2016

 ----------------------------------------------------------------------
 # td=(NStates=1) iop(3/107=0140000000,3/108=0140000000) CAM-B3LYP/6-31
 G(d,p)
 ----------------------------------------------------------------------

 --
 TD
 --
 Symbolic Z-matrix:
 Charge =  0 Multiplicity = 1

                         Standard orientation:
 ---------------------------------------------------------------------
 Center     Atomic      Atomic             Coordinates (Angstroms)
 Number     Number       Type             X           Y           Z
 ---------------------------------------------------------------------
      1         12           0       -7.203028    0.545185    0.190701
      2          6           0       -4.919938   -1.903863    0.547484
      3          6           0       -4.775814    2.855704    1.146925
      4          6           0       -9.456550    3.047103   -0.420722
      5          6           0       -9.546027   -1.745384   -0.775201
      6          7           0       -5.127148    0.484660    0.715668
      7          6           0       -4.362813   -0.735143    0.849205
      8          6           0       -2.895602   -0.494985    1.230905
      9          6           0       -3.085065    1.046409    1.661002
     10          6           0       -4.386622    1.500619    1.017847
     11          6           0       -2.985894    1.213910    3.193858
     12          6           0       -1.924621   -0.599939    0.086116
     13          6           0       -0.450559   -0.497781    0.565044
     14          6           0        0.504197   -0.642577   -0.564737
     15          8           0        0.248473   -1.075567   -1.643485
     16          8           0        1.823613   -0.325298   -0.179368
     17          7           0       -7.185232    2.611997    0.487085
     18          6           0       -6.064124    3.382817    0.860206
     19          6           0       -6.363547    4.792502    0.804501
     20          6           0       -7.661747    4.839589    0.369761
     21          6           0       -8.189393    3.445192    0.134202
     22          6           0       -5.540422    5.921373    1.044585
     23          6           0       -8.522936    5.976190    0.173835
     24          6           0       -8.515027    7.183116    0.829075
     25          7           0       -9.053254    0.620612   -0.549731
     26          6           0       -9.775521    1.837037   -0.726046
     27          6           0      -11.204908    1.486857   -1.202296
     28          6           0      -11.200631    0.124681   -1.372065
     29          6           0       -9.882322   -0.353752   -0.863061
     30          6           0      -12.291527    2.463032   -1.466994
     31          6           0      -12.344753   -0.656680   -1.733597
     32          6           0      -12.294201   -1.122172   -3.287781
     33          7           0       -7.160121   -1.383097   -0.120411
     34          6           0       -8.272659   -2.182788   -0.428202
     35          6           0       -7.867737   -3.562281   -0.380604
     36          6           0       -6.524500   -3.603582    0.007198
     37          6           0       -6.187724   -2.208745    0.220768
     38          6           0       -8.705362   -4.801459   -0.835347
     39          6           0       -5.309776   -4.335531    0.192760
     40          8           0       -5.283480   -5.522960    0.133916
     41          6           0       -4.199678   -3.324116    0.590957
     42          6           0       -3.401494   -3.734905    1.861485
     43          8           0       -3.495442   -3.269296    2.971993
     44          8           0       -2.791576   -4.872921    1.573977
     45          6           0       -1.934230   -5.358559    2.712861
     46          6           0        2.821358   -0.589537   -1.183769
     47          6           0        4.154992   -0.259010   -0.563699
     48          6           0        5.148568    0.440818   -1.003421
     49          6           0        5.131515    1.208014   -2.299288
     50          6           0        6.509792    0.443228   -0.319897
     51          6           0        7.666168   -0.130955   -0.966061
     52          6           0        8.829653   -0.143191   -0.059121
     53          6           0       10.168574   -0.528361   -0.929159
     54          6           0       10.185951   -2.045438   -1.371816
     55          6           0       11.421531   -0.260825   -0.102700
     56          6           0       12.771531   -0.591757   -0.716773
     57          6           0       13.870605   -0.043445    0.097139
     58          6           0       15.248332   -0.122974   -0.551465
     59          6           0       15.717405   -1.601753   -0.928370
     60          6           0       16.321849    0.409184    0.397722
     61          6           0       17.745630    0.464989   -0.200778
     62          6           0       18.682621    1.255510    0.798182
     63          6           0       20.196652    1.323344    0.270660
     64          6           0       20.371068    2.279785   -0.944449
     65          6           0       21.118759    1.894153    1.435780
     66          1           0       -3.928539    3.596215    1.387088
     67          1           0      -10.069436    3.953568   -0.536707
     68          1           0      -10.228427   -2.305319   -0.916034
     69          1           0       -2.662166   -1.189501    2.064182
     70          1           0       -2.099491    1.553525    1.196944
     71          1           0       -1.889930    0.681275    3.353519
     72          1           0       -3.175933    2.276766    3.642027
     73          1           0       -3.873463    0.518281    3.736824
     74          1           0       -1.913539   -1.394923   -0.397926
     75          1           0       -1.991435    0.202089   -0.669383
     76          1           0       -0.385992    0.500844    1.107012
     77          1           0       -0.336126   -1.147934    1.426902
     78          1           0       -5.536212    6.882709    0.179451
     79          1           0       -5.630502    6.126817    2.154289
     80          1           0       -4.347553    5.630730    0.966006
     81          1           0       -9.609740    5.682403   -0.221077
     82          1           0       -9.116604    8.010373    0.661579
     83          1           0       -7.538274    7.191327    1.531938
     84          1           0      -12.113000    2.909706   -2.607745
     85          1           0      -13.268711    1.898017   -1.369750
     86          1           0      -12.233966    3.337238   -0.546467
     87          1           0      -12.508022   -1.512149   -1.068175
     88          1           0      -13.374926   -0.138402   -1.702226
     89          1           0      -13.125965   -1.696832   -3.660574
     90          1           0      -12.357792   -0.039084   -3.842954
     91          1           0      -11.228977   -1.347582   -3.575724
     92          1           0       -9.210039   -4.782856   -1.790980
     93          1           0       -8.039983   -5.621668   -0.915680
     94          1           0       -9.375667   -5.104572    0.141354
     95          1           0       -3.377334   -3.441324   -0.188445
     96          1           0       -1.443805   -4.479086    3.115648
     97          1           0       -2.681168   -5.384174    3.621173
     98          1           0       -1.306594   -6.081870    2.467333
     99          1           0        2.789701   -1.803715   -1.319673
    100          1           0        2.506953   -0.003975   -2.133361
    101          1           0        4.224840   -0.936317    0.222704
    102          1           0        4.218393    1.376166   -2.964103
    103          1           0        5.322755    2.269624   -2.093161
    104          1           0        5.639617    0.692708   -3.015746
    105          1           0        6.711393    1.620068    0.143144
    106          1           0        6.295977   -0.140812    0.661804
    107          1           0        7.324780   -1.006130   -1.135594
    108          1           0        8.013753    0.292974   -1.973462
    109          1           0        9.049869    0.795535    0.379003
    110          1           0        8.771602   -1.079813    0.616153
    111          1           0       10.300389   -0.010539   -1.923553
    112          1           0        9.323248   -2.354960   -1.922153
    113          1           0       11.177213   -2.276755   -1.895977
    114          1           0       10.092032   -2.591806   -0.512532
    115          1           0       11.257243    0.761476   -0.052410
    116          1           0       11.316358   -0.580017    0.827066
    117          1           0       12.727531   -1.705051   -0.840850
    118          1           0       12.933156   -0.125477   -1.702552
    119          1           0       13.734528    0.978031    0.362370
    120          1           0       13.813001   -0.757091    1.059731
    121          1           0       15.189161    0.303415   -1.566506
    122          1           0       15.391532   -2.220826    0.038643
    123          1           0       15.155190   -2.036432   -1.801369
    124          1           0       16.742555   -1.502903   -1.143434
    125          1           0       16.102147    1.350985    0.755744
    126          1           0       16.455848   -0.348542    1.297746
    127          1           0       18.044302   -0.661278   -0.153140
    128          1           0       17.923813    0.955998   -1.071567
    129          1           0       18.162366    2.186757    0.894047
    130          1           0       18.579119    0.990382    1.881649
    131          1           0       20.594256    0.300280    0.052756
    132          1           0       19.956776    3.386415   -0.551264
    133          1           0       21.359941    2.324373   -1.415654
    134          1           0       19.572779    1.869636   -1.669103
    135          1           0       21.177630    1.208694    2.268894
    136          1           0       22.236920    1.947869    1.032521
    137          1           0       20.636407    2.971356    1.330945
 ---------------------------------------------------------------------

 SCF Done:  E(RCAM-B3LYP) =  -2933.41022796     A.U. after   16 cycles

 Excitation energies and oscillator strengths:

 Excited State   1:      Singlet-A      1.8881 eV  656.66 nm  f=0.3304  <S**2>=0.000
     240 -> 243        0.17277
     241 -> 242        0.68509
 This state for optimization and/or second-order correction.
 Total Energy, E(TD-HF/TD-DFT) =  -2933.34084179
 Copying the excited state density for this state as the 1-particle RhoCI density.

 The electronic state is 1-A.
 Alpha  occ. eigenvalues --  -46.79355 -19.22743 -19.20847 -19.17810 -19.17089
 Alpha  occ. eigenvalues --  -19.15400 -14.37800 -14.35755 -14.35575 -14.34897
 Alpha  occ. eigenvalues --  -10.34858 -10.34789 -10.29686 -10.28373 -10.27126
 Alpha  occ. eigenvalues --  -10.25949 -10.25775 -10.25612 -10.25305 -10.25247
 Alpha  occ. eigenvalues --  -10.25138 -10.24862 -10.24851 -10.24833 -10.24760
 Alpha  occ. eigenvalues --  -10.24687 -10.24415 -10.23818 -10.23615 -10.23505
 Alpha  occ. eigenvalues --  -10.23386 -10.23319 -10.23186 -10.22886 -10.22739
 Alpha  occ. eigenvalues --  -10.22688 -10.22631 -10.22581 -10.22561 -10.22521
 Alpha  occ. eigenvalues --  -10.22175 -10.22168 -10.22124 -10.22121 -10.21939
 Alpha  occ. eigenvalues --  -10.21923 -10.21836 -10.21806 -10.21728 -10.21488
 Alpha  occ. eigenvalues --  -10.21330 -10.21010 -10.20842 -10.20788 -10.20774
 Alpha  occ. eigenvalues --  -10.20713 -10.20709 -10.20648 -10.20511 -10.20478
 Alpha  occ. eigenvalues --  -10.20459 -10.20389 -10.19846 -10.19225 -10.18242
 Alpha  occ. eigenvalues --   -3.08175  -1.83101  -1.82655  -1.82589  -1.13781
 Alpha  occ. eigenvalues --   -1.12513  -1.07238  -1.04784  -1.04590  -0.99598
 Alpha  occ. eigenvalues --   -0.98545  -0.98090  -0.97002  -0.87627  -0.87120
 Alpha  occ. eigenvalues --   -0.85747  -0.85599  -0.84680  -0.84119  -0.84090
 Alpha  occ. eigenvalues --   -0.83712  -0.82692  -0.82225  -0.81826  -0.81306
 Alpha  occ. eigenvalues --   -0.80192  -0.79164  -0.78873  -0.78348  -0.77240
 Alpha  occ. eigenvalues --   -0.77095  -0.76345  -0.75591  -0.75079  -0.73322
 Alpha  occ. eigenvalues --   -0.72386  -0.72046  -0.71513  -0.71292  -0.70950
 Alpha  occ. eigenvalues --   -0.70251  -0.69268  -0.69159  -0.68787  -0.68137
 Alpha  occ. eigenvalues --   -0.66560  -0.66044  -0.65155  -0.64599  -0.63915
 Alpha  occ. eigenvalues --   -0.62494  -0.62081  -0.61424  -0.60768  -0.60451
 Alpha  occ. eigenvalues --   -0.60318  -0.59052  -0.58667  -0.58216  -0.58057
 Alpha  occ. eigenvalues --   -0.57330  -0.56809  -0.55854  -0.55513  -0.55161
 Alpha  occ. eigenvalues --   -0.54930  -0.54153  -0.53372  -0.53125  -0.52676
 Alpha  occ. eigenvalues --   -0.52158  -0.51829  -0.51620  -0.51518  -0.50992
 Alpha  occ. eigenvalues --   -0.50883  -0.50528  -0.50455  -0.50322  -0.49500
 Alpha  occ. eigenvalues --   -0.49264  -0.49234  -0.48711  -0.48589  -0.48151
 Alpha  occ. eigenvalues --   -0.48121  -0.47822  -0.47642  -0.47340  -0.47238
 Alpha  occ. eigenvalues --   -0.47162  -0.46874  -0.46630  -0.46453  -0.45911
 Alpha  occ. eigenvalues --   -0.45801  -0.45516  -0.45403  -0.45219  -0.44616
 Alpha  occ. eigenvalues --   -0.44346  -0.44299  -0.44174  -0.43987  -0.43690
 Alpha  occ. eigenvalues --   -0.43322  -0.43028  -0.42679  -0.42589  -0.42416
 Alpha  occ. eigenvalues --   -0.42324  -0.41949  -0.41682  -0.41633  -0.41380
 Alpha  occ. eigenvalues --   -0.41227  -0.41054  -0.40999  -0.40923  -0.40687
 Alpha  occ. eigenvalues --   -0.40421  -0.40338  -0.39988  -0.39541  -0.39376
 Alpha  occ. eigenvalues --   -0.39144  -0.39000  -0.38961  -0.38860  -0.38606
 Alpha  occ. eigenvalues --   -0.38553  -0.38310  -0.38241  -0.38205  -0.38102
 Alpha  occ. eigenvalues --   -0.37899  -0.37643  -0.37389  -0.37334  -0.36987
 Alpha  occ. eigenvalues --   -0.36816  -0.36513  -0.36179  -0.36055  -0.35717
 Alpha  occ. eigenvalues --   -0.35366  -0.34958  -0.34868  -0.34770  -0.34461
 Alpha  occ. eigenvalues --   -0.34392  -0.34225  -0.33547  -0.33522  -0.33403
 Alpha  occ. eigenvalues --   -0.32990  -0.32927  -0.32626  -0.32440  -0.32362
 Alpha  occ. eigenvalues --   -0.32207  -0.32118  -0.31713  -0.31263  -0.31151
 Alpha  occ. eigenvalues --   -0.30417  -0.30326  -0.29783  -0.28726  -0.28009
 Alpha  occ. eigenvalues --   -0.27122  -0.26441  -0.26216  -0.24486  -0.22488
 Alpha  occ. eigenvalues --   -0.19009
 Alpha virt. eigenvalues --   -0.07258  -0.03211  -0.00131   0.02044   0.03139
 Alpha virt. eigenvalues --    0.03787   0.04514   0.04824   0.05239   0.05678
 Alpha virt. eigenvalues --    0.06542   0.07932   0.08694   0.09644   0.09840

 Mulliken charges:
               1
     1  Mg   0.816113
     2  C    0.093166
     3  C   -0.198256
     4  C   -0.149125
     5  C   -0.078525
     6  N   -0.614192
     7  C    0.237514
     8  C   -0.156489
     9  C   -0.154773
    10  C    0.373707
    11  C   -0.271402
    12  C   -0.143995
    13  C   -0.292510
    14  C    0.617205
    15  O   -0.441050
    16  O   -0.495217
    17  N   -0.707635
    18  C    0.285250
    19  C    0.105434
    20  C    0.007433
    21  C    0.292111
    22  C   -0.407308
    23  C   -0.092802
    24  C   -0.243883
    25  N   -0.709704
    26  C    0.311291
    27  C    0.035840
    28  C    0.071903
    29  C    0.300553
    30  C   -0.357262
    31  C   -0.275514
    32  C   -0.317968
    33  N   -0.734266
    34  C    0.303453
    35  C   -0.040774
    36  C    0.079174
    37  C    0.258990
    38  C   -0.373469
    39  C    0.354990
    40  O   -0.441442
    41  C   -0.322352
    42  C    0.608839
    43  O   -0.480109
    44  O   -0.428900
    45  C   -0.095480
    46  C    0.020858
    47  C   -0.108578
    48  C    0.130612
    49  C   -0.371954
    50  C   -0.230713
    51  C   -0.121553
    52  C   -0.178510
    53  C   -0.091108
    54  C   -0.326300
    55  C   -0.159969
    56  C   -0.181594
    57  C   -0.145983
    58  C   -0.067642
    59  C   -0.311279
    60  C   -0.165583
    61  C   -0.175034
    62  C   -0.191065
    63  C   -0.075038
    64  C   -0.290260
    65  C   -0.284920
    66  H    0.084382
    67  H    0.081987
    68  H    0.016657
    69  H    0.126953
    70  H    0.076700
    71  H    0.089282
    72  H    0.109603
    73  H    0.098318
    74  H    0.120868
    75  H    0.113052
    76  H    0.124734
    77  H    0.138873
    78  H    0.116019
    79  H    0.136146
    80  H    0.083284
    81  H    0.062990
    82  H    0.113476
    83  H    0.083635
    84  H    0.115645
    85  H    0.118563
    86  H    0.094880
    87  H    0.110682
    88  H    0.097047
    89  H    0.117870
    90  H    0.078565
    91  H    0.120372
    92  H    0.126531
    93  H    0.150608
    94  H    0.104017
    95  H    0.153502
    96  H    0.132438
    97  H    0.140529
    98  H    0.136661
    99  H    0.094834
   100  H    0.111032
   101  H    0.083920
   102  H    0.095196
   103  H    0.118610
   104  H    0.135348
   105  H    0.052381
   106  H    0.089430
   107  H    0.111056
   108  H    0.092195
   109  H    0.102716
   110  H    0.089671
   111  H    0.074245
   112  H    0.095249
   113  H    0.097602
   114  H    0.104010
   115  H    0.090715
   116  H    0.094582
   117  H    0.097301
   118  H    0.080352
   119  H    0.095364
   120  H    0.061908
   121  H    0.082636
   122  H    0.080180
   123  H    0.092460
   124  H    0.112908
   125  H    0.088809
   126  H    0.082153
   127  H    0.093021
   128  H    0.102715
   129  H    0.090895
   130  H    0.084773
   131  H    0.085863
   132  H    0.074429
   133  H    0.115531
   134  H    0.092546
   135  H    0.109475
   136  H    0.074301
   137  H    0.091770
 Sum of Mulliken charges =  -0.00000

 Dipole moment (field-independent basis, Debye):
    X=              1.3737    Y=              2.9100    Z=              0.1752  Tot=              3.2227
 Quadrupole moment (field-independent basis, Debye-Ang):
   XX=           -350.7964   YY=           -400.6234   ZZ=           -398.8339
   XY=            -19.4303   XZ=              3.6288   YZ=             -4.6927

 Normal termination of Gaussian 16 at Sun Sep 22 14:07:40 2019.
