 Gaussian 09, Revision D.01,
 Gaussian 09:  ES64L-G09RevD.01 24-Apr-2013

 -------------------------------------
 # td=(NStates=1) CAM-B3LYP/6-31G(d,p)
 -------------------------------------

 --
 TD
 --
 Symbolic Z-matrix:
 Charge =  0 Multiplicity = 1

                         Standard orientation:
 ---------------------------------------------------------------------
 Center     Atomic      Atomic             Coordinates (Angstroms)
 Number     Number       Type             X           Y           Z
 ---------------------------------------------------------------------
      1         12           0       -7.194776    0.577700    0.130076
      2          6           0       -4.836035   -1.926102    0.426445
      3          6           0       -4.711370    2.854604    1.115932
      4          6           0       -9.379112    3.071676   -0.376753
      5          6           0       -9.617073   -1.788293   -0.748096
      6          7           0       -5.068103    0.500901    0.630922
      7          6           0       -4.290687   -0.663298    0.752629
      8          6           0       -2.826055   -0.319302    1.155240
      9          6           0       -2.946375    1.141046    1.611978
     10          6           0       -4.308168    1.538394    1.029235
     11          6           0       -2.814399    1.285684    3.186042
     12          6           0       -1.878383   -0.424662   -0.100480
     13          6           0       -0.387344   -0.394094    0.490382
     14          6           0        0.574219   -0.743643   -0.612959
     15          8           0        0.289099   -1.159960   -1.687966
     16          8           0        1.886984   -0.479943   -0.230784
     17          7           0       -7.039562    2.638953    0.255248
     18          6           0       -5.986488    3.378295    0.780667
     19          6           0       -6.424667    4.684206    0.823021
     20          6           0       -7.707892    4.781385    0.458112
     21          6           0       -8.157180    3.425341    0.083330
     22          6           0       -5.593881    5.914727    1.151161
     23          6           0       -8.526920    5.952574    0.127231
     24          6           0       -8.503976    7.098702    0.813929
     25          7           0       -9.125857    0.594666   -0.472600
     26          6           0       -9.882652    1.813187   -0.609145
     27          6           0      -11.250500    1.439935   -1.125606
     28          6           0      -11.310916    0.093544   -1.155982
     29          6           0      -10.005703   -0.433507   -0.805653
     30          6           0      -12.364442    2.439296   -1.289809
     31          6           0      -12.444216   -0.767550   -1.574900
     32          6           0      -12.401701   -0.783671   -3.200599
     33          7           0       -7.210202   -1.417567   -0.207616
     34          6           0       -8.303750   -2.281899   -0.439667
     35          6           0       -7.875331   -3.641028   -0.420160
     36          6           0       -6.582112   -3.554466    0.025563
     37          6           0       -6.202265   -2.197407    0.123808
     38          6           0       -8.674754   -4.740317   -0.737578
     39          6           0       -5.381142   -4.377844    0.172766
     40          8           0       -5.077856   -5.547884    0.138463
     41          6           0       -4.237201   -3.376220    0.476900
     42          6           0       -3.583746   -3.787762    1.809407
     43          8           0       -3.698968   -3.269733    2.975486
     44          8           0       -2.720985   -4.714749    1.664165
     45          6           0       -2.337768   -5.431166    2.853289
     46          6           0        2.840975   -0.734657   -1.278596
     47          6           0        4.212630   -0.434759   -0.595065
     48          6           0        5.158040    0.487533   -1.040603
     49          6           0        5.101165    1.252176   -2.422974
     50          6           0        6.444413    0.569369   -0.233202
     51          6           0        7.610313    0.033867   -1.055804
     52          6           0        8.903250   -0.055795   -0.138819
     53          6           0       10.165405   -0.569442   -1.002799
     54          6           0       10.085004   -2.098631   -1.204501
     55          6           0       11.338472   -0.331338   -0.010971
     56          6           0       12.722737   -0.424441   -0.756273
     57          6           0       13.966638   -0.148034    0.090062
     58          6           0       15.373102   -0.258162   -0.575783
     59          6           0       15.676314   -1.740611   -0.832736
     60          6           0       16.408850    0.387199    0.476409
     61          6           0       17.787573    0.595795   -0.139335
     62          6           0       18.764526    1.307163    0.781006
     63          6           0       20.198086    1.344437    0.337833
     64          6           0       20.456719    2.248960   -0.894311
     65          6           0       21.143119    1.814180    1.370073
     66          1           0       -4.071512    3.642792    1.436272
     67          1           0      -10.049695    3.736676   -0.464631
     68          1           0      -10.547524   -2.358406   -1.009064
     69          1           0       -2.653141   -0.960635    1.938031
     70          1           0       -2.061005    1.774834    1.401981
     71          1           0       -1.581014    1.234883    3.409836
     72          1           0       -3.013305    2.292470    3.578698
     73          1           0       -3.335006    0.477242    3.688711
     74          1           0       -2.101447   -1.379040   -0.540242
     75          1           0       -2.110098    0.417149   -0.904797
     76          1           0       -0.013104    0.604280    1.014504
     77          1           0       -0.439882   -1.212394    1.202102
     78          1           0       -5.780962    6.817945    0.617045
     79          1           0       -5.779414    6.214705    2.249350
     80          1           0       -4.530426    5.686252    0.900934
     81          1           0       -8.998086    5.867966   -0.834637
     82          1           0       -8.786512    8.149842    0.350064
     83          1           0       -7.887574    7.048250    1.832284
     84          1           0      -12.154586    3.142749   -2.009628
     85          1           0      -13.263177    1.957950   -1.636680
     86          1           0      -12.646273    3.130593   -0.465902
     87          1           0      -12.360244   -1.669043   -1.115248
     88          1           0      -13.470212   -0.280932   -1.354331
     89          1           0      -13.211865   -1.444032   -3.678682
     90          1           0      -12.618825    0.247635   -3.502072
     91          1           0      -11.475529   -1.238482   -3.433591
     92          1           0       -9.105900   -4.702879   -1.849755
     93          1           0       -8.278806   -5.727758   -0.987004
     94          1           0       -9.354486   -4.728243    0.129009
     95          1           0       -3.266691   -3.458153   -0.114688
     96          1           0       -1.548930   -4.732865    3.261113
     97          1           0       -3.208349   -5.391267    3.628359
     98          1           0       -1.954955   -6.372031    2.446680
     99          1           0        2.636086   -1.821497   -1.518508
    100          1           0        2.802734   -0.054132   -2.152143
    101          1           0        4.277675   -0.900901    0.354459
    102          1           0        4.079421    1.362471   -2.610414
    103          1           0        5.456471    2.223525   -2.189062
    104          1           0        5.872155    0.735294   -2.969060
    105          1           0        6.878528    1.816495   -0.053840
    106          1           0        6.427950    0.169575    0.746220
    107          1           0        7.524947   -0.910727   -1.649410
    108          1           0        7.837187    0.705792   -1.771763
    109          1           0        9.146208    0.975134    0.267559
    110          1           0        8.723530   -0.873089    0.542471
    111          1           0       10.401686   -0.023322   -1.856931
    112          1           0        9.242010   -2.436719   -1.677795
    113          1           0       10.935139   -2.194922   -1.965420
    114          1           0       10.161454   -2.930658   -0.481948
    115          1           0       11.383111    0.768736    0.494063
    116          1           0       11.282981   -1.019380    0.931438
    117          1           0       12.814305   -1.504812   -1.222813
    118          1           0       12.711740    0.097088   -1.578356
    119          1           0       13.745433    0.835571    0.469738
    120          1           0       13.837138   -0.915218    0.967183
    121          1           0       15.400301    0.164293   -1.544064
    122          1           0       15.990623   -2.152838    0.240268
    123          1           0       14.866727   -2.216029   -1.345932
    124          1           0       16.498826   -1.731916   -1.643817
    125          1           0       16.039608    1.298571    0.617030
    126          1           0       16.117151   -0.118931    1.256060
    127          1           0       18.166662   -0.508822   -0.323682
    128          1           0       17.861697    1.234475   -1.036505
    129          1           0       18.456664    2.148355    1.131226
    130          1           0       18.862231    0.630257    1.663497
    131          1           0       20.434206    0.184607    0.408550
    132          1           0       20.116894    3.259652   -0.770686
    133          1           0       21.615531    2.459913   -1.036937
    134          1           0       19.838220    1.722142   -1.802113
    135          1           0       21.137551    1.081983    2.382043
    136          1           0       22.090421    2.118100    0.896560
    137          1           0       20.820470    2.609846    1.911555
 ---------------------------------------------------------------------

 SCF Done:  E(RCAM-B3LYP) =  -2932.66248259     A.U. after   18 cycles

 Excitation energies and oscillator strengths:

 Excited State   1:      Singlet-A      1.9867 eV  624.06 nm  f=0.2551  <S**2>=0.000
     240 -> 243        0.23902
     241 -> 242        0.65958
 This state for optimization and/or second-order correction.
 Total Energy, E(TD-HF/TD-KS) =  -2932.58947135
 Copying the excited state density for this state as the 1-particle RhoCI density.

 The electronic state is 1-A.
 Alpha  occ. eigenvalues --  -46.84240 -19.26272 -19.25103 -19.21333 -19.19969
 Alpha  occ. eigenvalues --  -19.18550 -14.42083 -14.39587 -14.39438 -14.38811
 Alpha  occ. eigenvalues --  -10.38805 -10.38394 -10.34856 -10.31947 -10.31618
 Alpha  occ. eigenvalues --  -10.31253 -10.30938 -10.29653 -10.29571 -10.29476
 Alpha  occ. eigenvalues --  -10.28949 -10.28832 -10.28806 -10.28650 -10.28571
 Alpha  occ. eigenvalues --  -10.28513 -10.28154 -10.28105 -10.27824 -10.27821
 Alpha  occ. eigenvalues --  -10.27589 -10.27536 -10.27491 -10.27228 -10.26983
 Alpha  occ. eigenvalues --  -10.26890 -10.26866 -10.26821 -10.26707 -10.26651
 Alpha  occ. eigenvalues --  -10.26515 -10.26505 -10.26256 -10.26229 -10.26103
 Alpha  occ. eigenvalues --  -10.26084 -10.25933 -10.25882 -10.25845 -10.25714
 Alpha  occ. eigenvalues --  -10.25689 -10.25667 -10.25634 -10.25571 -10.25269
 Alpha  occ. eigenvalues --  -10.25201 -10.25146 -10.25008 -10.24937 -10.24640
 Alpha  occ. eigenvalues --  -10.24478 -10.24196 -10.24176 -10.22944 -10.22870
 Alpha  occ. eigenvalues --   -3.13224  -1.87933  -1.87497  -1.87362  -1.19904
 Alpha  occ. eigenvalues --   -1.17639  -1.11232  -1.09562  -1.04674  -1.04407
 Alpha  occ. eigenvalues --   -1.03577  -1.02774  -1.00846  -0.91563  -0.90790
 Alpha  occ. eigenvalues --   -0.90252  -0.89736  -0.89547  -0.89211  -0.89144
 Alpha  occ. eigenvalues --   -0.88833  -0.88456  -0.88069  -0.86981  -0.85393
 Alpha  occ. eigenvalues --   -0.84660  -0.84094  -0.83558  -0.82853  -0.82723
 Alpha  occ. eigenvalues --   -0.81694  -0.80981  -0.80563  -0.80005  -0.78222
 Alpha  occ. eigenvalues --   -0.77788  -0.76900  -0.76197  -0.76110  -0.75920
 Alpha  occ. eigenvalues --   -0.75423  -0.74795  -0.74374  -0.73210  -0.72008
 Alpha  occ. eigenvalues --   -0.71590  -0.70349  -0.69887  -0.68541  -0.68221
 Alpha  occ. eigenvalues --   -0.66695  -0.66477  -0.65445  -0.65070  -0.64935
 Alpha  occ. eigenvalues --   -0.64217  -0.63735  -0.63052  -0.62345  -0.62230
 Alpha  occ. eigenvalues --   -0.61830  -0.60385  -0.60271  -0.59759  -0.59168
 Alpha  occ. eigenvalues --   -0.58800  -0.58332  -0.57757  -0.56892  -0.56500
 Alpha  occ. eigenvalues --   -0.56028  -0.55807  -0.55256  -0.55088  -0.54897
 Alpha  occ. eigenvalues --   -0.54149  -0.54101  -0.53614  -0.53252  -0.53013
 Alpha  occ. eigenvalues --   -0.52910  -0.52703  -0.52495  -0.52389  -0.52134
 Alpha  occ. eigenvalues --   -0.51664  -0.51531  -0.51082  -0.50752  -0.50629
 Alpha  occ. eigenvalues --   -0.50498  -0.50252  -0.50100  -0.49826  -0.49718
 Alpha  occ. eigenvalues --   -0.49639  -0.49198  -0.48867  -0.48668  -0.48292
 Alpha  occ. eigenvalues --   -0.48227  -0.48074  -0.47895  -0.47302  -0.47080
 Alpha  occ. eigenvalues --   -0.46900  -0.46782  -0.46203  -0.46177  -0.46079
 Alpha  occ. eigenvalues --   -0.45866  -0.45651  -0.45347  -0.45322  -0.45197
 Alpha  occ. eigenvalues --   -0.44862  -0.44748  -0.44490  -0.44430  -0.44107
 Alpha  occ. eigenvalues --   -0.43784  -0.43542  -0.43470  -0.43243  -0.42737
 Alpha  occ. eigenvalues --   -0.42682  -0.42429  -0.42324  -0.42208  -0.42129
 Alpha  occ. eigenvalues --   -0.41738  -0.41735  -0.41601  -0.41305  -0.41027
 Alpha  occ. eigenvalues --   -0.40926  -0.40775  -0.40671  -0.40510  -0.40435
 Alpha  occ. eigenvalues --   -0.40065  -0.39992  -0.39723  -0.39343  -0.39243
 Alpha  occ. eigenvalues --   -0.39167  -0.38653  -0.38335  -0.38128  -0.37778
 Alpha  occ. eigenvalues --   -0.37429  -0.37248  -0.36847  -0.36655  -0.36504
 Alpha  occ. eigenvalues --   -0.36165  -0.36061  -0.35742  -0.35620  -0.34748
 Alpha  occ. eigenvalues --   -0.34553  -0.34549  -0.34154  -0.33859  -0.33025
 Alpha  occ. eigenvalues --   -0.32511  -0.32389  -0.31483  -0.30901  -0.29964
 Alpha  occ. eigenvalues --   -0.29555  -0.28573  -0.28494  -0.27876  -0.23215
 Alpha  occ. eigenvalues --   -0.21285
 Alpha virt. eigenvalues --   -0.06868  -0.02947   0.01827   0.04467   0.05557
 Alpha virt. eigenvalues --    0.05903   0.06448   0.06626   0.07197   0.07492
 Alpha virt. eigenvalues --    0.08134   0.10476   0.10525   0.10870   0.11495

 Mulliken charges:
               1
     1  Mg   0.820124
     2  C    0.067336
     3  C   -0.197678
     4  C   -0.111334
     5  C   -0.169482
     6  N   -0.616922
     7  C    0.249259
     8  C   -0.150830
     9  C   -0.134880
    10  C    0.376645
    11  C   -0.309699
    12  C   -0.163277
    13  C   -0.271921
    14  C    0.613770
    15  O   -0.448292
    16  O   -0.498373
    17  N   -0.748946
    18  C    0.324451
    19  C    0.021997
    20  C   -0.013203
    21  C    0.314371
    22  C   -0.370900
    23  C   -0.057771
    24  C   -0.256177
    25  N   -0.705359
    26  C    0.254370
    27  C    0.025350
    28  C    0.042871
    29  C    0.292286
    30  C   -0.382746
    31  C   -0.256570
    32  C   -0.304250
    33  N   -0.714787
    34  C    0.229291
    35  C    0.101434
    36  C   -0.037083
    37  C    0.305691
    38  C   -0.394595
    39  C    0.379069
    40  O   -0.464289
    41  C   -0.323615
    42  C    0.580565
    43  O   -0.543391
    44  O   -0.395009
    45  C   -0.086216
    46  C    0.022461
    47  C   -0.127877
    48  C    0.063784
    49  C   -0.351536
    50  C   -0.190547
    51  C   -0.188485
    52  C   -0.175316
    53  C   -0.074404
    54  C   -0.318983
    55  C   -0.155823
    56  C   -0.188370
    57  C   -0.173994
    58  C   -0.087852
    59  C   -0.293749
    60  C   -0.150865
    61  C   -0.181470
    62  C   -0.164480
    63  C   -0.036718
    64  C   -0.316700
    65  C   -0.299231
    66  H    0.079027
    67  H    0.053332
    68  H    0.091189
    69  H    0.133970
    70  H    0.106523
    71  H    0.069046
    72  H    0.117374
    73  H    0.136719
    74  H    0.131057
    75  H    0.112201
    76  H    0.129548
    77  H    0.151153
    78  H    0.133400
    79  H    0.112021
    80  H    0.102394
    81  H    0.105947
    82  H    0.104657
    83  H    0.093518
    84  H    0.128672
    85  H    0.109978
    86  H    0.123856
    87  H    0.109950
    88  H    0.100197
    89  H    0.090622
    90  H    0.117895
    91  H    0.124423
    92  H    0.108386
    93  H    0.145521
    94  H    0.139876
    95  H    0.155745
    96  H    0.127112
    97  H    0.149202
    98  H    0.136439
    99  H    0.119639
   100  H    0.107614
   101  H    0.092999
   102  H    0.125117
   103  H    0.123979
   104  H    0.139591
   105  H    0.036001
   106  H    0.110605
   107  H    0.092963
   108  H    0.109233
   109  H    0.090476
   110  H    0.103087
   111  H    0.099157
   112  H    0.106633
   113  H    0.094476
   114  H    0.111453
   115  H    0.056613
   116  H    0.084530
   117  H    0.065814
   118  H    0.099994
   119  H    0.088032
   120  H    0.073744
   121  H    0.083805
   122  H    0.085381
   123  H    0.110440
   124  H    0.088588
   125  H    0.099589
   126  H    0.099870
   127  H    0.081492
   128  H    0.094453
   129  H    0.092522
   130  H    0.077813
   131  H    0.083167
   132  H    0.116842
   133  H    0.088538
   134  H    0.088419
   135  H    0.058211
   136  H    0.097728
   137  H    0.109311
 Sum of Mulliken charges =   0.00000

 Dipole moment (field-independent basis, Debye):
    X=             -0.2860    Y=              4.5313    Z=             -0.4641  Tot=              4.5640
 Quadrupole moment (field-independent basis, Debye-Ang):
   XX=           -351.3388   YY=           -384.7753   ZZ=           -399.3723
   XY=             -4.6642   XZ=             10.4239   YZ=             -3.3869

 Normal termination of Gaussian 09 at Wed Jul  3 06:32:42 2019.
