 Gaussian 09, Revision D.01,
 Gaussian 09:  ES64L-G09RevD.01 24-Apr-2013

 -------------------------------------
 # td=(NStates=1) CAM-B3LYP/6-31G(d,p)
 -------------------------------------

 --
 TD
 --
 Symbolic Z-matrix:
 Charge =  0 Multiplicity = 1

                         Standard orientation:
 ---------------------------------------------------------------------
 Center     Atomic      Atomic             Coordinates (Angstroms)
 Number     Number       Type             X           Y           Z
 ---------------------------------------------------------------------
      1         12           0       -7.149186    0.567193    0.122316
      2          6           0       -4.833083   -1.925502    0.492669
      3          6           0       -4.847307    2.912846    1.127469
      4          6           0       -9.408464    3.087323   -0.499119
      5          6           0       -9.466561   -1.759169   -0.813531
      6          7           0       -5.131098    0.511998    0.689853
      7          6           0       -4.308665   -0.663180    0.857977
      8          6           0       -2.929669   -0.259422    1.303886
      9          6           0       -3.010342    1.130333    1.717334
     10          6           0       -4.355520    1.553207    1.106796
     11          6           0       -3.072106    1.290981    3.166870
     12          6           0       -1.867594   -0.617486    0.122960
     13          6           0       -0.360793   -0.481646    0.505495
     14          6           0        0.553827   -0.772461   -0.577189
     15          8           0        0.237097   -1.286701   -1.678034
     16          8           0        1.838812   -0.477806   -0.205768
     17          7           0       -7.141495    2.657323    0.371697
     18          6           0       -6.017184    3.445991    0.725488
     19          6           0       -6.400153    4.753811    0.774292
     20          6           0       -7.760108    4.837647    0.316788
     21          6           0       -8.118377    3.492843   -0.056930
     22          6           0       -5.540669    5.940341    1.066023
     23          6           0       -8.634015    6.046806    0.103213
     24          6           0       -8.445826    7.155590    0.775465
     25          7           0       -9.036845    0.635135   -0.488280
     26          6           0       -9.866565    1.771036   -0.672319
     27          6           0      -11.085488    1.395324   -1.165284
     28          6           0      -11.167951   -0.035604   -1.239538
     29          6           0       -9.830573   -0.452769   -0.878656
     30          6           0      -12.274569    2.366078   -1.313831
     31          6           0      -12.275200   -0.780072   -1.745306
     32          6           0      -12.262822   -1.095995   -3.180820
     33          7           0       -7.111128   -1.345498   -0.249233
     34          6           0       -8.220715   -2.136786   -0.583917
     35          6           0       -7.730526   -3.641113   -0.529020
     36          6           0       -6.478154   -3.496643   -0.142368
     37          6           0       -6.105706   -2.167677   -0.001154
     38          6           0       -8.505878   -4.906299   -0.827400
     39          6           0       -5.214738   -4.303529    0.201803
     40          8           0       -5.069798   -5.562828    0.281316
     41          6           0       -4.072067   -3.293798    0.575231
     42          6           0       -3.532113   -3.619655    1.907691
     43          8           0       -3.647691   -2.925594    2.896593
     44          8           0       -2.731755   -4.734270    1.913969
     45          6           0       -2.355104   -5.270794    3.183710
     46          6           0        2.775123   -0.814278   -1.278675
     47          6           0        4.148250   -0.602940   -0.697762
     48          6           0        5.166533    0.356465   -1.111345
     49          6           0        5.038547    1.249018   -2.262115
     50          6           0        6.319136    0.370236   -0.263171
     51          6           0        7.675865   -0.120889   -1.020949
     52          6           0        8.910467   -0.107948   -0.185273
     53          6           0       10.097747   -0.499047   -0.913608
     54          6           0       10.019919   -1.878934   -1.461614
     55          6           0       11.303887   -0.238559   -0.034434
     56          6           0       12.675735   -0.426849   -0.630110
     57          6           0       13.894626   -0.204671    0.280910
     58          6           0       15.253236   -0.331603   -0.399729
     59          6           0       15.586539   -1.661706   -0.750969
     60          6           0       16.359678    0.475909    0.454851
     61          6           0       17.725299    0.689383   -0.159130
     62          6           0       18.717102    1.331517    0.667683
     63          6           0       20.232993    1.280546    0.189734
     64          6           0       20.332788    2.111403   -1.062705
     65          6           0       21.141074    1.940271    1.363927
     66          1           0       -4.233538    3.679143    1.626894
     67          1           0      -10.021281    3.830404   -0.620677
     68          1           0      -10.231361   -2.566519   -1.259351
     69          1           0       -2.571654   -0.790403    2.067117
     70          1           0       -2.328554    1.743647    1.198322
     71          1           0       -1.985473    1.173561    3.587372
     72          1           0       -3.444997    2.357393    3.535233
     73          1           0       -3.803383    0.591664    3.560745
     74          1           0       -1.891474   -1.702965   -0.226472
     75          1           0       -2.070606   -0.026403   -0.859140
     76          1           0       -0.112798    0.383783    0.973172
     77          1           0       -0.197171   -1.096489    1.375252
     78          1           0       -5.984137    6.977339    0.805208
     79          1           0       -5.758393    6.127774    2.237747
     80          1           0       -4.358997    5.857275    1.057548
     81          1           0       -9.173641    6.006476   -0.772588
     82          1           0       -8.982807    8.041062    0.543726
     83          1           0       -7.910561    7.473571    1.688815
     84          1           0      -12.064337    2.869120   -2.184114
     85          1           0      -13.162800    1.698120   -1.582017
     86          1           0      -12.484634    2.984155   -0.429269
     87          1           0      -12.204959   -1.857469   -1.288632
     88          1           0      -13.143108   -0.231431   -1.391622
     89          1           0      -13.275293   -1.886395   -3.374045
     90          1           0      -12.532842   -0.114026   -3.565350
     91          1           0      -11.293581   -1.586456   -3.476413
     92          1           0       -8.891091   -5.049979   -1.895892
     93          1           0       -7.782014   -5.702365   -0.885680
     94          1           0       -9.262012   -5.138824   -0.156207
     95          1           0       -3.414753   -3.437410   -0.280922
     96          1           0       -2.011511   -4.600911    3.815609
     97          1           0       -3.339130   -5.595801    3.583334
     98          1           0       -1.668740   -5.927190    2.906860
     99          1           0        2.692354   -1.754746   -1.521885
    100          1           0        2.716204    0.004590   -1.965539
    101          1           0        4.594531   -1.062764    0.224469
    102          1           0        4.012586    1.374723   -2.874380
    103          1           0        5.258583    2.326503   -1.969428
    104          1           0        5.752427    0.914931   -3.102130
    105          1           0        6.651836    1.524319    0.045304
    106          1           0        6.149070   -0.287356    0.650884
    107          1           0        7.286868   -1.067057   -1.310915
    108          1           0        7.466948    0.431390   -1.925431
    109          1           0        9.100077    0.759807    0.363588
    110          1           0        8.840469   -1.054220    0.654180
    111          1           0       10.230517    0.176197   -1.877735
    112          1           0        9.224832   -2.145373   -2.126479
    113          1           0       10.937177   -2.386427   -1.855683
    114          1           0        9.890443   -2.701289   -0.698639
    115          1           0       11.483918    0.916311    0.292236
    116          1           0       11.379696   -0.752911    0.841322
    117          1           0       12.680243   -1.459387   -1.048416
    118          1           0       12.722407   -0.056391   -1.617291
    119          1           0       13.729896    0.838788    0.692511
    120          1           0       13.860417   -0.820824    1.066150
    121          1           0       15.181989    0.142154   -1.457575
    122          1           0       15.601320   -2.629315    0.084955
    123          1           0       15.043262   -1.920008   -1.470379
    124          1           0       16.614868   -1.694266   -1.066808
    125          1           0       16.101967    1.550364    0.532992
    126          1           0       16.391518    0.060107    1.641714
    127          1           0       18.191659   -0.178452   -0.552514
    128          1           0       17.523762    1.403048   -1.059302
    129          1           0       18.498747    2.347176    0.990412
    130          1           0       18.768642    0.800209    1.654051
    131          1           0       20.408657    0.249576   -0.026206
    132          1           0       19.972363    3.047210   -0.945867
    133          1           0       21.508341    1.774435   -1.432159
    134          1           0       19.651460    1.913556   -1.812934
    135          1           0       20.886280    1.476096    2.368389
    136          1           0       22.274749    1.868545    1.146445
    137          1           0       20.588823    2.958590    1.571096
 ---------------------------------------------------------------------

 SCF Done:  E(RCAM-B3LYP) =  -2932.59006309     A.U. after   16 cycles

 Excitation energies and oscillator strengths:

 Excited State   1:      Singlet-A      2.0134 eV  615.80 nm  f=0.1944  <S**2>=0.000
     240 -> 243       -0.25687
     241 -> 242        0.64408
 This state for optimization and/or second-order correction.
 Total Energy, E(TD-HF/TD-KS) =  -2932.51607207
 Copying the excited state density for this state as the 1-particle RhoCI density.

 The electronic state is 1-A.
 Alpha  occ. eigenvalues --  -46.82482 -19.26481 -19.25346 -19.21515 -19.21349
 Alpha  occ. eigenvalues --  -19.21017 -14.42334 -14.39773 -14.38164 -14.37449
 Alpha  occ. eigenvalues --  -10.39694 -10.39538 -10.36835 -10.31774 -10.31135
 Alpha  occ. eigenvalues --  -10.30949 -10.29575 -10.29530 -10.29072 -10.29014
 Alpha  occ. eigenvalues --  -10.28960 -10.28414 -10.28341 -10.28308 -10.28027
 Alpha  occ. eigenvalues --  -10.27913 -10.27801 -10.27753 -10.27738 -10.27620
 Alpha  occ. eigenvalues --  -10.27464 -10.27068 -10.27012 -10.26916 -10.26915
 Alpha  occ. eigenvalues --  -10.26909 -10.26771 -10.26769 -10.26763 -10.26745
 Alpha  occ. eigenvalues --  -10.26744 -10.26669 -10.26610 -10.26377 -10.26299
 Alpha  occ. eigenvalues --  -10.26170 -10.26162 -10.26160 -10.25893 -10.25753
 Alpha  occ. eigenvalues --  -10.25706 -10.25552 -10.25485 -10.25446 -10.25401
 Alpha  occ. eigenvalues --  -10.25336 -10.25271 -10.25126 -10.24948 -10.24706
 Alpha  occ. eigenvalues --  -10.24441 -10.24261 -10.24191 -10.24086 -10.23577
 Alpha  occ. eigenvalues --   -3.11811  -1.86498  -1.86050  -1.86014  -1.17714
 Alpha  occ. eigenvalues --   -1.17161  -1.09182  -1.09017  -1.07677  -1.04794
 Alpha  occ. eigenvalues --   -1.03075  -1.01831  -1.00629  -0.92826  -0.92559
 Alpha  occ. eigenvalues --   -0.91313  -0.91081  -0.90549  -0.89559  -0.89108
 Alpha  occ. eigenvalues --   -0.88671  -0.88376  -0.87887  -0.87715  -0.87288
 Alpha  occ. eigenvalues --   -0.85394  -0.84801  -0.84038  -0.83548  -0.82879
 Alpha  occ. eigenvalues --   -0.82413  -0.81902  -0.80946  -0.80494  -0.78989
 Alpha  occ. eigenvalues --   -0.78086  -0.77122  -0.76976  -0.76589  -0.75863
 Alpha  occ. eigenvalues --   -0.75650  -0.74919  -0.74447  -0.73253  -0.72429
 Alpha  occ. eigenvalues --   -0.72019  -0.71260  -0.69025  -0.68788  -0.68347
 Alpha  occ. eigenvalues --   -0.66839  -0.66334  -0.65729  -0.65405  -0.64706
 Alpha  occ. eigenvalues --   -0.64186  -0.63978  -0.63774  -0.63606  -0.62237
 Alpha  occ. eigenvalues --   -0.62013  -0.61372  -0.60248  -0.59921  -0.59547
 Alpha  occ. eigenvalues --   -0.59012  -0.58979  -0.58571  -0.57623  -0.57495
 Alpha  occ. eigenvalues --   -0.56975  -0.56437  -0.55650  -0.55352  -0.55058
 Alpha  occ. eigenvalues --   -0.54701  -0.54338  -0.54025  -0.53676  -0.53474
 Alpha  occ. eigenvalues --   -0.53307  -0.52889  -0.52804  -0.52345  -0.52148
 Alpha  occ. eigenvalues --   -0.51834  -0.51636  -0.51051  -0.50986  -0.50652
 Alpha  occ. eigenvalues --   -0.50472  -0.50309  -0.50161  -0.50115  -0.49742
 Alpha  occ. eigenvalues --   -0.49483  -0.49374  -0.49236  -0.48936  -0.48530
 Alpha  occ. eigenvalues --   -0.48323  -0.48098  -0.47972  -0.47640  -0.47439
 Alpha  occ. eigenvalues --   -0.46977  -0.46732  -0.46635  -0.45993  -0.45958
 Alpha  occ. eigenvalues --   -0.45821  -0.45720  -0.45586  -0.45243  -0.44855
 Alpha  occ. eigenvalues --   -0.44813  -0.44740  -0.44528  -0.44444  -0.44072
 Alpha  occ. eigenvalues --   -0.44032  -0.43890  -0.43747  -0.43289  -0.43084
 Alpha  occ. eigenvalues --   -0.43007  -0.42777  -0.42361  -0.42235  -0.42046
 Alpha  occ. eigenvalues --   -0.41685  -0.41478  -0.41334  -0.41087  -0.40968
 Alpha  occ. eigenvalues --   -0.40839  -0.40488  -0.40310  -0.40173  -0.40101
 Alpha  occ. eigenvalues --   -0.39900  -0.39760  -0.39608  -0.39519  -0.39403
 Alpha  occ. eigenvalues --   -0.39170  -0.38894  -0.38729  -0.38393  -0.37982
 Alpha  occ. eigenvalues --   -0.37534  -0.37486  -0.37030  -0.36681  -0.36665
 Alpha  occ. eigenvalues --   -0.36279  -0.36114  -0.36034  -0.35885  -0.35497
 Alpha  occ. eigenvalues --   -0.35429  -0.35225  -0.34534  -0.34149  -0.33985
 Alpha  occ. eigenvalues --   -0.33469  -0.33101  -0.32334  -0.31415  -0.30692
 Alpha  occ. eigenvalues --   -0.30479  -0.27718  -0.27101  -0.25784  -0.23242
 Alpha  occ. eigenvalues --   -0.20432
 Alpha virt. eigenvalues --   -0.05809  -0.03705   0.00867   0.03555   0.04447
 Alpha virt. eigenvalues --    0.05080   0.05379   0.06329   0.07139   0.07299
 Alpha virt. eigenvalues --    0.08360   0.10028   0.11137   0.11563   0.11609

 Mulliken charges:
               1
     1  Mg   0.808069
     2  C    0.012944
     3  C   -0.230670
     4  C   -0.141740
     5  C   -0.175655
     6  N   -0.607024
     7  C    0.296891
     8  C   -0.129808
     9  C   -0.109643
    10  C    0.301874
    11  C   -0.299799
    12  C   -0.195479
    13  C   -0.281943
    14  C    0.636308
    15  O   -0.504279
    16  O   -0.493824
    17  N   -0.698900
    18  C    0.341049
    19  C    0.046116
    20  C   -0.033220
    21  C    0.296612
    22  C   -0.388156
    23  C   -0.056499
    24  C   -0.253639
    25  N   -0.722784
    26  C    0.322509
    27  C   -0.028770
    28  C    0.049452
    29  C    0.297337
    30  C   -0.358132
    31  C   -0.263499
    32  C   -0.258794
    33  N   -0.747663
    34  C    0.260848
    35  C   -0.027794
    36  C    0.066427
    37  C    0.329748
    38  C   -0.393285
    39  C    0.357072
    40  O   -0.471898
    41  C   -0.303673
    42  C    0.641627
    43  O   -0.471277
    44  O   -0.477093
    45  C   -0.065007
    46  C    0.064486
    47  C   -0.172669
    48  C    0.152510
    49  C   -0.381298
    50  C   -0.245190
    51  C   -0.188219
    52  C   -0.136604
    53  C   -0.036435
    54  C   -0.329998
    55  C   -0.165920
    56  C   -0.208535
    57  C   -0.156005
    58  C   -0.064729
    59  C   -0.268824
    60  C   -0.161226
    61  C   -0.171760
    62  C   -0.186991
    63  C   -0.064064
    64  C   -0.272885
    65  C   -0.304163
    66  H    0.073193
    67  H    0.059611
    68  H    0.098146
    69  H    0.123996
    70  H    0.118847
    71  H    0.095244
    72  H    0.102379
    73  H    0.138341
    74  H    0.120355
    75  H    0.112290
    76  H    0.139741
    77  H    0.147825
    78  H    0.123218
    79  H    0.096590
    80  H    0.111655
    81  H    0.109128
    82  H    0.093456
    83  H    0.109717
    84  H    0.134230
    85  H    0.090300
    86  H    0.128481
    87  H    0.083461
    88  H    0.110544
    89  H    0.061527
    90  H    0.110791
    91  H    0.114857
    92  H    0.116994
    93  H    0.152063
    94  H    0.141896
    95  H    0.187833
    96  H    0.134749
    97  H    0.126653
    98  H    0.129364
    99  H    0.142030
   100  H    0.121506
   101  H    0.080629
   102  H    0.107748
   103  H    0.120257
   104  H    0.122243
   105  H    0.069216
   106  H    0.098942
   107  H    0.110283
   108  H    0.098443
   109  H    0.106798
   110  H    0.060368
   111  H    0.074791
   112  H    0.116541
   113  H    0.102463
   114  H    0.087671
   115  H    0.062518
   116  H    0.103390
   117  H    0.074731
   118  H    0.090485
   119  H    0.078817
   120  H    0.106172
   121  H    0.075059
   122  H    0.050850
   123  H    0.117492
   124  H    0.102838
   125  H    0.094266
   126  H    0.056424
   127  H    0.095248
   128  H    0.074772
   129  H    0.082257
   130  H    0.080348
   131  H    0.090864
   132  H    0.105127
   133  H    0.065744
   134  H    0.103344
   135  H    0.097269
   136  H    0.103763
   137  H    0.094405
 Sum of Mulliken charges =   0.00000

 Dipole moment (field-independent basis, Debye):
    X=              2.3372    Y=              2.6487    Z=              0.4525  Tot=              3.5613
 Quadrupole moment (field-independent basis, Debye-Ang):
   XX=           -371.5446   YY=           -389.8934   ZZ=           -395.0852
   XY=            -14.9239   XZ=              3.0712   YZ=             -1.2972

 Normal termination of Gaussian 09 at Fri Jul  5 06:32:10 2019.
