 Gaussian 16, Revision A.03,
 Gaussian 16:  ES64L-G16RevA.03 25-Dec-2016

 ----------------------------------------------------------------------
 # td=(NStates=1) iop(3/107=0140000000,3/108=0140000000) CAM-B3LYP/6-31
 G(d,p)
 ----------------------------------------------------------------------

 --
 TD
 --
 Symbolic Z-matrix:
 Charge =  0 Multiplicity = 1

                         Standard orientation:
 ---------------------------------------------------------------------
 Center     Atomic      Atomic             Coordinates (Angstroms)
 Number     Number       Type             X           Y           Z
 ---------------------------------------------------------------------
      1         12           0       -7.182194    0.611480    0.059350
      2          6           0       -4.824507   -1.954933    0.474880
      3          6           0       -4.835553    2.739753    1.231554
      4          6           0       -9.427711    3.264904   -0.172477
      5          6           0       -9.458265   -1.664361   -1.057205
      6          7           0       -5.063575    0.380851    0.731352
      7          6           0       -4.258786   -0.713665    0.824150
      8          6           0       -2.847931   -0.330530    1.234132
      9          6           0       -3.023721    1.071754    1.704398
     10          6           0       -4.377037    1.496667    1.184708
     11          6           0       -3.018985    1.065465    3.256716
     12          6           0       -1.824102   -0.574969    0.044691
     13          6           0       -0.436582   -0.404720    0.604782
     14          6           0        0.522061   -0.650785   -0.458989
     15          8           0        0.273770   -0.999550   -1.582223
     16          8           0        1.846549   -0.477348   -0.059583
     17          7           0       -7.219478    2.632635    0.378959
     18          6           0       -6.059555    3.330279    0.831571
     19          6           0       -6.307475    4.792786    0.738224
     20          6           0       -7.676523    4.850105    0.336702
     21          6           0       -8.096128    3.487183    0.042105
     22          6           0       -5.359892    5.923518    1.125649
     23          6           0       -8.495483    6.031328    0.196432
     24          6           0       -8.292347    7.221995    0.591243
     25          7           0       -9.036111    0.723638   -0.631393
     26          6           0       -9.839413    1.853229   -0.629260
     27          6           0      -11.184153    1.546410   -1.123989
     28          6           0      -11.236625    0.238060   -1.334246
     29          6           0       -9.856409   -0.312448   -1.079564
     30          6           0      -12.387898    2.538233   -1.306240
     31          6           0      -12.320354   -0.725493   -1.771242
     32          6           0      -12.313088   -1.166289   -3.259895
     33          7           0       -7.204191   -1.383564   -0.227141
     34          6           0       -8.276730   -2.174493   -0.634881
     35          6           0       -7.875846   -3.587376   -0.548643
     36          6           0       -6.489171   -3.547743   -0.220120
     37          6           0       -6.160919   -2.116852   -0.005158
     38          6           0       -8.826548   -4.768617   -0.757411
     39          6           0       -5.371745   -4.351508    0.287445
     40          8           0       -5.368911   -5.637607    0.330001
     41          6           0       -4.210934   -3.356057    0.583712
     42          6           0       -3.537113   -3.609845    1.843878
     43          8           0       -3.985360   -3.074166    2.881917
     44          8           0       -2.672085   -4.683400    1.815762
     45          6           0       -2.204457   -5.347781    2.925660
     46          6           0        2.830498   -0.657962   -1.090223
     47          6           0        4.214157   -0.540028   -0.512222
     48          6           0        5.195910    0.225606   -1.018158
     49          6           0        5.119695    1.076902   -2.201937
     50          6           0        6.446948    0.335912   -0.259791
     51          6           0        7.607378   -0.318297   -0.912868
     52          6           0        8.905363   -0.250800   -0.172241
     53          6           0       10.248836   -0.658484   -0.872464
     54          6           0       10.227359   -2.090898   -1.268628
     55          6           0       11.422901   -0.347216   -0.028429
     56          6           0       12.786827   -0.512022   -0.753626
     57          6           0       13.936699   -0.164208    0.062575
     58          6           0       15.311303   -0.296559   -0.552120
     59          6           0       15.716999   -1.759508   -0.856913
     60          6           0       16.413418    0.369422    0.445848
     61          6           0       17.782638    0.483024   -0.206613
     62          6           0       18.709035    1.389122    0.622961
     63          6           0       20.270790    1.550956    0.331289
     64          6           0       20.282553    2.124362   -1.171480
     65          6           0       20.954219    2.416559    1.418494
     66          1           0       -4.083951    3.504937    1.412226
     67          1           0      -10.181260    3.996271   -0.326268
     68          1           0      -10.240889   -2.539716   -1.294638
     69          1           0       -2.698528   -1.144855    2.119759
     70          1           0       -2.251662    1.717350    1.180301
     71          1           0       -2.094606    0.438110    3.498916
     72          1           0       -3.105010    2.052490    3.751371
     73          1           0       -3.918052    0.666263    3.706420
     74          1           0       -1.880675   -1.484149   -0.558715
     75          1           0       -1.877344    0.248349   -0.606821
     76          1           0       -0.397483    0.544709    1.038737
     77          1           0       -0.225826   -0.860767    1.641352
     78          1           0       -5.607846    6.722223    0.459437
     79          1           0       -5.472171    6.109572    2.282895
     80          1           0       -4.288213    5.677951    1.041010
     81          1           0       -9.448277    5.883330   -0.324168
     82          1           0       -9.165356    8.122762    0.185210
     83          1           0       -7.420564    7.532483    1.168312
     84          1           0      -12.308971    3.142086   -2.330995
     85          1           0      -13.440275    2.039543   -1.322611
     86          1           0      -12.474230    3.357151   -0.626787
     87          1           0      -12.453991   -1.555594   -1.225051
     88          1           0      -13.326997   -0.267938   -1.684272
     89          1           0      -13.069307   -1.814202   -3.639314
     90          1           0      -12.334992   -0.334655   -3.913132
     91          1           0      -11.451632   -1.752325   -3.364883
     92          1           0       -9.362716   -4.662397   -1.779343
     93          1           0       -8.128015   -5.880812   -0.992059
     94          1           0       -9.486411   -4.839563    0.349939
     95          1           0       -3.458843   -3.537711   -0.193490
     96          1           0       -1.471725   -4.706583    3.705080
     97          1           0       -3.035882   -5.720150    3.614350
     98          1           0       -1.676828   -6.154425    2.582623
     99          1           0        2.575132   -1.667983   -1.401322
    100          1           0        2.794507   -0.029591   -1.871643
    101          1           0        4.271242   -1.042231    0.486284
    102          1           0        4.087441    1.275911   -2.746028
    103          1           0        5.609952    1.993363   -2.032760
    104          1           0        5.592611    0.655110   -2.985992
    105          1           0        6.690301    1.530009   -0.145817
    106          1           0        6.487807    0.166921    0.818322
    107          1           0        7.591780   -1.459072   -1.195711
    108          1           0        7.707530    0.157320   -2.002180
    109          1           0        9.073977    0.794999    0.072910
    110          1           0        8.896789   -0.860025    0.709027
    111          1           0       10.238168   -0.101602   -1.843747
    112          1           0        9.295178   -2.398012   -1.879139
    113          1           0       11.147619   -2.536635   -1.685936
    114          1           0       10.011199   -2.724585   -0.268243
    115          1           0       11.477169    0.560638    0.199924
    116          1           0       11.250086   -0.879189    0.949268
    117          1           0       12.711658   -1.529692   -1.382191
    118          1           0       12.803514    0.103988   -1.626386
    119          1           0       13.921427    0.929130    0.336769
    120          1           0       14.096408   -0.681812    1.166192
    121          1           0       15.406781    0.271955   -1.551543
    122          1           0       15.696541   -2.310715    0.015950
    123          1           0       14.996122   -2.391593   -1.604731
    124          1           0       16.693214   -2.012156   -1.429018
    125          1           0       15.964183    1.386983    0.691006
    126          1           0       16.643946   -0.279285    1.386076
    127          1           0       18.128902   -0.366102   -0.414002
    128          1           0       17.652652    0.843211   -1.293847
    129          1           0       18.217745    2.383859    0.720717
    130          1           0       18.844442    0.765148    1.508173
    131          1           0       20.750449    0.536790    0.101657
    132          1           0       19.890138    3.146125   -1.089241
    133          1           0       21.272864    2.389580   -1.475725
    134          1           0       19.603792    1.544678   -1.888255
    135          1           0       21.105218    1.847788    2.318303
    136          1           0       21.989234    2.580482    1.295699
    137          1           0       20.587300    3.255926    1.679596
 ---------------------------------------------------------------------

 SCF Done:  E(RCAM-B3LYP) =  -2933.48661364     A.U. after   16 cycles

 Excitation energies and oscillator strengths:

 Excited State   1:      Singlet-A      2.0362 eV  608.91 nm  f=0.2532  <S**2>=0.000
     240 -> 243       -0.24666
     241 -> 242        0.65310
 This state for optimization and/or second-order correction.
 Total Energy, E(TD-HF/TD-DFT) =  -2933.41178559
 Copying the excited state density for this state as the 1-particle RhoCI density.

 The electronic state is 1-A.
 Alpha  occ. eigenvalues --  -46.80165 -19.22733 -19.20622 -19.17185 -19.16653
 Alpha  occ. eigenvalues --  -19.15486 -14.37265 -14.35945 -14.35468 -14.35185
 Alpha  occ. eigenvalues --  -10.35048 -10.34499 -10.30758 -10.27697 -10.26513
 Alpha  occ. eigenvalues --  -10.26372 -10.26236 -10.25917 -10.25794 -10.25241
 Alpha  occ. eigenvalues --  -10.24991 -10.24792 -10.24741 -10.24637 -10.24424
 Alpha  occ. eigenvalues --  -10.24317 -10.24300 -10.24150 -10.23767 -10.23599
 Alpha  occ. eigenvalues --  -10.23444 -10.23395 -10.23254 -10.23189 -10.22951
 Alpha  occ. eigenvalues --  -10.22835 -10.22760 -10.22713 -10.22660 -10.22599
 Alpha  occ. eigenvalues --  -10.22578 -10.22513 -10.22469 -10.22399 -10.22392
 Alpha  occ. eigenvalues --  -10.22105 -10.22079 -10.22062 -10.21753 -10.21496
 Alpha  occ. eigenvalues --  -10.21466 -10.21371 -10.21318 -10.21286 -10.21230
 Alpha  occ. eigenvalues --  -10.21167 -10.21078 -10.20943 -10.20627 -10.20325
 Alpha  occ. eigenvalues --  -10.19589 -10.19292 -10.19281 -10.19173 -10.18665
 Alpha  occ. eigenvalues --   -3.08808  -1.83745  -1.83283  -1.83212  -1.12600
 Alpha  occ. eigenvalues --   -1.12411  -1.04263  -1.03769  -1.01739  -0.99865
 Alpha  occ. eigenvalues --   -0.99288  -0.98418  -0.96773  -0.87271  -0.87256
 Alpha  occ. eigenvalues --   -0.86294  -0.86017  -0.84615  -0.84300  -0.84189
 Alpha  occ. eigenvalues --   -0.83118  -0.82621  -0.82523  -0.82316  -0.81086
 Alpha  occ. eigenvalues --   -0.80465  -0.79876  -0.78867  -0.78783  -0.77997
 Alpha  occ. eigenvalues --   -0.77248  -0.77004  -0.75661  -0.75248  -0.73564
 Alpha  occ. eigenvalues --   -0.73151  -0.72446  -0.72224  -0.71994  -0.71692
 Alpha  occ. eigenvalues --   -0.70791  -0.70363  -0.69245  -0.68862  -0.67876
 Alpha  occ. eigenvalues --   -0.67320  -0.66672  -0.65933  -0.65343  -0.63840
 Alpha  occ. eigenvalues --   -0.62262  -0.62062  -0.61374  -0.60637  -0.60519
 Alpha  occ. eigenvalues --   -0.60123  -0.59523  -0.58847  -0.58536  -0.58207
 Alpha  occ. eigenvalues --   -0.57610  -0.57333  -0.56254  -0.55917  -0.55612
 Alpha  occ. eigenvalues --   -0.55078  -0.54623  -0.54183  -0.53441  -0.53119
 Alpha  occ. eigenvalues --   -0.52724  -0.51824  -0.51483  -0.51341  -0.50968
 Alpha  occ. eigenvalues --   -0.50488  -0.50415  -0.50214  -0.49819  -0.49346
 Alpha  occ. eigenvalues --   -0.48817  -0.48569  -0.48445  -0.48221  -0.48013
 Alpha  occ. eigenvalues --   -0.47872  -0.47497  -0.47300  -0.47146  -0.47046
 Alpha  occ. eigenvalues --   -0.46805  -0.46103  -0.46043  -0.45939  -0.45629
 Alpha  occ. eigenvalues --   -0.45528  -0.45324  -0.45154  -0.45064  -0.44761
 Alpha  occ. eigenvalues --   -0.44397  -0.44310  -0.43987  -0.43843  -0.43715
 Alpha  occ. eigenvalues --   -0.43443  -0.43255  -0.42969  -0.42830  -0.42510
 Alpha  occ. eigenvalues --   -0.42408  -0.42146  -0.42127  -0.42014  -0.41424
 Alpha  occ. eigenvalues --   -0.41343  -0.41165  -0.41118  -0.40931  -0.40717
 Alpha  occ. eigenvalues --   -0.40371  -0.40260  -0.40111  -0.40093  -0.39700
 Alpha  occ. eigenvalues --   -0.39640  -0.39336  -0.38958  -0.38886  -0.38710
 Alpha  occ. eigenvalues --   -0.38549  -0.38474  -0.38414  -0.37956  -0.37884
 Alpha  occ. eigenvalues --   -0.37698  -0.37686  -0.37630  -0.37511  -0.36984
 Alpha  occ. eigenvalues --   -0.36814  -0.36757  -0.36590  -0.36406  -0.35936
 Alpha  occ. eigenvalues --   -0.35635  -0.35586  -0.35193  -0.35012  -0.34966
 Alpha  occ. eigenvalues --   -0.34808  -0.34494  -0.33668  -0.33662  -0.33612
 Alpha  occ. eigenvalues --   -0.33320  -0.33212  -0.32590  -0.32346  -0.32242
 Alpha  occ. eigenvalues --   -0.32038  -0.31919  -0.31214  -0.30902  -0.30604
 Alpha  occ. eigenvalues --   -0.30245  -0.30079  -0.29715  -0.28133  -0.27183
 Alpha  occ. eigenvalues --   -0.26888  -0.26554  -0.26331  -0.25100  -0.21573
 Alpha  occ. eigenvalues --   -0.19975
 Alpha virt. eigenvalues --   -0.07012  -0.04219  -0.00428   0.01540   0.02678
 Alpha virt. eigenvalues --    0.03263   0.04096   0.04471   0.05043   0.06295
 Alpha virt. eigenvalues --    0.06563   0.08430   0.08881   0.09399   0.09620

 Mulliken charges:
               1
     1  Mg   0.824590
     2  C    0.056821
     3  C   -0.196311
     4  C   -0.142745
     5  C   -0.181752
     6  N   -0.625072
     7  C    0.323874
     8  C   -0.170870
     9  C   -0.147601
    10  C    0.353375
    11  C   -0.304152
    12  C   -0.174725
    13  C   -0.281041
    14  C    0.630730
    15  O   -0.465433
    16  O   -0.510386
    17  N   -0.682587
    18  C    0.267151
    19  C    0.014461
    20  C   -0.010031
    21  C    0.352714
    22  C   -0.375471
    23  C   -0.014261
    24  C   -0.269774
    25  N   -0.685714
    26  C    0.240732
    27  C    0.024966
    28  C    0.068323
    29  C    0.255121
    30  C   -0.384646
    31  C   -0.252848
    32  C   -0.322983
    33  N   -0.749722
    34  C    0.300172
    35  C    0.031992
    36  C   -0.009887
    37  C    0.326366
    38  C   -0.358369
    39  C    0.373508
    40  O   -0.499223
    41  C   -0.285773
    42  C    0.610391
    43  O   -0.475665
    44  O   -0.435735
    45  C   -0.070714
    46  C    0.050858
    47  C   -0.143510
    48  C    0.149774
    49  C   -0.378660
    50  C   -0.231858
    51  C   -0.151686
    52  C   -0.173235
    53  C   -0.070683
    54  C   -0.299890
    55  C   -0.126410
    56  C   -0.186699
    57  C   -0.149825
    58  C   -0.060984
    59  C   -0.305992
    60  C   -0.171203
    61  C   -0.170869
    62  C   -0.156316
    63  C   -0.070515
    64  C   -0.317864
    65  C   -0.322633
    66  H    0.069734
    67  H    0.092784
    68  H    0.089095
    69  H    0.117938
    70  H    0.097631
    71  H    0.103833
    72  H    0.106924
    73  H    0.139892
    74  H    0.136213
    75  H    0.125271
    76  H    0.145008
    77  H    0.132057
    78  H    0.135601
    79  H    0.121891
    80  H    0.116886
    81  H    0.080506
    82  H    0.066403
    83  H    0.099328
    84  H    0.104113
    85  H    0.113958
    86  H    0.125103
    87  H    0.117983
    88  H    0.092318
    89  H    0.104520
    90  H    0.114843
    91  H    0.110229
    92  H    0.125864
    93  H    0.113217
    94  H    0.117547
    95  H    0.157540
    96  H    0.081812
    97  H    0.124466
    98  H    0.137465
    99  H    0.115381
   100  H    0.103365
   101  H    0.086676
   102  H    0.102307
   103  H    0.123054
   104  H    0.144290
   105  H    0.068261
   106  H    0.108662
   107  H    0.086976
   108  H    0.069551
   109  H    0.084083
   110  H    0.093149
   111  H    0.074680
   112  H    0.092018
   113  H    0.107998
   114  H    0.067225
   115  H    0.097317
   116  H    0.080226
   117  H    0.074253
   118  H    0.102812
   119  H    0.089028
   120  H    0.066530
   121  H    0.074382
   122  H    0.114160
   123  H    0.071345
   124  H    0.093279
   125  H    0.082446
   126  H    0.082016
   127  H    0.105405
   128  H    0.063684
   129  H    0.089375
   130  H    0.089939
   131  H    0.081401
   132  H    0.089886
   133  H    0.095429
   134  H    0.100990
   135  H    0.104749
   136  H    0.103675
   137  H    0.118429
 Sum of Mulliken charges =  -0.00000

 Dipole moment (field-independent basis, Debye):
    X=              1.9233    Y=              5.1400    Z=              0.4325  Tot=              5.5051
 Quadrupole moment (field-independent basis, Debye-Ang):
   XX=           -346.8229   YY=           -398.4772   ZZ=           -397.1580
   XY=            -17.2341   XZ=             17.8091   YZ=              0.6979

 Normal termination of Gaussian 16 at Tue Sep 17 20:36:00 2019.
