 Gaussian 16, Revision A.03,
 Gaussian 16:  ES64L-G16RevA.03 25-Dec-2016

 ----------------------------------------------------------------------
 # td=(NStates=1) iop(3/107=0140000000,3/108=0140000000) CAM-B3LYP/6-31
 G(d,p)
 ----------------------------------------------------------------------

 --
 TD
 --
 Symbolic Z-matrix:
 Charge =  0 Multiplicity = 1

                         Standard orientation:
 ---------------------------------------------------------------------
 Center     Atomic      Atomic             Coordinates (Angstroms)
 Number     Number       Type             X           Y           Z
 ---------------------------------------------------------------------
      1         12           0       -7.185785    0.599417    0.130568
      2          6           0       -4.750274   -1.981320    0.470808
      3          6           0       -4.859806    2.860494    1.102839
      4          6           0       -9.456021    3.029028   -0.308882
      5          6           0       -9.428022   -1.837107   -1.011980
      6          7           0       -5.221891    0.449914    0.741413
      7          6           0       -4.317959   -0.706792    0.731127
      8          6           0       -2.886227   -0.353986    1.104925
      9          6           0       -3.037309    1.209079    1.600890
     10          6           0       -4.447194    1.430086    1.108072
     11          6           0       -3.057584    1.277045    3.165592
     12          6           0       -1.841391   -0.529656    0.037186
     13          6           0       -0.360024   -0.415093    0.492998
     14          6           0        0.535607   -0.552689   -0.632214
     15          8           0        0.286643   -0.883045   -1.767573
     16          8           0        1.777043   -0.344398   -0.225212
     17          7           0       -7.092353    2.649000    0.166557
     18          6           0       -5.980201    3.415436    0.750598
     19          6           0       -6.492429    4.700171    0.792733
     20          6           0       -7.769856    4.851264    0.438277
     21          6           0       -8.155099    3.488120    0.000718
     22          6           0       -5.655239    5.945996    1.116040
     23          6           0       -8.631179    5.959712    0.204069
     24          6           0       -8.600994    7.136812    0.903545
     25          7           0       -9.208652    0.652083   -0.558768
     26          6           0       -9.907259    1.801622   -0.709090
     27          6           0      -11.258643    1.369450   -1.089895
     28          6           0      -11.230445   -0.057570   -1.298900
     29          6           0       -9.884184   -0.481896   -0.954768
     30          6           0      -12.411928    2.353622   -1.381768
     31          6           0      -12.409782   -0.913296   -1.706928
     32          6           0      -12.290451   -1.385380   -3.111193
     33          7           0       -7.184443   -1.397931   -0.212412
     34          6           0       -8.151916   -2.302045   -0.559588
     35          6           0       -7.734907   -3.726680   -0.501385
     36          6           0       -6.457185   -3.592034   -0.157321
     37          6           0       -6.137521   -2.192985    0.053510
     38          6           0       -8.608541   -4.884182   -0.749316
     39          6           0       -5.252508   -4.351282    0.207094
     40          8           0       -5.064064   -5.606562    0.153236
     41          6           0       -4.048880   -3.278903    0.532243
     42          6           0       -3.501357   -3.597132    1.913653
     43          8           0       -3.848530   -3.118979    2.927627
     44          8           0       -2.736938   -4.688424    1.764186
     45          6           0       -2.178427   -5.323634    3.047850
     46          6           0        2.827541   -0.474112   -1.145352
     47          6           0        4.081689   -0.200137   -0.546338
     48          6           0        5.134086    0.644269   -0.896420
     49          6           0        5.189591    1.446954   -2.089908
     50          6           0        6.378114    0.665903   -0.153016
     51          6           0        7.547978    0.087410   -0.828588
     52          6           0        8.877037    0.015793   -0.151126
     53          6           0       10.204021   -0.467564   -0.907608
     54          6           0       10.025121   -1.896107   -1.321813
     55          6           0       11.371635   -0.253837   -0.006532
     56          6           0       12.825189   -0.540936   -0.738983
     57          6           0       13.972704   -0.028902    0.207683
     58          6           0       15.363414   -0.196924   -0.442362
     59          6           0       15.638992   -1.721829   -0.750936
     60          6           0       16.466206    0.314981    0.579448
     61          6           0       17.849193    0.398215   -0.144419
     62          6           0       18.880039    1.176654    0.731789
     63          6           0       20.311231    1.160751    0.103446
     64          6           0       20.386824    1.951197   -1.163936
     65          6           0       21.197851    1.683860    1.145749
     66          1           0       -3.978611    3.433885    1.433855
     67          1           0      -10.240142    3.763628   -0.303287
     68          1           0      -10.045191   -2.626388   -0.927280
     69          1           0       -2.593675   -0.944976    2.013916
     70          1           0       -2.467302    1.951690    0.996324
     71          1           0       -2.046313    0.938429    3.502378
     72          1           0       -3.185704    2.305808    3.542955
     73          1           0       -3.813417    0.496133    3.227566
     74          1           0       -1.831373   -1.531062   -0.456210
     75          1           0       -2.044430    0.449868   -0.633862
     76          1           0       -0.185123    0.452598    1.296209
     77          1           0       -0.103795   -1.236237    1.156367
     78          1           0       -5.993519    6.774961    0.330301
     79          1           0       -5.875003    6.372682    2.058174
     80          1           0       -4.468465    5.748270    1.048051
     81          1           0       -9.472363    5.706474   -0.665688
     82          1           0       -9.445229    8.008334    0.571610
     83          1           0       -8.004396    7.327061    1.628125
     84          1           0      -11.861730    3.181730   -1.852934
     85          1           0      -13.468903    2.014613   -1.713838
     86          1           0      -12.529856    2.741175   -0.412537
     87          1           0      -12.365901   -1.988486   -1.251764
     88          1           0      -13.434555   -0.346478   -1.489729
     89          1           0      -13.077026   -2.170225   -3.207750
     90          1           0      -12.421187   -0.706092   -3.993353
     91          1           0      -11.358899   -2.008275   -3.483499
     92          1           0       -9.044234   -4.631908   -1.654468
     93          1           0       -7.969554   -5.636719   -1.074472
     94          1           0       -9.401461   -5.223932   -0.006605
     95          1           0       -3.257804   -3.377464   -0.225222
     96          1           0       -1.993412   -4.495282    3.835760
     97          1           0       -2.857696   -6.023948    3.708087
     98          1           0       -1.201028   -5.907509    2.711848
     99          1           0        2.665275   -1.619010   -1.487124
    100          1           0        2.556058   -0.027524   -2.128065
    101          1           0        4.439316   -0.862616    0.340639
    102          1           0        4.287612    1.656853   -2.267764
    103          1           0        5.588825    2.514990   -1.876661
    104          1           0        5.716439    0.986207   -2.849801
    105          1           0        6.399637    1.708230   -0.116230
    106          1           0        6.359063    0.249196    0.840268
    107          1           0        7.338096   -0.918300   -1.367742
    108          1           0        7.718637    0.817467   -1.762278
    109          1           0        9.180880    1.160857    0.219962
    110          1           0        8.665590   -0.657832    0.666499
    111          1           0       10.291906    0.251573   -1.766372
    112          1           0        9.447728   -2.134309   -2.077354
    113          1           0       11.246774   -2.140653   -1.799053
    114          1           0        9.832580   -2.415544   -0.332389
    115          1           0       11.383638    0.750193    0.357044
    116          1           0       11.307543   -1.124841    0.828745
    117          1           0       12.678286   -1.640598   -0.784046
    118          1           0       12.893589    0.069626   -1.639462
    119          1           0       13.905355    0.950092    0.465003
    120          1           0       13.909217   -0.599167    1.138420
    121          1           0       15.260775    0.313316   -1.340369
    122          1           0       15.864516   -2.377141    0.338385
    123          1           0       14.898296   -2.239460   -1.162076
    124          1           0       16.586251   -1.781350   -1.253891
    125          1           0       16.288871    1.374187    1.055245
    126          1           0       16.526988   -0.139546    1.655668
    127          1           0       18.422445   -0.577069   -0.455601
    128          1           0       17.628540    0.977420   -1.124970
    129          1           0       18.533044    2.082498    0.821603
    130          1           0       19.009223    0.824783    1.642208
    131          1           0       20.633721    0.182959   -0.152550
    132          1           0       19.978980    2.987455   -0.936762
    133          1           0       21.299826    2.068495   -1.799866
    134          1           0       19.599609    1.636423   -1.924594
    135          1           0       21.208434    1.141478    2.132404
    136          1           0       22.288944    1.834307    0.944801
    137          1           0       20.824415    2.591308    1.412735
 ---------------------------------------------------------------------

 SCF Done:  E(RCAM-B3LYP) =  -2933.43561697     A.U. after   16 cycles

 Excitation energies and oscillator strengths:

 Excited State   1:      Singlet-A      1.8977 eV  653.34 nm  f=0.2690  <S**2>=0.000
     240 -> 243        0.19061
     241 -> 242        0.67888
 This state for optimization and/or second-order correction.
 Total Energy, E(TD-HF/TD-DFT) =  -2933.36587765
 Copying the excited state density for this state as the 1-particle RhoCI density.

 The electronic state is 1-A.
 Alpha  occ. eigenvalues --  -46.80040 -19.22263 -19.21511 -19.16913 -19.16487
 Alpha  occ. eigenvalues --  -19.15951 -14.39203 -14.35984 -14.34491 -14.33930
 Alpha  occ. eigenvalues --  -10.34148 -10.34102 -10.30929 -10.29687 -10.27852
 Alpha  occ. eigenvalues --  -10.27487 -10.26455 -10.25149 -10.24755 -10.24728
 Alpha  occ. eigenvalues --  -10.24725 -10.24501 -10.24462 -10.24353 -10.24344
 Alpha  occ. eigenvalues --  -10.24340 -10.24114 -10.24064 -10.23999 -10.23329
 Alpha  occ. eigenvalues --  -10.23201 -10.23135 -10.23118 -10.23102 -10.22886
 Alpha  occ. eigenvalues --  -10.22782 -10.22722 -10.22447 -10.22229 -10.22212
 Alpha  occ. eigenvalues --  -10.22169 -10.22131 -10.22092 -10.21998 -10.21962
 Alpha  occ. eigenvalues --  -10.21938 -10.21909 -10.21822 -10.21785 -10.21744
 Alpha  occ. eigenvalues --  -10.21612 -10.21493 -10.21490 -10.21258 -10.20979
 Alpha  occ. eigenvalues --  -10.20914 -10.20754 -10.20578 -10.20468 -10.20409
 Alpha  occ. eigenvalues --  -10.20360 -10.19684 -10.19646 -10.18890 -10.18328
 Alpha  occ. eigenvalues --   -3.08587  -1.83530  -1.83045  -1.83001  -1.14778
 Alpha  occ. eigenvalues --   -1.13231  -1.05006  -1.04853  -1.02729  -0.99871
 Alpha  occ. eigenvalues --   -0.99004  -0.97162  -0.96190  -0.88309  -0.87375
 Alpha  occ. eigenvalues --   -0.85676  -0.85398  -0.85065  -0.84265  -0.84028
 Alpha  occ. eigenvalues --   -0.83483  -0.83300  -0.82865  -0.82146  -0.81442
 Alpha  occ. eigenvalues --   -0.80541  -0.79435  -0.78363  -0.78273  -0.77797
 Alpha  occ. eigenvalues --   -0.77058  -0.76794  -0.75683  -0.75064  -0.74605
 Alpha  occ. eigenvalues --   -0.72835  -0.72613  -0.71712  -0.71338  -0.71288
 Alpha  occ. eigenvalues --   -0.70502  -0.69998  -0.69901  -0.69563  -0.68182
 Alpha  occ. eigenvalues --   -0.67501  -0.66100  -0.65181  -0.64192  -0.63351
 Alpha  occ. eigenvalues --   -0.62366  -0.61668  -0.60947  -0.60536  -0.60217
 Alpha  occ. eigenvalues --   -0.60159  -0.59995  -0.59427  -0.59152  -0.57800
 Alpha  occ. eigenvalues --   -0.57373  -0.56740  -0.56141  -0.55412  -0.55267
 Alpha  occ. eigenvalues --   -0.54580  -0.54173  -0.53624  -0.53434  -0.53087
 Alpha  occ. eigenvalues --   -0.52848  -0.52404  -0.52321  -0.51489  -0.51158
 Alpha  occ. eigenvalues --   -0.50768  -0.50461  -0.50448  -0.50286  -0.49768
 Alpha  occ. eigenvalues --   -0.49346  -0.49016  -0.48927  -0.48420  -0.48331
 Alpha  occ. eigenvalues --   -0.47871  -0.47539  -0.47467  -0.47046  -0.46826
 Alpha  occ. eigenvalues --   -0.46753  -0.46600  -0.46341  -0.45980  -0.45960
 Alpha  occ. eigenvalues --   -0.45525  -0.45442  -0.45320  -0.44913  -0.44814
 Alpha  occ. eigenvalues --   -0.44592  -0.44400  -0.44080  -0.44040  -0.43751
 Alpha  occ. eigenvalues --   -0.43636  -0.43314  -0.43066  -0.42859  -0.42529
 Alpha  occ. eigenvalues --   -0.42290  -0.42207  -0.41934  -0.41716  -0.41497
 Alpha  occ. eigenvalues --   -0.41351  -0.41120  -0.40972  -0.40738  -0.40459
 Alpha  occ. eigenvalues --   -0.40414  -0.40318  -0.40175  -0.39911  -0.39733
 Alpha  occ. eigenvalues --   -0.39582  -0.39497  -0.39293  -0.39049  -0.38878
 Alpha  occ. eigenvalues --   -0.38664  -0.38198  -0.38026  -0.37871  -0.37805
 Alpha  occ. eigenvalues --   -0.37733  -0.37593  -0.37491  -0.37130  -0.36958
 Alpha  occ. eigenvalues --   -0.36807  -0.36520  -0.36459  -0.36062  -0.36050
 Alpha  occ. eigenvalues --   -0.35596  -0.35381  -0.35079  -0.35030  -0.34914
 Alpha  occ. eigenvalues --   -0.34692  -0.34367  -0.34307  -0.33804  -0.33676
 Alpha  occ. eigenvalues --   -0.33663  -0.33134  -0.33120  -0.32783  -0.32581
 Alpha  occ. eigenvalues --   -0.32495  -0.31982  -0.31250  -0.30894  -0.30826
 Alpha  occ. eigenvalues --   -0.29754  -0.29678  -0.29380  -0.28573  -0.27846
 Alpha  occ. eigenvalues --   -0.26492  -0.26440  -0.25101  -0.23597  -0.22370
 Alpha  occ. eigenvalues --   -0.18972
 Alpha virt. eigenvalues --   -0.06759  -0.04176  -0.00657   0.01711   0.02623
 Alpha virt. eigenvalues --    0.03915   0.03959   0.04625   0.05028   0.05759
 Alpha virt. eigenvalues --    0.06283   0.08747   0.08773   0.09114   0.09268

 Mulliken charges:
               1
     1  Mg   0.813547
     2  C    0.098044
     3  C   -0.243082
     4  C   -0.180816
     5  C   -0.140441
     6  N   -0.612740
     7  C    0.258237
     8  C   -0.177395
     9  C   -0.171415
    10  C    0.357441
    11  C   -0.288198
    12  C   -0.140201
    13  C   -0.294673
    14  C    0.634606
    15  O   -0.486254
    16  O   -0.448946
    17  N   -0.728262
    18  C    0.394136
    19  C    0.003222
    20  C    0.074741
    21  C    0.291628
    22  C   -0.380538
    23  C   -0.089317
    24  C   -0.222589
    25  N   -0.694042
    26  C    0.328595
    27  C   -0.027244
    28  C    0.031156
    29  C    0.297759
    30  C   -0.377017
    31  C   -0.231137
    32  C   -0.307497
    33  N   -0.697585
    34  C    0.202915
    35  C    0.025591
    36  C    0.053085
    37  C    0.277465
    38  C   -0.380174
    39  C    0.350917
    40  O   -0.483728
    41  C   -0.336815
    42  C    0.618028
    43  O   -0.448026
    44  O   -0.447018
    45  C   -0.104007
    46  C   -0.000042
    47  C   -0.109724
    48  C    0.084973
    49  C   -0.343973
    50  C   -0.191542
    51  C   -0.168552
    52  C   -0.154521
    53  C   -0.052884
    54  C   -0.270227
    55  C   -0.166700
    56  C   -0.196856
    57  C   -0.169347
    58  C   -0.055858
    59  C   -0.292534
    60  C   -0.174660
    61  C   -0.175205
    62  C   -0.165548
    63  C   -0.053916
    64  C   -0.308295
    65  C   -0.311556
    66  H    0.071806
    67  H    0.065739
    68  H    0.085631
    69  H    0.112832
    70  H    0.108778
    71  H    0.109905
    72  H    0.120315
    73  H    0.142217
    74  H    0.122992
    75  H    0.096328
    76  H    0.123049
    77  H    0.147000
    78  H    0.112246
    79  H    0.131531
    80  H    0.088455
    81  H    0.092722
    82  H    0.082523
    83  H    0.100521
    84  H    0.123150
    85  H    0.113191
    86  H    0.135236
    87  H    0.098872
    88  H    0.094324
    89  H    0.091415
    90  H    0.104897
    91  H    0.098462
    92  H    0.132408
    93  H    0.145836
    94  H    0.131436
    95  H    0.158921
    96  H    0.133402
    97  H    0.133441
    98  H    0.128326
    99  H    0.097181
   100  H    0.125932
   101  H    0.074541
   102  H    0.120946
   103  H    0.090234
   104  H    0.143159
   105  H    0.107748
   106  H    0.090271
   107  H    0.084668
   108  H    0.062585
   109  H    0.054025
   110  H    0.085455
   111  H    0.078140
   112  H    0.120178
   113  H    0.045452
   114  H    0.098147
   115  H    0.094660
   116  H    0.065611
   117  H    0.113297
   118  H    0.091817
   119  H    0.094301
   120  H    0.088291
   121  H    0.092934
   122  H    0.050466
   123  H    0.115062
   124  H    0.108998
   125  H    0.068603
   126  H    0.086093
   127  H    0.084857
   128  H    0.085756
   129  H    0.100411
   130  H    0.098598
   131  H    0.089338
   132  H    0.084419
   133  H    0.101091
   134  H    0.090167
   135  H    0.087047
   136  H    0.088674
   137  H    0.107948
 Sum of Mulliken charges =  -0.00000

 Dipole moment (field-independent basis, Debye):
    X=              3.1173    Y=              4.0713    Z=              2.1369  Tot=              5.5552
 Quadrupole moment (field-independent basis, Debye-Ang):
   XX=           -376.0767   YY=           -395.2493   ZZ=           -396.1138
   XY=            -10.3204   XZ=             -0.7892   YZ=             -1.7918

 Normal termination of Gaussian 16 at Fri Sep 13 12:36:10 2019.
