 Gaussian 16, Revision A.03,
 Gaussian 16:  ES64L-G16RevA.03 25-Dec-2016

 ----------------------------------------------------------------------
 # td=(NStates=1) iop(3/107=0140000000,3/108=0140000000) CAM-B3LYP/6-31
 G(d,p)
 ----------------------------------------------------------------------

 --
 TD
 --
 Symbolic Z-matrix:
 Charge =  0 Multiplicity = 1

                         Standard orientation:
 ---------------------------------------------------------------------
 Center     Atomic      Atomic             Coordinates (Angstroms)
 Number     Number       Type             X           Y           Z
 ---------------------------------------------------------------------
      1         12           0       -7.115676    0.638463    0.043181
      2          6           0       -4.959886   -1.899341    0.518445
      3          6           0       -4.763032    2.952017    1.130930
      4          6           0       -9.363159    3.071835   -0.379920
      5          6           0       -9.527537   -1.734755   -0.987360
      6          7           0       -5.158775    0.401107    0.727238
      7          6           0       -4.429323   -0.721892    0.880031
      8          6           0       -2.971427   -0.405549    1.260257
      9          6           0       -3.100676    1.037692    1.663166
     10          6           0       -4.382319    1.513549    1.211770
     11          6           0       -3.066945    1.227177    3.162019
     12          6           0       -1.956963   -0.584550    0.054626
     13          6           0       -0.520732   -0.590091    0.430652
     14          6           0        0.505094   -0.793363   -0.657898
     15          8           0        0.249090   -0.978019   -1.892822
     16          8           0        1.725418   -0.565786   -0.224932
     17          7           0       -7.051344    2.671058    0.252726
     18          6           0       -5.985478    3.365107    0.789176
     19          6           0       -6.388278    4.788753    0.799006
     20          6           0       -7.680484    4.850132    0.324106
     21          6           0       -8.083770    3.439373    0.044399
     22          6           0       -5.346255    5.904029    1.298412
     23          6           0       -8.451826    6.099588    0.131613
     24          6           0       -8.345891    7.278930    0.857221
     25          7           0       -9.067155    0.690953   -0.539954
     26          6           0       -9.818457    1.820370   -0.620244
     27          6           0      -11.211492    1.458136   -1.226983
     28          6           0      -11.202577    0.068361   -1.277501
     29          6           0       -9.879305   -0.360868   -0.885229
     30          6           0      -12.365610    2.429644   -1.342908
     31          6           0      -12.418165   -0.709417   -1.796986
     32          6           0      -12.334920   -0.912757   -3.328118
     33          7           0       -7.270602   -1.334441   -0.244953
     34          6           0       -8.240340   -2.156609   -0.636255
     35          6           0       -7.887766   -3.654649   -0.586936
     36          6           0       -6.642914   -3.546512   -0.000732
     37          6           0       -6.271126   -2.189367    0.158004
     38          6           0       -8.727819   -4.861783   -0.921969
     39          6           0       -5.448379   -4.257563    0.308091
     40          8           0       -5.205295   -5.504253    0.465661
     41          6           0       -4.264165   -3.237963    0.618388
     42          6           0       -3.619471   -3.628028    1.867148
     43          8           0       -3.710152   -3.166618    2.998295
     44          8           0       -2.707875   -4.758712    1.754803
     45          6           0       -2.130769   -5.228367    2.962679
     46          6           0        2.762885   -0.682746   -1.285416
     47          6           0        4.091307   -0.522768   -0.650603
     48          6           0        5.095844    0.274560   -0.966127
     49          6           0        5.082788    1.087388   -2.181874
     50          6           0        6.353422    0.229239   -0.086283
     51          6           0        7.611404   -0.286699   -0.761919
     52          6           0        8.874988   -0.204254   -0.020299
     53          6           0       10.154210   -0.509242   -0.760616
     54          6           0       10.097720   -1.940945   -1.283247
     55          6           0       11.436220   -0.247726    0.079912
     56          6           0       12.778210   -0.470854   -0.572292
     57          6           0       13.934824   -0.106446    0.121059
     58          6           0       15.312234   -0.270571   -0.431051
     59          6           0       15.752163   -1.687378   -0.845107
     60          6           0       16.583274    0.391877    0.300878
     61          6           0       17.892548    0.551558   -0.326300
     62          6           0       18.865898    1.301785    0.601491
     63          6           0       20.303258    1.394246    0.186696
     64          6           0       20.565682    2.120045   -1.177289
     65          6           0       21.161502    2.116370    1.324460
     66          1           0       -3.977291    3.454037    1.598576
     67          1           0       -9.928197    4.016371   -0.647383
     68          1           0      -10.105243   -2.481262   -1.309116
     69          1           0       -2.651073   -1.056213    2.079495
     70          1           0       -2.411018    1.526491    1.139969
     71          1           0       -2.015888    0.919059    3.512680
     72          1           0       -3.216910    2.318730    3.353457
     73          1           0       -3.828532    0.566543    3.661909
     74          1           0       -2.262567   -1.559514   -0.189195
     75          1           0       -2.237524    0.019563   -0.762641
     76          1           0       -0.104305    0.352949    1.054882
     77          1           0       -0.431739   -1.358082    1.117549
     78          1           0       -5.853441    6.972223    1.060548
     79          1           0       -5.359504    5.830607    2.545615
     80          1           0       -4.194073    5.804200    0.884939
     81          1           0       -9.298044    6.009381   -0.774203
     82          1           0       -8.847137    8.176008    0.412407
     83          1           0       -7.782670    7.469657    1.679069
     84          1           0      -12.353897    3.164760   -2.223577
     85          1           0      -13.310783    1.830588   -1.325910
     86          1           0      -12.264293    3.072563   -0.505314
     87          1           0      -12.409966   -1.699221   -1.286561
     88          1           0      -13.069481   -0.085307   -1.371946
     89          1           0      -12.927083   -1.573866   -3.676960
     90          1           0      -12.445862   -0.041870   -4.021807
     91          1           0      -11.336387   -1.423111   -3.618457
     92          1           0       -8.940170   -4.850869   -2.076766
     93          1           0       -8.339650   -5.840714   -0.603966
     94          1           0       -9.758490   -4.977202   -0.496367
     95          1           0       -3.570618   -3.522904   -0.107656
     96          1           0       -1.407064   -4.478804    3.373492
     97          1           0       -2.749496   -5.423426    3.947424
     98          1           0       -1.425232   -6.192899    2.754399
     99          1           0        2.545106   -1.688121   -1.807515
    100          1           0        2.566761    0.157638   -1.937214
    101          1           0        4.300973   -1.277612    0.101131
    102          1           0        4.087242    1.411033   -2.465100
    103          1           0        5.517167    2.043007   -2.062117
    104          1           0        5.617922    0.465085   -2.967049
    105          1           0        6.617464    1.304377    0.496362
    106          1           0        6.108391   -0.407006    0.852038
    107          1           0        7.532116   -1.431639   -1.111068
    108          1           0        7.812696    0.278349   -1.776534
    109          1           0        8.828293    0.854452    0.363149
    110          1           0        8.800646   -0.675409    0.930024
    111          1           0       10.213443    0.060771   -1.563811
    112          1           0        9.212267   -2.221502   -1.975853
    113          1           0       11.013014   -2.003505   -1.995528
    114          1           0       10.187482   -2.792435   -0.528462
    115          1           0       11.222511    0.793406    0.626770
    116          1           0       11.375468   -0.984148    0.787153
    117          1           0       12.823750   -1.575315   -0.921479
    118          1           0       12.519084    0.080867   -1.464911
    119          1           0       14.102203    0.860606    0.561787
    120          1           0       14.042576   -0.789075    1.133506
    121          1           0       15.413077    0.050676   -1.604490
    122          1           0       15.938198   -2.281734   -0.027183
    123          1           0       14.940853   -1.960339   -1.585823
    124          1           0       16.631442   -1.803694   -1.322082
    125          1           0       16.207361    1.354010    0.807570
    126          1           0       16.753531   -0.186763    1.200559
    127          1           0       18.275497   -0.456660   -0.588845
    128          1           0       17.660776    1.121561   -1.480595
    129          1           0       18.393809    2.305387    0.758860
    130          1           0       18.699790    0.770181    1.624648
    131          1           0       20.728725    0.442544    0.112416
    132          1           0       20.065380    3.228448   -1.161800
    133          1           0       21.697258    2.151079   -1.292092
    134          1           0       20.028662    1.747859   -2.192818
    135          1           0       20.901603    1.676834    2.520240
    136          1           0       22.321397    2.133375    1.294455
    137          1           0       20.954133    3.217505    1.268459
 ---------------------------------------------------------------------

 SCF Done:  E(RCAM-B3LYP) =  -2933.48975286     A.U. after   16 cycles

 Excitation energies and oscillator strengths:

 Excited State   1:      Singlet-A      1.9602 eV  632.50 nm  f=0.2943  <S**2>=0.000
     240 -> 243        0.21638
     241 -> 242        0.67251
 This state for optimization and/or second-order correction.
 Total Energy, E(TD-HF/TD-DFT) =  -2933.41771543
 Copying the excited state density for this state as the 1-particle RhoCI density.

 The electronic state is 1-A.
 Alpha  occ. eigenvalues --  -46.79940 -19.22469 -19.20082 -19.16706 -19.15449
 Alpha  occ. eigenvalues --  -19.15302 -14.38314 -14.35887 -14.35639 -14.35598
 Alpha  occ. eigenvalues --  -10.34543 -10.34399 -10.30466 -10.27890 -10.27272
 Alpha  occ. eigenvalues --  -10.26997 -10.26153 -10.25695 -10.25487 -10.25433
 Alpha  occ. eigenvalues --  -10.25253 -10.25215 -10.25171 -10.25028 -10.24975
 Alpha  occ. eigenvalues --  -10.24747 -10.24273 -10.23954 -10.23799 -10.23559
 Alpha  occ. eigenvalues --  -10.23447 -10.23317 -10.23281 -10.23173 -10.23088
 Alpha  occ. eigenvalues --  -10.22969 -10.22830 -10.22749 -10.22739 -10.22688
 Alpha  occ. eigenvalues --  -10.22613 -10.22583 -10.22577 -10.22524 -10.22405
 Alpha  occ. eigenvalues --  -10.22277 -10.22126 -10.22086 -10.21951 -10.21900
 Alpha  occ. eigenvalues --  -10.21787 -10.21745 -10.21739 -10.21711 -10.21671
 Alpha  occ. eigenvalues --  -10.21496 -10.21450 -10.21307 -10.21150 -10.21072
 Alpha  occ. eigenvalues --  -10.21065 -10.21001 -10.20634 -10.20351 -10.18337
 Alpha  occ. eigenvalues --   -3.08694  -1.83629  -1.83169  -1.83111  -1.13006
 Alpha  occ. eigenvalues --   -1.10060  -1.02388  -1.01974  -1.00883  -1.00147
 Alpha  occ. eigenvalues --   -0.99660  -0.98608  -0.97483  -0.88805  -0.87269
 Alpha  occ. eigenvalues --   -0.86542  -0.86168  -0.85161  -0.84815  -0.84062
 Alpha  occ. eigenvalues --   -0.83773  -0.83203  -0.82860  -0.82403  -0.81831
 Alpha  occ. eigenvalues --   -0.81164  -0.79591  -0.79129  -0.78453  -0.77792
 Alpha  occ. eigenvalues --   -0.77129  -0.76445  -0.76313  -0.76072  -0.74199
 Alpha  occ. eigenvalues --   -0.73132  -0.72462  -0.71779  -0.71368  -0.70543
 Alpha  occ. eigenvalues --   -0.69751  -0.69696  -0.69299  -0.68559  -0.68469
 Alpha  occ. eigenvalues --   -0.67924  -0.67457  -0.66582  -0.65259  -0.64528
 Alpha  occ. eigenvalues --   -0.63181  -0.61961  -0.61769  -0.61240  -0.60785
 Alpha  occ. eigenvalues --   -0.60258  -0.60035  -0.58793  -0.58684  -0.57579
 Alpha  occ. eigenvalues --   -0.57517  -0.56812  -0.56241  -0.56013  -0.55610
 Alpha  occ. eigenvalues --   -0.55031  -0.54398  -0.53884  -0.53673  -0.53390
 Alpha  occ. eigenvalues --   -0.52731  -0.51779  -0.51517  -0.51351  -0.50574
 Alpha  occ. eigenvalues --   -0.50472  -0.50001  -0.49574  -0.49373  -0.49151
 Alpha  occ. eigenvalues --   -0.49010  -0.48681  -0.48430  -0.48217  -0.47979
 Alpha  occ. eigenvalues --   -0.47762  -0.47345  -0.47216  -0.46974  -0.46602
 Alpha  occ. eigenvalues --   -0.46537  -0.46344  -0.46262  -0.46070  -0.45845
 Alpha  occ. eigenvalues --   -0.45484  -0.45328  -0.45288  -0.45235  -0.44795
 Alpha  occ. eigenvalues --   -0.44669  -0.44486  -0.44259  -0.43995  -0.43640
 Alpha  occ. eigenvalues --   -0.43556  -0.43452  -0.43319  -0.43069  -0.42803
 Alpha  occ. eigenvalues --   -0.42619  -0.42306  -0.42131  -0.41891  -0.41784
 Alpha  occ. eigenvalues --   -0.41695  -0.41598  -0.41429  -0.41103  -0.40787
 Alpha  occ. eigenvalues --   -0.40579  -0.40522  -0.40494  -0.40209  -0.39891
 Alpha  occ. eigenvalues --   -0.39717  -0.39535  -0.39216  -0.39106  -0.38990
 Alpha  occ. eigenvalues --   -0.38966  -0.38629  -0.38206  -0.38042  -0.37952
 Alpha  occ. eigenvalues --   -0.37809  -0.37710  -0.37534  -0.37394  -0.37233
 Alpha  occ. eigenvalues --   -0.36903  -0.36785  -0.36686  -0.36486  -0.36134
 Alpha  occ. eigenvalues --   -0.36072  -0.35587  -0.35213  -0.35184  -0.34890
 Alpha  occ. eigenvalues --   -0.34481  -0.34188  -0.34138  -0.33859  -0.33563
 Alpha  occ. eigenvalues --   -0.33505  -0.33409  -0.32555  -0.32380  -0.32272
 Alpha  occ. eigenvalues --   -0.32178  -0.32032  -0.30920  -0.30491  -0.30106
 Alpha  occ. eigenvalues --   -0.29940  -0.29537  -0.29405  -0.28870  -0.27864
 Alpha  occ. eigenvalues --   -0.27536  -0.26271  -0.25951  -0.25367  -0.22383
 Alpha  occ. eigenvalues --   -0.19481
 Alpha virt. eigenvalues --   -0.07101  -0.04037  -0.01026   0.01202   0.02904
 Alpha virt. eigenvalues --    0.03189   0.03652   0.04186   0.04554   0.05186
 Alpha virt. eigenvalues --    0.06542   0.08759   0.09382   0.09620   0.09889

 Mulliken charges:
               1
     1  Mg   0.811767
     2  C    0.071612
     3  C   -0.162773
     4  C   -0.174219
     5  C   -0.127718
     6  N   -0.628965
     7  C    0.309615
     8  C   -0.168089
     9  C   -0.129271
    10  C    0.275743
    11  C   -0.300270
    12  C   -0.171717
    13  C   -0.258952
    14  C    0.605255
    15  O   -0.516672
    16  O   -0.455486
    17  N   -0.729790
    18  C    0.333195
    19  C    0.028056
    20  C   -0.008820
    21  C    0.351440
    22  C   -0.353776
    23  C   -0.092580
    24  C   -0.241952
    25  N   -0.684481
    26  C    0.307728
    27  C    0.026602
    28  C   -0.016970
    29  C    0.307403
    30  C   -0.383637
    31  C   -0.205412
    32  C   -0.307065
    33  N   -0.689762
    34  C    0.241857
    35  C    0.050813
    36  C    0.070984
    37  C    0.250081
    38  C   -0.396488
    39  C    0.306659
    40  O   -0.490092
    41  C   -0.309434
    42  C    0.632417
    43  O   -0.475721
    44  O   -0.469919
    45  C   -0.063611
    46  C    0.011193
    47  C   -0.120558
    48  C    0.143491
    49  C   -0.374343
    50  C   -0.226559
    51  C   -0.156212
    52  C   -0.162167
    53  C   -0.051024
    54  C   -0.319686
    55  C   -0.171140
    56  C   -0.179091
    57  C   -0.136550
    58  C   -0.062509
    59  C   -0.310776
    60  C   -0.177766
    61  C   -0.148459
    62  C   -0.155391
    63  C   -0.044877
    64  C   -0.298749
    65  C   -0.304193
    66  H    0.083753
    67  H    0.077986
    68  H    0.064979
    69  H    0.120421
    70  H    0.111111
    71  H    0.099649
    72  H    0.102343
    73  H    0.134041
    74  H    0.120428
    75  H    0.123563
    76  H    0.114878
    77  H    0.147604
    78  H    0.107240
    79  H    0.101494
    80  H    0.109274
    81  H    0.077918
    82  H    0.100421
    83  H    0.110618
    84  H    0.114042
    85  H    0.113669
    86  H    0.135603
    87  H    0.099635
    88  H    0.109915
    89  H    0.120688
    90  H    0.109510
    91  H    0.095433
    92  H    0.117484
    93  H    0.154340
    94  H    0.127576
    95  H    0.173944
    96  H    0.099832
    97  H    0.115116
    98  H    0.100147
    99  H    0.137613
   100  H    0.123395
   101  H    0.085724
   102  H    0.116129
   103  H    0.118374
   104  H    0.130949
   105  H    0.072678
   106  H    0.096297
   107  H    0.078986
   108  H    0.076406
   109  H    0.070984
   110  H    0.094718
   111  H    0.094647
   112  H    0.097585
   113  H    0.087819
   114  H    0.100448
   115  H    0.074450
   116  H    0.102500
   117  H    0.099229
   118  H    0.097019
   119  H    0.103319
   120  H    0.057812
   121  H    0.050325
   122  H    0.094166
   123  H    0.087998
   124  H    0.111108
   125  H    0.068412
   126  H    0.090183
   127  H    0.094559
   128  H    0.044802
   129  H    0.095118
   130  H    0.081385
   131  H    0.105106
   132  H    0.080072
   133  H    0.103690
   134  H    0.094894
   135  H    0.063156
   136  H    0.095354
   137  H    0.105713
 Sum of Mulliken charges =  -0.00000

 Dipole moment (field-independent basis, Debye):
    X=              1.0925    Y=              4.9410    Z=             -0.3012  Tot=              5.0693
 Quadrupole moment (field-independent basis, Debye-Ang):
   XX=           -327.8578   YY=           -404.3260   ZZ=           -400.7026
   XY=            -19.3795   XZ=             16.4946   YZ=              5.6401

 Normal termination of Gaussian 16 at Wed Sep 11 06:24:22 2019.
