 Gaussian 09, Revision D.01,
 Gaussian 09:  ES64L-G09RevD.01 24-Apr-2013

 -------------------------------------
 # td=(NStates=1) CAM-B3LYP/6-31G(d,p)
 -------------------------------------

 --
 TD
 --
 Symbolic Z-matrix:
 Charge =  0 Multiplicity = 1

                         Standard orientation:
 ---------------------------------------------------------------------
 Center     Atomic      Atomic             Coordinates (Angstroms)
 Number     Number       Type             X           Y           Z
 ---------------------------------------------------------------------
      1         12           0       -7.056884    0.598913    0.139062
      2          6           0       -4.926203   -1.932533    0.654325
      3          6           0       -4.746661    2.772071    1.121620
      4          6           0       -9.341742    3.100055   -0.501065
      5          6           0       -9.474582   -1.772222   -0.985491
      6          7           0       -5.144087    0.414628    0.870709
      7          6           0       -4.411456   -0.729402    1.054875
      8          6           0       -2.882113   -0.425191    1.361140
      9          6           0       -3.048281    1.106762    1.831450
     10          6           0       -4.323642    1.526686    1.209762
     11          6           0       -2.921961    1.205073    3.297008
     12          6           0       -1.894877   -0.652343    0.254928
     13          6           0       -0.449283   -0.506489    0.723608
     14          6           0        0.540908   -0.753399   -0.428169
     15          8           0        0.241313   -1.022093   -1.608869
     16          8           0        1.779744   -0.415420   -0.110863
     17          7           0       -7.023660    2.604205    0.297145
     18          6           0       -6.033518    3.286483    0.767467
     19          6           0       -6.381229    4.701274    0.853242
     20          6           0       -7.712372    4.794288    0.483434
     21          6           0       -8.111751    3.463173    0.100719
     22          6           0       -5.385125    5.720698    1.307956
     23          6           0       -8.551704    6.022698    0.281024
     24          6           0       -8.513159    7.321822    0.719595
     25          7           0       -8.976370    0.670261   -0.704429
     26          6           0       -9.706379    1.763177   -0.836958
     27          6           0      -11.112210    1.465718   -1.225069
     28          6           0      -11.161776    0.151233   -1.440760
     29          6           0       -9.834572   -0.323679   -1.016946
     30          6           0      -12.149398    2.476579   -1.473496
     31          6           0      -12.271262   -0.670103   -1.909115
     32          6           0      -12.301067   -0.899575   -3.455362
     33          7           0       -7.216618   -1.316669   -0.082234
     34          6           0       -8.290052   -2.223374   -0.638640
     35          6           0       -7.858372   -3.577166   -0.631485
     36          6           0       -6.558611   -3.555995   -0.145311
     37          6           0       -6.227169   -2.196993    0.186350
     38          6           0       -8.453573   -4.865818   -0.934316
     39          6           0       -5.393341   -4.360398    0.265304
     40          8           0       -5.146534   -5.509369    0.227251
     41          6           0       -4.244394   -3.371248    0.599993
     42          6           0       -3.447413   -3.728498    1.936379
     43          8           0       -3.618977   -3.016916    2.934339
     44          8           0       -2.751442   -4.722980    1.821639
     45          6           0       -2.117077   -5.252878    2.961178
     46          6           0        2.785959   -0.640300   -1.172219
     47          6           0        4.147488   -0.452783   -0.563789
     48          6           0        5.147444    0.354939   -1.077321
     49          6           0        5.127397    1.112068   -2.355062
     50          6           0        6.332319    0.481515   -0.266449
     51          6           0        7.565272   -0.215432   -1.028519
     52          6           0        8.786790   -0.183898   -0.124742
     53          6           0       10.033458   -0.619477   -0.828241
     54          6           0       10.011728   -2.092026   -1.389898
     55          6           0       11.273837   -0.338300    0.010657
     56          6           0       12.690599   -0.572376   -0.656851
     57          6           0       13.871774   -0.075878    0.192078
     58          6           0       15.215530   -0.236722   -0.486624
     59          6           0       15.633884   -1.585960   -0.844808
     60          6           0       16.320827    0.382466    0.400373
     61          6           0       17.632155    0.631055   -0.238697
     62          6           0       18.686780    1.322294    0.642458
     63          6           0       20.202905    1.392520    0.122951
     64          6           0       20.277453    2.198297   -1.121996
     65          6           0       21.266748    1.990226    1.213205
     66          1           0       -4.162515    3.583766    1.614513
     67          1           0      -10.126739    3.862934   -0.672892
     68          1           0      -10.179424   -2.480027   -1.322921
     69          1           0       -2.811639   -0.986080    2.312409
     70          1           0       -2.192875    1.690521    1.198977
     71          1           0       -1.919119    0.997809    3.594295
     72          1           0       -3.044911    2.364381    3.547562
     73          1           0       -3.952856    0.729441    3.790834
     74          1           0       -2.008221   -1.665038   -0.227082
     75          1           0       -2.142755    0.216230   -0.376819
     76          1           0       -0.407661    0.471380    1.329569
     77          1           0       -0.392550   -1.253390    1.687493
     78          1           0       -5.652059    6.668692    0.639358
     79          1           0       -5.701851    5.692386    2.435974
     80          1           0       -4.447066    5.603445    1.057604
     81          1           0       -9.307174    5.660897   -0.488125
     82          1           0       -9.191395    8.039831    0.508022
     83          1           0       -7.921185    7.841834    1.562323
     84          1           0      -11.675942    3.103655   -2.234741
     85          1           0      -13.043839    1.962956   -2.001497
     86          1           0      -12.331107    2.836949   -0.622486
     87          1           0      -12.185477   -1.718999   -1.352070
     88          1           0      -13.134363   -0.084533   -1.709757
     89          1           0      -13.133599   -1.405279   -3.642353
     90          1           0      -12.483186   -0.101305   -4.241070
     91          1           0      -11.621724   -1.495324   -3.775122
     92          1           0       -8.720224   -4.615489   -2.001687
     93          1           0       -7.872353   -5.843395   -0.769880
     94          1           0       -9.307003   -5.229884   -0.429680
     95          1           0       -3.393881   -3.253902   -0.191544
     96          1           0       -1.262642   -4.363263    3.403679
     97          1           0       -2.866005   -5.509259    3.870879
     98          1           0       -1.643983   -6.006456    2.578797
     99          1           0        2.551317   -1.565240   -1.443974
    100          1           0        2.483714    0.029128   -1.881072
    101          1           0        4.060344   -1.190459    0.195592
    102          1           0        4.106545    1.133289   -2.699459
    103          1           0        5.327314    2.290138   -2.050489
    104          1           0        5.692487    0.896010   -3.078323
    105          1           0        6.451665    1.452177   -0.272766
    106          1           0        6.329498   -0.154059    0.781460
    107          1           0        7.106383   -1.101459   -1.348476
    108          1           0        7.854607    0.232137   -2.068897
    109          1           0        9.065525    0.851871    0.148574
    110          1           0        8.686810   -0.900012    0.577392
    111          1           0       10.138565    0.136156   -1.627878
    112          1           0        9.374009   -2.409088   -2.161270
    113          1           0       11.158399   -2.428018   -1.678335
    114          1           0        9.751887   -2.615126   -0.435404
    115          1           0       11.287815    0.650487    0.404258
    116          1           0       11.384202   -0.876996    0.996606
    117          1           0       12.825432   -1.537391   -0.870417
    118          1           0       12.749472   -0.169498   -1.550400
    119          1           0       13.760907    0.946626    0.494428
    120          1           0       13.750368   -0.918218    1.205265
    121          1           0       15.346424    0.558780   -1.318393
    122          1           0       15.551039   -2.292342   -0.067254
    123          1           0       15.096045   -2.020697   -1.600560
    124          1           0       16.672760   -1.604407   -1.266348
    125          1           0       16.018166    1.229602    0.709382
    126          1           0       16.582566   -0.131794    1.368011
    127          1           0       17.966709   -0.369947   -0.615404
    128          1           0       17.567470    1.419284   -1.157965
    129          1           0       18.486492    2.431426    0.783989
    130          1           0       18.450934    0.622177    1.422275
    131          1           0       20.690956    0.540680   -0.338055
    132          1           0       19.731023    3.193097   -0.848844
    133          1           0       21.265471    2.240477   -1.512935
    134          1           0       19.591138    1.733247   -1.904749
    135          1           0       21.251757    1.461341    2.103923
    136          1           0       22.253736    2.039089    0.792112
    137          1           0       21.102706    2.986063    1.642698
 ---------------------------------------------------------------------

 SCF Done:  E(RCAM-B3LYP) =  -2932.52787142     A.U. after   16 cycles

 Excitation energies and oscillator strengths:

 Excited State   1:      Singlet-A      2.0769 eV  596.98 nm  f=0.2550  <S**2>=0.000
     240 -> 243       -0.23208
     241 -> 242        0.65502
 This state for optimization and/or second-order correction.
 Total Energy, E(TD-HF/TD-KS) =  -2932.45154774
 Copying the excited state density for this state as the 1-particle RhoCI density.

 The electronic state is 1-A.
 Alpha  occ. eigenvalues --  -46.82536 -19.28983 -19.25552 -19.20217 -19.20120
 Alpha  occ. eigenvalues --  -19.19158 -14.40201 -14.39172 -14.38977 -14.38763
 Alpha  occ. eigenvalues --  -10.39372 -10.38653 -10.34692 -10.34094 -10.29987
 Alpha  occ. eigenvalues --  -10.29373 -10.29149 -10.29059 -10.28886 -10.28769
 Alpha  occ. eigenvalues --  -10.28583 -10.28558 -10.28556 -10.28454 -10.28270
 Alpha  occ. eigenvalues --  -10.28258 -10.28007 -10.27770 -10.27612 -10.27604
 Alpha  occ. eigenvalues --  -10.27234 -10.26869 -10.26864 -10.26822 -10.26631
 Alpha  occ. eigenvalues --  -10.26507 -10.26467 -10.26401 -10.26318 -10.26277
 Alpha  occ. eigenvalues --  -10.26254 -10.26189 -10.26059 -10.26017 -10.26011
 Alpha  occ. eigenvalues --  -10.25985 -10.25862 -10.25772 -10.25743 -10.25677
 Alpha  occ. eigenvalues --  -10.25669 -10.25100 -10.25072 -10.24991 -10.24532
 Alpha  occ. eigenvalues --  -10.24509 -10.24498 -10.24464 -10.24346 -10.24153
 Alpha  occ. eigenvalues --  -10.23814 -10.23259 -10.23121 -10.22912 -10.22880
 Alpha  occ. eigenvalues --   -3.11906  -1.86586  -1.86155  -1.86113  -1.24128
 Alpha  occ. eigenvalues --   -1.17779  -1.13318  -1.08049  -1.06933  -1.04389
 Alpha  occ. eigenvalues --   -1.03590  -1.02048  -1.00808  -0.92480  -0.91709
 Alpha  occ. eigenvalues --   -0.90843  -0.90308  -0.89506  -0.89450  -0.88501
 Alpha  occ. eigenvalues --   -0.88245  -0.88030  -0.87406  -0.87135  -0.86042
 Alpha  occ. eigenvalues --   -0.85570  -0.85156  -0.84473  -0.83627  -0.82920
 Alpha  occ. eigenvalues --   -0.82519  -0.82153  -0.80829  -0.79909  -0.78669
 Alpha  occ. eigenvalues --   -0.77916  -0.77494  -0.77014  -0.76473  -0.75725
 Alpha  occ. eigenvalues --   -0.75476  -0.75005  -0.74626  -0.73371  -0.72360
 Alpha  occ. eigenvalues --   -0.71806  -0.70796  -0.70459  -0.68920  -0.68092
 Alpha  occ. eigenvalues --   -0.67459  -0.66718  -0.65168  -0.64260  -0.63972
 Alpha  occ. eigenvalues --   -0.63909  -0.63725  -0.63098  -0.62836  -0.62098
 Alpha  occ. eigenvalues --   -0.61972  -0.61795  -0.59838  -0.59456  -0.59157
 Alpha  occ. eigenvalues --   -0.58512  -0.58051  -0.57867  -0.57385  -0.57177
 Alpha  occ. eigenvalues --   -0.56593  -0.56470  -0.56031  -0.55768  -0.54864
 Alpha  occ. eigenvalues --   -0.54590  -0.54218  -0.53988  -0.53730  -0.53660
 Alpha  occ. eigenvalues --   -0.53115  -0.52935  -0.52852  -0.52644  -0.52379
 Alpha  occ. eigenvalues --   -0.52024  -0.51625  -0.51414  -0.51040  -0.50853
 Alpha  occ. eigenvalues --   -0.50678  -0.50508  -0.50468  -0.50235  -0.49860
 Alpha  occ. eigenvalues --   -0.49342  -0.49125  -0.48753  -0.48581  -0.48488
 Alpha  occ. eigenvalues --   -0.48298  -0.48025  -0.47799  -0.47477  -0.47241
 Alpha  occ. eigenvalues --   -0.46942  -0.46801  -0.46662  -0.46551  -0.46273
 Alpha  occ. eigenvalues --   -0.45990  -0.45793  -0.45183  -0.45050  -0.44740
 Alpha  occ. eigenvalues --   -0.44649  -0.44410  -0.44133  -0.43996  -0.43790
 Alpha  occ. eigenvalues --   -0.43609  -0.43533  -0.43496  -0.43454  -0.43046
 Alpha  occ. eigenvalues --   -0.42990  -0.42933  -0.42671  -0.42350  -0.42168
 Alpha  occ. eigenvalues --   -0.41861  -0.41727  -0.41548  -0.41448  -0.41135
 Alpha  occ. eigenvalues --   -0.40806  -0.40550  -0.40274  -0.40202  -0.40025
 Alpha  occ. eigenvalues --   -0.39774  -0.39570  -0.39069  -0.38974  -0.38805
 Alpha  occ. eigenvalues --   -0.38638  -0.38593  -0.38356  -0.38303  -0.37827
 Alpha  occ. eigenvalues --   -0.37699  -0.37011  -0.36655  -0.36557  -0.36277
 Alpha  occ. eigenvalues --   -0.35930  -0.35725  -0.35709  -0.35512  -0.35219
 Alpha  occ. eigenvalues --   -0.35071  -0.34909  -0.34719  -0.33706  -0.33433
 Alpha  occ. eigenvalues --   -0.32895  -0.32318  -0.31753  -0.30503  -0.29666
 Alpha  occ. eigenvalues --   -0.29242  -0.29007  -0.28117  -0.26772  -0.22521
 Alpha  occ. eigenvalues --   -0.20508
 Alpha virt. eigenvalues --   -0.05572  -0.02175   0.02855   0.04673   0.04817
 Alpha virt. eigenvalues --    0.05275   0.06922   0.07215   0.07346   0.07943
 Alpha virt. eigenvalues --    0.08823   0.10785   0.10981   0.11797   0.11982

 Mulliken charges:
               1
     1  Mg   0.798085
     2  C    0.050368
     3  C   -0.213899
     4  C   -0.171025
     5  C   -0.184639
     6  N   -0.639160
     7  C    0.282831
     8  C   -0.166638
     9  C   -0.158237
    10  C    0.369753
    11  C   -0.289261
    12  C   -0.141785
    13  C   -0.275620
    14  C    0.615530
    15  O   -0.499238
    16  O   -0.482119
    17  N   -0.699872
    18  C    0.349991
    19  C   -0.043805
    20  C    0.008354
    21  C    0.264303
    22  C   -0.346080
    23  C   -0.059951
    24  C   -0.267145
    25  N   -0.639022
    26  C    0.291497
    27  C   -0.032841
    28  C    0.080949
    29  C    0.224978
    30  C   -0.345558
    31  C   -0.256773
    32  C   -0.314244
    33  N   -0.736038
    34  C    0.259379
    35  C    0.059006
    36  C   -0.010202
    37  C    0.302155
    38  C   -0.384038
    39  C    0.382422
    40  O   -0.438587
    41  C   -0.319965
    42  C    0.577600
    43  O   -0.505609
    44  O   -0.340685
    45  C   -0.073470
    46  C    0.014101
    47  C   -0.120967
    48  C    0.081954
    49  C   -0.340744
    50  C   -0.185442
    51  C   -0.201698
    52  C   -0.145018
    53  C   -0.076762
    54  C   -0.306535
    55  C   -0.187188
    56  C   -0.177167
    57  C   -0.156938
    58  C   -0.054058
    59  C   -0.313372
    60  C   -0.161868
    61  C   -0.193104
    62  C   -0.159134
    63  C   -0.061534
    64  C   -0.295248
    65  C   -0.327251
    66  H    0.074000
    67  H    0.100444
    68  H    0.086574
    69  H    0.141883
    70  H    0.081268
    71  H    0.123396
    72  H    0.084912
    73  H    0.119179
    74  H    0.116036
    75  H    0.119040
    76  H    0.132100
    77  H    0.110479
    78  H    0.107556
    79  H    0.127331
    80  H    0.129081
    81  H    0.083106
    82  H    0.110931
    83  H    0.099970
    84  H    0.128509
    85  H    0.096619
    86  H    0.136237
    87  H    0.093048
    88  H    0.105898
    89  H    0.112812
    90  H    0.097365
    91  H    0.117916
    92  H    0.121160
    93  H    0.149773
    94  H    0.135426
    95  H    0.141804
    96  H    0.094080
    97  H    0.137838
    98  H    0.140583
    99  H    0.130612
   100  H    0.124047
   101  H    0.100899
   102  H    0.121473
   103  H    0.086868
   104  H    0.143086
   105  H    0.103912
   106  H    0.093020
   107  H    0.109993
   108  H    0.073330
   109  H    0.098989
   110  H    0.100104
   111  H    0.078784
   112  H    0.116200
   113  H    0.080301
   114  H    0.096837
   115  H    0.091049
   116  H    0.075094
   117  H    0.106054
   118  H    0.096465
   119  H    0.094306
   120  H    0.037040
   121  H    0.082601
   122  H    0.111478
   123  H    0.104886
   124  H    0.096869
   125  H    0.095316
   126  H    0.075347
   127  H    0.093349
   128  H    0.058133
   129  H    0.090249
   130  H    0.091990
   131  H    0.090340
   132  H    0.075148
   133  H    0.105870
   134  H    0.095442
   135  H    0.109777
   136  H    0.100352
   137  H    0.094320
 Sum of Mulliken charges =   0.00000

 Dipole moment (field-independent basis, Debye):
    X=              2.1335    Y=              0.9598    Z=              0.1756  Tot=              2.3460
 Quadrupole moment (field-independent basis, Debye-Ang):
   XX=           -349.7067   YY=           -384.0875   ZZ=           -394.8984
   XY=             -5.6809   XZ=              6.2652   YZ=             -3.3879

 Normal termination of Gaussian 09 at Wed Jul  3 06:47:25 2019.
