 Gaussian 16, Revision A.03,
 Gaussian 16:  ES64L-G16RevA.03 25-Dec-2016

 ----------------------------------------------------------------------
 # td=(NStates=1) iop(3/107=0140000000,3/108=0140000000) CAM-B3LYP/6-31
 G(d,p)
 ----------------------------------------------------------------------

 --
 TD
 --
 Symbolic Z-matrix:
 Charge =  0 Multiplicity = 1

                         Standard orientation:
 ---------------------------------------------------------------------
 Center     Atomic      Atomic             Coordinates (Angstroms)
 Number     Number       Type             X           Y           Z
 ---------------------------------------------------------------------
      1         12           0       -7.096459    0.635685    0.052280
      2          6           0       -4.861418   -1.960412    0.521685
      3          6           0       -4.711222    2.840909    1.280727
      4          6           0       -9.327712    3.092541   -0.353623
      5          6           0       -9.529090   -1.694864   -1.052056
      6          7           0       -5.085033    0.445761    0.837906
      7          6           0       -4.278492   -0.704521    0.918780
      8          6           0       -2.958076   -0.519253    1.361903
      9          6           0       -3.066732    1.039106    1.724754
     10          6           0       -4.356102    1.512464    1.272748
     11          6           0       -2.966857    1.148797    3.322357
     12          6           0       -1.957088   -0.669687    0.119351
     13          6           0       -0.456577   -0.641910    0.583770
     14          6           0        0.557906   -0.735489   -0.559954
     15          8           0        0.338040   -1.080053   -1.655504
     16          8           0        1.758525   -0.433260   -0.097103
     17          7           0       -7.020808    2.568365    0.331605
     18          6           0       -5.920508    3.365578    0.825437
     19          6           0       -6.280516    4.697792    0.892251
     20          6           0       -7.540553    4.815668    0.249043
     21          6           0       -8.070830    3.477072    0.080450
     22          6           0       -5.308535    5.809705    1.299989
     23          6           0       -8.499189    5.958295    0.148545
     24          6           0       -8.399802    7.278441    0.583456
     25          7           0       -9.009341    0.708786   -0.691766
     26          6           0       -9.853462    1.829466   -0.622983
     27          6           0      -11.322026    1.528308   -0.974742
     28          6           0      -11.266372    0.227984   -1.307454
     29          6           0       -9.817920   -0.328382   -1.085319
     30          6           0      -12.316661    2.638594   -1.319601
     31          6           0      -12.351836   -0.645233   -1.835592
     32          6           0      -12.370548   -0.937430   -3.256918
     33          7           0       -7.200142   -1.306620   -0.142337
     34          6           0       -8.254075   -2.171146   -0.629059
     35          6           0       -7.879738   -3.495538   -0.527047
     36          6           0       -6.519155   -3.497097   -0.195230
     37          6           0       -6.205558   -2.111697    0.014273
     38          6           0       -8.803868   -4.695011   -1.011850
     39          6           0       -5.483596   -4.392050    0.193838
     40          8           0       -5.358188   -5.621348    0.127988
     41          6           0       -4.215240   -3.394676    0.515625
     42          6           0       -3.562800   -3.753338    1.897229
     43          8           0       -3.903944   -3.188373    2.908383
     44          8           0       -2.881928   -4.873663    1.844512
     45          6           0       -2.359105   -5.310089    3.074424
     46          6           0        2.838571   -0.574940   -1.097394
     47          6           0        4.160891   -0.419475   -0.458598
     48          6           0        5.179768    0.332047   -0.953627
     49          6           0        5.126319    1.016865   -2.245525
     50          6           0        6.503477    0.429174   -0.227233
     51          6           0        7.633635   -0.272169   -0.939144
     52          6           0        9.000754   -0.052362   -0.247421
     53          6           0       10.184725   -0.521135   -1.027394
     54          6           0       10.190706   -2.085168   -1.330303
     55          6           0       11.478812   -0.267025   -0.152578
     56          6           0       12.765652   -0.543124   -0.841968
     57          6           0       13.951235   -0.006359    0.011930
     58          6           0       15.297116   -0.004370   -0.581842
     59          6           0       15.734968   -1.501991   -1.057828
     60          6           0       16.260770    0.378097    0.453293
     61          6           0       17.641109    0.700242   -0.120386
     62          6           0       18.739311    1.313384    0.805689
     63          6           0       20.239898    1.323644    0.371775
     64          6           0       20.390335    1.931197   -1.043326
     65          6           0       21.227900    1.865209    1.453383
     66          1           0       -4.227425    3.576208    1.883290
     67          1           0       -9.971092    4.043558   -0.443701
     68          1           0      -10.223690   -2.618898   -1.120618
     69          1           0       -2.905466   -1.236700    2.264727
     70          1           0       -2.212679    1.771057    1.371174
     71          1           0       -1.865428    1.112140    3.668190
     72          1           0       -3.357379    2.122581    3.778967
     73          1           0       -3.522371    0.084608    3.824323
     74          1           0       -2.069130   -1.805238   -0.438625
     75          1           0       -2.146400    0.029248   -0.732098
     76          1           0       -0.183593    0.366996    0.945270
     77          1           0       -0.297314   -1.519189    1.216118
     78          1           0       -5.652984    6.707433    0.813849
     79          1           0       -5.444968    5.890893    2.348019
     80          1           0       -4.295641    5.698861    1.133726
     81          1           0       -9.245599    5.666967   -0.764718
     82          1           0       -9.273196    8.048724    0.381125
     83          1           0       -7.501053    7.690592    1.086564
     84          1           0      -11.777069    3.130570   -2.248724
     85          1           0      -13.275632    2.086254   -1.641197
     86          1           0      -12.415935    3.393101   -0.489947
     87          1           0      -12.275770   -1.587649   -1.138214
     88          1           0      -13.344131   -0.012888   -1.756977
     89          1           0      -13.200304   -1.567364   -3.339605
     90          1           0      -12.467069    0.106855   -3.914713
     91          1           0      -11.411101   -1.416118   -3.527375
     92          1           0       -9.358481   -4.551958   -1.809495
     93          1           0       -8.103288   -5.700996   -1.035617
     94          1           0       -9.397919   -5.030702   -0.301038
     95          1           0       -3.613345   -3.581288   -0.254478
     96          1           0       -1.815113   -4.605055    3.816749
     97          1           0       -3.365557   -5.487066    3.625782
     98          1           0       -1.757067   -6.153856    3.102988
     99          1           0        2.840286   -1.581229   -1.629026
    100          1           0        2.623846    0.053888   -1.930067
    101          1           0        4.190244   -0.902661    0.544143
    102          1           0        4.223586    1.145699   -2.766471
    103          1           0        5.300858    2.216975   -2.070663
    104          1           0        5.785980    0.567143   -3.028528
    105          1           0        6.667156    1.521992    0.004616
    106          1           0        6.403762   -0.055394    0.793416
    107          1           0        7.128328   -1.324535   -1.099597
    108          1           0        7.785479    0.148498   -1.861211
    109          1           0        8.891951    1.048905   -0.147627
    110          1           0        8.907439   -0.626362    0.785173
    111          1           0       10.345061    0.180025   -2.063831
    112          1           0        9.239468   -2.266613   -1.933637
    113          1           0       11.079951   -2.173861   -2.011014
    114          1           0       10.206110   -2.944472   -0.591142
    115          1           0       11.423697    0.705875    0.201476
    116          1           0       11.520716   -0.879907    0.890275
    117          1           0       12.911669   -1.561562   -1.033303
    118          1           0       12.727736    0.002433   -1.723860
    119          1           0       13.575746    1.072656    0.271307
    120          1           0       14.076689   -0.634362    0.998694
    121          1           0       15.313081    0.761070   -1.402542
    122          1           0       15.825977   -2.193996   -0.236560
    123          1           0       14.933033   -2.043288   -1.792428
    124          1           0       16.760727   -1.578819   -1.519109
    125          1           0       15.934948    1.372795    1.064943
    126          1           0       16.503659   -0.149237    1.354953
    127          1           0       18.212110   -0.349468   -0.491675
    128          1           0       17.190643    1.239626   -0.929866
    129          1           0       18.241928    2.470444    0.914321
    130          1           0       18.848117    0.728628    1.841408
    131          1           0       20.506641    0.387461    0.109382
    132          1           0       19.991473    3.012214   -0.984641
    133          1           0       21.390737    1.998016   -1.383772
    134          1           0       19.778741    1.318033   -1.780884
    135          1           0       21.107992    1.139029    2.294407
    136          1           0       22.125560    1.876263    0.704695
    137          1           0       21.001194    2.809884    1.808832
 ---------------------------------------------------------------------

 SCF Done:  E(RCAM-B3LYP) =  -2933.46903911     A.U. after   16 cycles

 Excitation energies and oscillator strengths:

 Excited State   1:      Singlet-A      1.9095 eV  649.29 nm  f=0.2927  <S**2>=0.000
     240 -> 243       -0.21367
     241 -> 242        0.66897
 This state for optimization and/or second-order correction.
 Total Energy, E(TD-HF/TD-DFT) =  -2933.39886475
 Copying the excited state density for this state as the 1-particle RhoCI density.

 The electronic state is 1-A.
 Alpha  occ. eigenvalues --  -46.78552 -19.23312 -19.22057 -19.16322 -19.16155
 Alpha  occ. eigenvalues --  -19.15490 -14.37563 -14.36362 -14.35078 -14.34450
 Alpha  occ. eigenvalues --  -10.34404 -10.33425 -10.29860 -10.27288 -10.27279
 Alpha  occ. eigenvalues --  -10.26047 -10.25949 -10.25808 -10.25789 -10.24894
 Alpha  occ. eigenvalues --  -10.24890 -10.24667 -10.24595 -10.24362 -10.24338
 Alpha  occ. eigenvalues --  -10.24307 -10.24284 -10.24248 -10.24140 -10.23957
 Alpha  occ. eigenvalues --  -10.23927 -10.23643 -10.23425 -10.23378 -10.23161
 Alpha  occ. eigenvalues --  -10.23076 -10.23074 -10.23070 -10.22979 -10.22923
 Alpha  occ. eigenvalues --  -10.22909 -10.22666 -10.22562 -10.22544 -10.22363
 Alpha  occ. eigenvalues --  -10.22347 -10.22064 -10.22007 -10.21914 -10.21891
 Alpha  occ. eigenvalues --  -10.21677 -10.21657 -10.21597 -10.21502 -10.21286
 Alpha  occ. eigenvalues --  -10.21127 -10.20950 -10.20903 -10.20886 -10.20862
 Alpha  occ. eigenvalues --  -10.20861 -10.20551 -10.20511 -10.20181 -10.19241
 Alpha  occ. eigenvalues --   -3.07463  -1.82378  -1.81952  -1.81887  -1.15234
 Alpha  occ. eigenvalues --   -1.14406  -1.05497  -1.05126  -1.04063  -0.99464
 Alpha  occ. eigenvalues --   -0.98506  -0.96917  -0.95592  -0.86580  -0.86166
 Alpha  occ. eigenvalues --   -0.85904  -0.84430  -0.84334  -0.83817  -0.83602
 Alpha  occ. eigenvalues --   -0.83008  -0.82611  -0.82287  -0.81879  -0.81331
 Alpha  occ. eigenvalues --   -0.80016  -0.79635  -0.78765  -0.77973  -0.77650
 Alpha  occ. eigenvalues --   -0.76496  -0.76354  -0.75695  -0.74750  -0.73652
 Alpha  occ. eigenvalues --   -0.72981  -0.72372  -0.71381  -0.71003  -0.70830
 Alpha  occ. eigenvalues --   -0.70595  -0.69749  -0.69263  -0.68741  -0.68305
 Alpha  occ. eigenvalues --   -0.66735  -0.65913  -0.64575  -0.64238  -0.63493
 Alpha  occ. eigenvalues --   -0.62009  -0.61622  -0.60754  -0.60651  -0.60228
 Alpha  occ. eigenvalues --   -0.59976  -0.59330  -0.59274  -0.57945  -0.57854
 Alpha  occ. eigenvalues --   -0.57236  -0.56071  -0.55277  -0.55065  -0.54743
 Alpha  occ. eigenvalues --   -0.54187  -0.53648  -0.53382  -0.53054  -0.52767
 Alpha  occ. eigenvalues --   -0.52265  -0.51869  -0.51375  -0.51016  -0.50909
 Alpha  occ. eigenvalues --   -0.50536  -0.50285  -0.50094  -0.49477  -0.49150
 Alpha  occ. eigenvalues --   -0.48974  -0.48823  -0.48241  -0.48110  -0.47688
 Alpha  occ. eigenvalues --   -0.47541  -0.47116  -0.47011  -0.46872  -0.46791
 Alpha  occ. eigenvalues --   -0.46580  -0.46383  -0.46171  -0.46059  -0.45669
 Alpha  occ. eigenvalues --   -0.45396  -0.45228  -0.45133  -0.44992  -0.44720
 Alpha  occ. eigenvalues --   -0.44586  -0.44229  -0.44031  -0.43788  -0.43712
 Alpha  occ. eigenvalues --   -0.43403  -0.43335  -0.43192  -0.42828  -0.42491
 Alpha  occ. eigenvalues --   -0.42345  -0.41988  -0.41669  -0.41564  -0.41409
 Alpha  occ. eigenvalues --   -0.41325  -0.40934  -0.40844  -0.40397  -0.40352
 Alpha  occ. eigenvalues --   -0.40149  -0.40046  -0.39927  -0.39862  -0.39525
 Alpha  occ. eigenvalues --   -0.39356  -0.39310  -0.39228  -0.39152  -0.38912
 Alpha  occ. eigenvalues --   -0.38578  -0.38286  -0.38100  -0.38059  -0.37970
 Alpha  occ. eigenvalues --   -0.37835  -0.37506  -0.37394  -0.37343  -0.36731
 Alpha  occ. eigenvalues --   -0.36673  -0.36560  -0.35947  -0.35720  -0.35638
 Alpha  occ. eigenvalues --   -0.35304  -0.35205  -0.34874  -0.34555  -0.34392
 Alpha  occ. eigenvalues --   -0.34276  -0.34148  -0.34137  -0.33788  -0.33634
 Alpha  occ. eigenvalues --   -0.33568  -0.33337  -0.33060  -0.32815  -0.32461
 Alpha  occ. eigenvalues --   -0.32169  -0.31687  -0.30967  -0.30865  -0.30385
 Alpha  occ. eigenvalues --   -0.30148  -0.29846  -0.29637  -0.28038  -0.27110
 Alpha  occ. eigenvalues --   -0.26756  -0.26597  -0.25985  -0.24468  -0.21399
 Alpha  occ. eigenvalues --   -0.19887
 Alpha virt. eigenvalues --   -0.07705  -0.03317  -0.00275   0.01798   0.03822
 Alpha virt. eigenvalues --    0.03891   0.04754   0.05059   0.05779   0.06258
 Alpha virt. eigenvalues --    0.06654   0.08218   0.08660   0.09569   0.09675

 Mulliken charges:
               1
     1  Mg   0.801320
     2  C    0.052429
     3  C   -0.189044
     4  C   -0.187690
     5  C   -0.170958
     6  N   -0.629062
     7  C    0.304298
     8  C   -0.164388
     9  C   -0.180977
    10  C    0.411146
    11  C   -0.300753
    12  C   -0.169902
    13  C   -0.252397
    14  C    0.583068
    15  O   -0.451203
    16  O   -0.464636
    17  N   -0.733645
    18  C    0.321342
    19  C   -0.011257
    20  C   -0.006149
    21  C    0.325282
    22  C   -0.376922
    23  C   -0.069640
    24  C   -0.269773
    25  N   -0.653211
    26  C    0.266714
    27  C    0.041678
    28  C    0.026095
    29  C    0.298279
    30  C   -0.357439
    31  C   -0.243073
    32  C   -0.276752
    33  N   -0.728317
    34  C    0.231551
    35  C    0.026945
    36  C    0.010153
    37  C    0.342181
    38  C   -0.380075
    39  C    0.338411
    40  O   -0.475318
    41  C   -0.300253
    42  C    0.603199
    43  O   -0.474227
    44  O   -0.402462
    45  C   -0.101814
    46  C    0.006388
    47  C   -0.138214
    48  C    0.135895
    49  C   -0.370368
    50  C   -0.226785
    51  C   -0.173481
    52  C   -0.149460
    53  C   -0.058512
    54  C   -0.314576
    55  C   -0.153014
    56  C   -0.173410
    57  C   -0.163297
    58  C   -0.046190
    59  C   -0.320970
    60  C   -0.172955
    61  C   -0.151653
    62  C   -0.144210
    63  C   -0.068684
    64  C   -0.316673
    65  C   -0.299662
    66  H    0.080967
    67  H    0.071877
    68  H    0.100940
    69  H    0.147537
    70  H    0.098502
    71  H    0.103826
    72  H    0.105689
    73  H    0.094479
    74  H    0.085247
    75  H    0.125811
    76  H    0.126784
    77  H    0.141184
    78  H    0.122091
    79  H    0.133000
    80  H    0.128606
    81  H    0.085671
    82  H    0.101216
    83  H    0.106676
    84  H    0.126823
    85  H    0.111227
    86  H    0.129799
    87  H    0.097601
    88  H    0.081331
    89  H    0.120333
    90  H    0.080967
    91  H    0.107689
    92  H    0.129431
    93  H    0.122827
    94  H    0.140990
    95  H    0.148840
    96  H    0.115658
    97  H    0.123293
    98  H    0.134114
    99  H    0.125924
   100  H    0.124491
   101  H    0.093331
   102  H    0.120999
   103  H    0.087446
   104  H    0.125374
   105  H    0.088377
   106  H    0.090982
   107  H    0.082982
   108  H    0.102705
   109  H    0.094016
   110  H    0.082548
   111  H    0.057646
   112  H    0.093332
   113  H    0.105875
   114  H    0.110703
   115  H    0.088846
   116  H    0.062245
   117  H    0.106261
   118  H    0.091852
   119  H    0.074762
   120  H    0.075965
   121  H    0.087992
   122  H    0.114080
   123  H    0.077815
   124  H    0.107656
   125  H    0.057665
   126  H    0.101440
   127  H    0.047671
   128  H    0.097999
   129  H    0.052576
   130  H    0.065489
   131  H    0.105045
   132  H    0.085477
   133  H    0.098754
   134  H    0.103096
   135  H    0.102675
   136  H    0.094117
   137  H    0.119838
 Sum of Mulliken charges =  -0.00000

 Dipole moment (field-independent basis, Debye):
    X=              2.0178    Y=              4.1598    Z=              0.1901  Tot=              4.6273
 Quadrupole moment (field-independent basis, Debye-Ang):
   XX=           -350.6505   YY=           -396.1431   ZZ=           -398.6167
   XY=            -25.6977   XZ=             10.9025   YZ=             -4.5261

 Normal termination of Gaussian 16 at Mon Sep 16 02:19:00 2019.
