 Gaussian 09, Revision D.01,
 Gaussian 09:  ES64L-G09RevD.01 24-Apr-2013

 -------------------------------------
 # td=(NStates=1) CAM-B3LYP/6-31G(d,p)
 -------------------------------------

 --
 TD
 --
 Symbolic Z-matrix:
 Charge =  0 Multiplicity = 1

                         Standard orientation:
 ---------------------------------------------------------------------
 Center     Atomic      Atomic             Coordinates (Angstroms)
 Number     Number       Type             X           Y           Z
 ---------------------------------------------------------------------
      1         12           0       -7.193647    0.560695    0.113867
      2          6           0       -4.782437   -1.938270    0.452460
      3          6           0       -4.829227    2.855792    1.042845
      4          6           0       -9.460453    3.121047   -0.335963
      5          6           0       -9.580663   -1.793126   -0.878068
      6          7           0       -5.103808    0.443899    0.671270
      7          6           0       -4.357470   -0.642832    0.834427
      8          6           0       -2.965707   -0.366386    1.231956
      9          6           0       -3.114053    1.040724    1.695134
     10          6           0       -4.432666    1.523788    1.222871
     11          6           0       -3.002579    1.288416    3.153678
     12          6           0       -1.999004   -0.589570    0.034612
     13          6           0       -0.523560   -0.529151    0.570092
     14          6           0        0.487304   -0.767667   -0.599522
     15          8           0        0.130445   -1.133575   -1.725550
     16          8           0        1.764561   -0.511886   -0.211317
     17          7           0       -7.227274    2.627095    0.307597
     18          6           0       -6.130373    3.364592    0.766295
     19          6           0       -6.423252    4.815672    0.678657
     20          6           0       -7.761730    4.907228    0.285402
     21          6           0       -8.174161    3.474371    0.058540
     22          6           0       -5.524689    5.903002    1.151653
     23          6           0       -8.628919    6.002768    0.166696
     24          6           0       -8.631199    7.263456    0.725431
     25          7           0       -9.089189    0.709609   -0.495471
     26          6           0       -9.883431    1.805496   -0.724153
     27          6           0      -11.168372    1.506360   -1.037677
     28          6           0      -11.177662    0.138672   -1.213497
     29          6           0       -9.888959   -0.352946   -0.904581
     30          6           0      -12.210936    2.427470   -1.318168
     31          6           0      -12.423968   -0.692283   -1.668017
     32          6           0      -12.383610   -0.914492   -3.236098
     33          7           0       -7.276145   -1.404543   -0.165792
     34          6           0       -8.375922   -2.240140   -0.504348
     35          6           0       -7.858997   -3.693961   -0.479831
     36          6           0       -6.607593   -3.614762   -0.128387
     37          6           0       -6.240986   -2.213074    0.136544
     38          6           0       -8.729106   -4.863091   -0.872485
     39          6           0       -5.338799   -4.385021    0.195040
     40          8           0       -5.128497   -5.530168    0.217625
     41          6           0       -4.126563   -3.295709    0.547200
     42          6           0       -3.553579   -3.680709    1.935710
     43          8           0       -3.838148   -3.086881    2.952128
     44          8           0       -2.691088   -4.704081    1.842669
     45          6           0       -2.015782   -5.150777    3.064927
     46          6           0        2.758421   -0.873384   -1.244541
     47          6           0        4.167074   -0.625778   -0.577752
     48          6           0        5.086338    0.197741   -1.147790
     49          6           0        5.008697    1.025711   -2.456106
     50          6           0        6.490201    0.307604   -0.356996
     51          6           0        7.731975   -0.245361   -1.118943
     52          6           0        8.997420   -0.038024   -0.245566
     53          6           0       10.373411   -0.622194   -0.881424
     54          6           0       10.235231   -2.084114   -1.209513
     55          6           0       11.475473   -0.269307   -0.015969
     56          6           0       12.912023   -0.507506   -0.685390
     57          6           0       14.042257   -0.111104    0.234651
     58          6           0       15.380311   -0.299981   -0.368481
     59          6           0       15.826464   -1.718208   -0.870247
     60          6           0       16.466133    0.344488    0.459875
     61          6           0       17.877057    0.604730   -0.097647
     62          6           0       18.820728    1.372547    0.744299
     63          6           0       20.342129    1.515912    0.301161
     64          6           0       20.550282    2.345751   -1.007510
     65          6           0       21.147310    2.177643    1.382872
     66          1           0       -4.104902    3.468620    1.574088
     67          1           0      -10.186249    3.955528   -0.400181
     68          1           0      -10.341675   -2.559379   -1.216552
     69          1           0       -2.625133   -1.147163    2.042934
     70          1           0       -2.287712    1.667932    1.216641
     71          1           0       -2.067716    0.896488    3.507172
     72          1           0       -3.020366    2.408808    3.539353
     73          1           0       -3.865878    0.757148    3.605294
     74          1           0       -1.976012   -1.426568   -0.395800
     75          1           0       -2.021771    0.234754   -0.812863
     76          1           0       -0.215876    0.345550    0.911282
     77          1           0       -0.336717   -1.130894    1.432302
     78          1           0       -5.777559    6.892083    0.678554
     79          1           0       -5.453226    6.028136    2.269502
     80          1           0       -4.488756    5.616355    0.943652
     81          1           0       -9.753315    5.875491   -0.319198
     82          1           0       -9.384362    7.966915    0.465061
     83          1           0       -7.834768    7.625738    1.423685
     84          1           0      -12.196727    3.110547   -2.145868
     85          1           0      -13.234560    1.923616   -1.334532
     86          1           0      -12.362278    3.024745   -0.484797
     87          1           0      -12.577399   -1.679892   -1.123246
     88          1           0      -13.399522   -0.228244   -1.192932
     89          1           0      -13.208762   -1.418801   -3.710849
     90          1           0      -12.601067    0.168545   -3.697722
     91          1           0      -11.466448   -1.550319   -3.527955
     92          1           0       -9.452533   -4.656192   -1.810551
     93          1           0       -8.066567   -5.757118   -1.026068
     94          1           0       -9.380816   -5.245500    0.187980
     95          1           0       -3.379038   -3.354004   -0.172318
     96          1           0       -1.675079   -4.153520    3.487753
     97          1           0       -2.732900   -5.774264    3.644001
     98          1           0       -1.502406   -5.958330    2.814401
     99          1           0        2.683225   -1.915236   -1.520699
    100          1           0        2.861899   -0.204715   -2.151078
    101          1           0        4.529371   -0.989176    0.261159
    102          1           0        4.002836    1.171902   -2.827264
    103          1           0        5.275946    2.168146   -2.473321
    104          1           0        5.557052    0.746936   -3.207024
    105          1           0        6.527983    1.333027   -0.020022
    106          1           0        6.295023   -0.333696    0.577553
    107          1           0        7.486640   -1.255886   -1.458052
    108          1           0        7.940235    0.453955   -1.997758
    109          1           0        9.157162    0.981299   -0.028486
    110          1           0        8.847810   -0.117234    0.844345
    111          1           0       10.582582    0.001181   -1.638027
    112          1           0        9.571425   -2.218246   -2.028906
    113          1           0       11.147324   -2.217784   -1.695824
    114          1           0        9.863557   -2.747522   -0.430092
    115          1           0       11.204888    0.792676    0.205220
    116          1           0       11.386144   -0.977230    0.983082
    117          1           0       12.985355   -1.606462   -1.055580
    118          1           0       12.997472    0.112776   -1.583267
    119          1           0       13.937218    0.953483    0.741453
    120          1           0       13.997857   -0.712190    1.146141
    121          1           0       15.711023    0.397788   -1.235326
    122          1           0       15.875774   -2.452191   -0.031162
    123          1           0       14.987715   -2.145661   -1.595962
    124          1           0       16.895075   -1.753677   -1.451894
    125          1           0       16.218205    1.366919    0.708029
    126          1           0       16.784149   -0.239070    1.393974
    127          1           0       18.409604   -0.256928   -0.343464
    128          1           0       17.869550    0.964714   -1.171430
    129          1           0       18.301669    2.461657    0.565555
    130          1           0       18.869708    0.960549    1.836577
    131          1           0       20.597047    0.464117    0.043032
    132          1           0       20.061646    3.186277   -0.964110
    133          1           0       21.518312    2.237913   -1.458236
    134          1           0       19.887300    1.855563   -1.986757
    135          1           0       21.078805    1.635813    2.389529
    136          1           0       22.215087    1.897064    1.372605
    137          1           0       20.939955    3.171990    1.389028
 ---------------------------------------------------------------------

 SCF Done:  E(RCAM-B3LYP) =  -2932.64691863     A.U. after   17 cycles

 Excitation energies and oscillator strengths:

 Excited State   1:      Singlet-A      2.1148 eV  586.27 nm  f=0.1657  <S**2>=0.000
     240 -> 243        0.28323
     241 -> 242        0.62999
 This state for optimization and/or second-order correction.
 Total Energy, E(TD-HF/TD-KS) =  -2932.56920122
 Copying the excited state density for this state as the 1-particle RhoCI density.

 The electronic state is 1-A.
 Alpha  occ. eigenvalues --  -46.83765 -19.27379 -19.26295 -19.22267 -19.21228
 Alpha  occ. eigenvalues --  -19.20797 -14.41070 -14.39961 -14.39396 -14.38097
 Alpha  occ. eigenvalues --  -10.39777 -10.39248 -10.36624 -10.33017 -10.31653
 Alpha  occ. eigenvalues --  -10.30606 -10.30501 -10.30342 -10.30238 -10.29850
 Alpha  occ. eigenvalues --  -10.29329 -10.29262 -10.28511 -10.28151 -10.28068
 Alpha  occ. eigenvalues --  -10.28039 -10.27989 -10.27872 -10.27750 -10.27423
 Alpha  occ. eigenvalues --  -10.27203 -10.27036 -10.26858 -10.26810 -10.26779
 Alpha  occ. eigenvalues --  -10.26692 -10.26651 -10.26646 -10.26620 -10.26570
 Alpha  occ. eigenvalues --  -10.26569 -10.26498 -10.26435 -10.26433 -10.26353
 Alpha  occ. eigenvalues --  -10.26344 -10.26303 -10.26175 -10.26137 -10.26115
 Alpha  occ. eigenvalues --  -10.26106 -10.25901 -10.25849 -10.25602 -10.25568
 Alpha  occ. eigenvalues --  -10.24898 -10.24875 -10.24858 -10.24600 -10.24522
 Alpha  occ. eigenvalues --  -10.24255 -10.23906 -10.23867 -10.23477 -10.23361
 Alpha  occ. eigenvalues --   -3.12881  -1.87581  -1.87109  -1.87076  -1.17870
 Alpha  occ. eigenvalues --   -1.17353  -1.15340  -1.09198  -1.08498  -1.05044
 Alpha  occ. eigenvalues --   -1.03721  -1.02979  -1.01743  -0.91463  -0.90823
 Alpha  occ. eigenvalues --   -0.90555  -0.90374  -0.89464  -0.88558  -0.88428
 Alpha  occ. eigenvalues --   -0.88383  -0.87676  -0.87362  -0.86976  -0.85978
 Alpha  occ. eigenvalues --   -0.84942  -0.84088  -0.83629  -0.83083  -0.81736
 Alpha  occ. eigenvalues --   -0.81450  -0.81011  -0.80208  -0.79672  -0.78245
 Alpha  occ. eigenvalues --   -0.77319  -0.77255  -0.76520  -0.76304  -0.76133
 Alpha  occ. eigenvalues --   -0.75969  -0.74699  -0.74378  -0.73469  -0.71785
 Alpha  occ. eigenvalues --   -0.71660  -0.70866  -0.69529  -0.68463  -0.67843
 Alpha  occ. eigenvalues --   -0.66690  -0.66497  -0.65557  -0.64517  -0.64311
 Alpha  occ. eigenvalues --   -0.63914  -0.63572  -0.62988  -0.62526  -0.61671
 Alpha  occ. eigenvalues --   -0.61473  -0.60827  -0.60133  -0.59729  -0.58814
 Alpha  occ. eigenvalues --   -0.58561  -0.58322  -0.57311  -0.56967  -0.56726
 Alpha  occ. eigenvalues --   -0.56216  -0.55718  -0.55293  -0.54904  -0.54790
 Alpha  occ. eigenvalues --   -0.54419  -0.54369  -0.54131  -0.53764  -0.53557
 Alpha  occ. eigenvalues --   -0.53069  -0.52818  -0.52414  -0.52045  -0.51730
 Alpha  occ. eigenvalues --   -0.51607  -0.51404  -0.50730  -0.50473  -0.50175
 Alpha  occ. eigenvalues --   -0.50146  -0.50070  -0.49877  -0.49730  -0.49478
 Alpha  occ. eigenvalues --   -0.49125  -0.48945  -0.48926  -0.48749  -0.48477
 Alpha  occ. eigenvalues --   -0.47997  -0.47554  -0.47388  -0.47110  -0.47083
 Alpha  occ. eigenvalues --   -0.47031  -0.46694  -0.46494  -0.46080  -0.45909
 Alpha  occ. eigenvalues --   -0.45834  -0.45709  -0.45465  -0.45216  -0.45180
 Alpha  occ. eigenvalues --   -0.44941  -0.44656  -0.44600  -0.44360  -0.44160
 Alpha  occ. eigenvalues --   -0.43947  -0.43886  -0.43633  -0.43460  -0.43211
 Alpha  occ. eigenvalues --   -0.43110  -0.42578  -0.42519  -0.42463  -0.42336
 Alpha  occ. eigenvalues --   -0.42116  -0.42004  -0.41576  -0.41503  -0.41178
 Alpha  occ. eigenvalues --   -0.41038  -0.40905  -0.40491  -0.40398  -0.40212
 Alpha  occ. eigenvalues --   -0.40170  -0.39969  -0.39307  -0.38965  -0.38687
 Alpha  occ. eigenvalues --   -0.38378  -0.38137  -0.38112  -0.37766  -0.37411
 Alpha  occ. eigenvalues --   -0.37191  -0.37105  -0.36727  -0.36621  -0.36496
 Alpha  occ. eigenvalues --   -0.36395  -0.36238  -0.35983  -0.35923  -0.35653
 Alpha  occ. eigenvalues --   -0.35536  -0.34313  -0.34033  -0.33856  -0.33748
 Alpha  occ. eigenvalues --   -0.33428  -0.33247  -0.32353  -0.31183  -0.30486
 Alpha  occ. eigenvalues --   -0.30420  -0.29652  -0.27315  -0.26301  -0.22710
 Alpha  occ. eigenvalues --   -0.20510
 Alpha virt. eigenvalues --   -0.05210  -0.03512   0.01953   0.03997   0.06014
 Alpha virt. eigenvalues --    0.06098   0.06318   0.06624   0.07033   0.07902
 Alpha virt. eigenvalues --    0.08542   0.10905   0.11291   0.11666   0.11688

 Mulliken charges:
               1
     1  Mg   0.830297
     2  C    0.015752
     3  C   -0.185166
     4  C   -0.166503
     5  C   -0.179032
     6  N   -0.623442
     7  C    0.341965
     8  C   -0.157515
     9  C   -0.170184
    10  C    0.313904
    11  C   -0.296574
    12  C   -0.146462
    13  C   -0.280649
    14  C    0.600860
    15  O   -0.482036
    16  O   -0.471683
    17  N   -0.673030
    18  C    0.263472
    19  C    0.016934
    20  C    0.070244
    21  C    0.312064
    22  C   -0.380724
    23  C   -0.123162
    24  C   -0.248877
    25  N   -0.694409
    26  C    0.267010
    27  C    0.082158
    28  C   -0.003976
    29  C    0.269393
    30  C   -0.393791
    31  C   -0.246352
    32  C   -0.297474
    33  N   -0.714828
    34  C    0.283600
    35  C    0.012588
    36  C    0.028285
    37  C    0.278119
    38  C   -0.368032
    39  C    0.378499
    40  O   -0.396823
    41  C   -0.304491
    42  C    0.604943
    43  O   -0.475964
    44  O   -0.463693
    45  C   -0.071395
    46  C    0.015787
    47  C   -0.117824
    48  C    0.089016
    49  C   -0.379303
    50  C   -0.234417
    51  C   -0.163624
    52  C   -0.204242
    53  C   -0.047652
    54  C   -0.306804
    55  C   -0.160265
    56  C   -0.191572
    57  C   -0.166084
    58  C   -0.039565
    59  C   -0.306730
    60  C   -0.164289
    61  C   -0.197971
    62  C   -0.150331
    63  C   -0.065482
    64  C   -0.299029
    65  C   -0.296737
    66  H    0.074899
    67  H    0.087229
    68  H    0.105961
    69  H    0.120290
    70  H    0.106414
    71  H    0.106955
    72  H    0.097232
    73  H    0.122424
    74  H    0.134204
    75  H    0.111011
    76  H    0.138638
    77  H    0.128547
    78  H    0.120027
    79  H    0.121208
    80  H    0.115173
    81  H    0.077888
    82  H    0.106262
    83  H    0.098036
    84  H    0.127710
    85  H    0.096907
    86  H    0.121935
    87  H    0.090828
    88  H    0.089786
    89  H    0.105265
    90  H    0.098814
    91  H    0.107069
    92  H    0.119236
    93  H    0.145870
    94  H    0.102176
    95  H    0.156964
    96  H    0.140772
    97  H    0.124234
    98  H    0.136568
    99  H    0.139637
   100  H    0.123331
   101  H    0.078235
   102  H    0.116321
   103  H    0.098273
   104  H    0.141930
   105  H    0.110289
   106  H    0.084994
   107  H    0.107335
   108  H    0.091929
   109  H    0.086754
   110  H    0.081633
   111  H    0.095547
   112  H    0.101507
   113  H    0.102375
   114  H    0.111238
   115  H    0.084808
   116  H    0.058946
   117  H    0.097348
   118  H    0.096505
   119  H    0.087199
   120  H    0.100246
   121  H    0.078402
   122  H    0.102600
   123  H    0.084906
   124  H    0.095927
   125  H    0.092420
   126  H    0.070575
   127  H    0.087698
   128  H    0.075370
   129  H    0.056229
   130  H    0.083038
   131  H    0.083785
   132  H    0.121086
   133  H    0.118577
   134  H    0.043301
   135  H    0.086041
   136  H    0.101938
   137  H    0.118493
 Sum of Mulliken charges =   0.00000

 Dipole moment (field-independent basis, Debye):
    X=              3.8171    Y=              1.2187    Z=              0.9680  Tot=              4.1222
 Quadrupole moment (field-independent basis, Debye-Ang):
   XX=           -353.7231   YY=           -384.8556   ZZ=           -396.9153
   XY=             -3.3517   XZ=              1.9381   YZ=             -2.5760

 Normal termination of Gaussian 09 at Fri Jul  5 07:37:11 2019.
