 Gaussian 16, Revision A.03,
 Gaussian 16:  ES64L-G16RevA.03 25-Dec-2016

 ----------------------------------------------------------------------
 # td=(NStates=1) iop(3/107=0140000000,3/108=0140000000) CAM-B3LYP/6-31
 G(d,p)
 ----------------------------------------------------------------------

 --
 TD
 --
 Symbolic Z-matrix:
 Charge =  0 Multiplicity = 1

                         Standard orientation:
 ---------------------------------------------------------------------
 Center     Atomic      Atomic             Coordinates (Angstroms)
 Number     Number       Type             X           Y           Z
 ---------------------------------------------------------------------
      1         12           0       -7.160023    0.673838    0.161962
      2          6           0       -4.877885   -2.021882    0.655534
      3          6           0       -4.717886    2.791298    1.267895
      4          6           0       -9.301637    3.100135   -0.490090
      5          6           0       -9.453889   -1.709302   -0.952005
      6          7           0       -5.088348    0.463286    0.843581
      7          6           0       -4.283295   -0.742303    0.921665
      8          6           0       -2.870702   -0.474807    1.299082
      9          6           0       -3.007556    0.937615    1.798360
     10          6           0       -4.367796    1.463794    1.280553
     11          6           0       -3.145208    0.964510    3.329089
     12          6           0       -2.001619   -0.564101    0.164030
     13          6           0       -0.465027   -0.414026    0.526210
     14          6           0        0.471329   -0.635586   -0.650633
     15          8           0        0.100811   -1.147795   -1.700051
     16          8           0        1.767524   -0.357821   -0.215185
     17          7           0       -7.060848    2.593737    0.308229
     18          6           0       -5.937523    3.430079    0.764669
     19          6           0       -6.322994    4.755206    0.879894
     20          6           0       -7.707602    4.870614    0.405930
     21          6           0       -8.060605    3.466595    0.045207
     22          6           0       -5.389871    5.820092    1.295745
     23          6           0       -8.474606    6.015420    0.261975
     24          6           0       -8.286021    7.248992    0.626911
     25          7           0       -9.015667    0.699090   -0.581420
     26          6           0       -9.832317    1.851135   -0.740138
     27          6           0      -11.103929    1.536244   -1.283542
     28          6           0      -11.135710    0.212885   -1.395740
     29          6           0       -9.837741   -0.310543   -0.969659
     30          6           0      -12.173829    2.447240   -1.499180
     31          6           0      -12.248320   -0.745144   -1.998078
     32          6           0      -12.069291   -1.289168   -3.338669
     33          7           0       -7.207441   -1.406065   -0.066105
     34          6           0       -8.269458   -2.213322   -0.529415
     35          6           0       -7.845727   -3.640878   -0.494818
     36          6           0       -6.553287   -3.554553    0.029434
     37          6           0       -6.204750   -2.210982    0.280264
     38          6           0       -8.770640   -4.766716   -0.853104
     39          6           0       -5.302606   -4.338469    0.183198
     40          8           0       -5.084828   -5.604427    0.131179
     41          6           0       -4.127988   -3.392786    0.575564
     42          6           0       -3.510492   -3.627342    1.964066
     43          8           0       -3.739025   -3.073786    2.939311
     44          8           0       -2.702839   -4.667766    1.880448
     45          6           0       -2.196817   -5.280952    3.099997
     46          6           0        2.925803   -0.587776   -1.219640
     47          6           0        4.130319   -0.272275   -0.494416
     48          6           0        5.024583    0.417591   -1.041184
     49          6           0        5.010092    1.252303   -2.425801
     50          6           0        6.363636    0.500914   -0.237927
     51          6           0        7.588811    0.003997   -1.097326
     52          6           0        8.810342   -0.027475   -0.258532
     53          6           0       10.079564   -0.434752   -1.103176
     54          6           0        9.947742   -1.934630   -1.591168
     55          6           0       11.330948   -0.356753   -0.113247
     56          6           0       12.693524   -0.557301   -0.787076
     57          6           0       13.844899   -0.229601    0.166548
     58          6           0       15.201423   -0.258862   -0.636410
     59          6           0       15.691657   -1.666612   -1.037235
     60          6           0       16.335657    0.343877    0.407247
     61          6           0       17.703229    0.487068   -0.206050
     62          6           0       18.761702    1.202125    0.756692
     63          6           0       20.291330    1.361651    0.424689
     64          6           0       20.323375    2.063847   -0.937442
     65          6           0       21.031272    1.900926    1.530959
     66          1           0       -3.967207    3.563392    1.478737
     67          1           0       -9.962577    3.887013   -0.325745
     68          1           0      -10.264924   -2.425928   -1.212002
     69          1           0       -2.612809   -1.181451    2.062126
     70          1           0       -2.223737    1.614620    1.560570
     71          1           0       -2.085477    0.717137    3.970653
     72          1           0       -3.212279    1.930989    3.874490
     73          1           0       -3.703462    0.178698    3.846786
     74          1           0       -1.867086   -1.414941   -0.446756
     75          1           0       -2.273252    0.493935   -0.285074
     76          1           0       -0.236589    0.606779    0.806380
     77          1           0       -0.210531   -0.983731    1.515394
     78          1           0       -5.635399    6.515333    0.534563
     79          1           0       -5.922330    6.354012    2.258006
     80          1           0       -4.284456    5.542040    1.306179
     81          1           0       -9.208530    5.697980   -0.387023
     82          1           0       -8.934076    8.057426    0.372837
     83          1           0       -7.550970    7.634181    1.375090
     84          1           0      -11.751865    3.077665   -2.454666
     85          1           0      -13.112481    1.799331   -1.867964
     86          1           0      -12.512850    2.933365   -0.493035
     87          1           0      -12.082627   -1.559119   -1.204935
     88          1           0      -13.200432   -0.081083   -1.891590
     89          1           0      -12.699429   -1.985339   -3.638398
     90          1           0      -11.797444   -0.469078   -3.977007
     91          1           0      -10.993453   -1.757357   -3.409297
     92          1           0       -9.408863   -4.485769   -1.689983
     93          1           0       -8.191942   -5.754206   -1.164715
     94          1           0       -9.524302   -5.095693   -0.093163
     95          1           0       -3.393850   -3.539841   -0.189683
     96          1           0       -1.630020   -4.459894    3.717950
     97          1           0       -3.042359   -5.664789    3.658057
     98          1           0       -1.470577   -5.976966    2.839982
     99          1           0        2.760376   -1.587120   -1.649207
    100          1           0        2.612207    0.181406   -1.991918
    101          1           0        4.404094   -0.549311    0.426208
    102          1           0        3.884142    1.482660   -2.490820
    103          1           0        5.501042    2.123828   -2.461731
    104          1           0        5.397494    0.492254   -3.213071
    105          1           0        6.609845    1.456443    0.196608
    106          1           0        6.218016   -0.201528    0.703357
    107          1           0        7.419598   -0.973036   -1.439032
    108          1           0        7.533776    1.010970   -1.767599
    109          1           0        9.092658    1.105852   -0.082932
    110          1           0        8.645859   -0.747944    0.694322
    111          1           0       10.371436    0.292330   -2.005876
    112          1           0        9.015613   -1.906940   -2.268477
    113          1           0       10.870051   -2.157427   -2.251097
    114          1           0       10.088444   -2.732230   -0.774946
    115          1           0       11.363744    0.650594    0.400809
    116          1           0       11.337254   -1.050318    0.644276
    117          1           0       12.988204   -1.550349   -1.097016
    118          1           0       12.785618    0.011723   -1.765031
    119          1           0       13.716395    0.971690    0.639360
    120          1           0       13.604106   -0.924118    1.109213
    121          1           0       15.119129    0.409159   -1.525944
    122          1           0       15.510160   -2.189004   -0.091134
    123          1           0       15.081522   -2.103517   -1.834049
    124          1           0       16.755219   -1.899747   -1.318269
    125          1           0       15.902453    1.441114    0.724008
    126          1           0       16.193106   -0.427902    1.346127
    127          1           0       18.020558   -0.481578   -0.381222
    128          1           0       17.793103    1.043020   -1.095572
    129          1           0       18.257130    2.325560    1.162669
    130          1           0       18.576041    0.538357    1.810272
    131          1           0       20.362549    0.294292    0.207651
    132          1           0       19.747487    3.142298   -0.946941
    133          1           0       21.310031    2.275302   -1.137966
    134          1           0       19.845191    1.440751   -1.825697
    135          1           0       21.087041    1.217828    2.308716
    136          1           0       22.215522    2.163475    1.491878
    137          1           0       20.525555    2.795301    1.985908
 ---------------------------------------------------------------------

 SCF Done:  E(RCAM-B3LYP) =  -2933.44716268     A.U. after   16 cycles

 Excitation energies and oscillator strengths:

 Excited State   1:      Singlet-A      1.9357 eV  640.53 nm  f=0.2468  <S**2>=0.000
     240 -> 243       -0.22972
     241 -> 242        0.65976
 This state for optimization and/or second-order correction.
 Total Energy, E(TD-HF/TD-DFT) =  -2933.37602862
 Copying the excited state density for this state as the 1-particle RhoCI density.

 The electronic state is 1-A.
 Alpha  occ. eigenvalues --  -46.78904 -19.21044 -19.20986 -19.17072 -19.16666
 Alpha  occ. eigenvalues --  -19.15323 -14.37375 -14.35036 -14.35034 -14.34518
 Alpha  occ. eigenvalues --  -10.34542 -10.33656 -10.30521 -10.28148 -10.27095
 Alpha  occ. eigenvalues --  -10.26646 -10.25457 -10.24988 -10.24908 -10.24804
 Alpha  occ. eigenvalues --  -10.24715 -10.24657 -10.24194 -10.24081 -10.24016
 Alpha  occ. eigenvalues --  -10.23842 -10.23635 -10.23579 -10.23545 -10.23232
 Alpha  occ. eigenvalues --  -10.23208 -10.23130 -10.23118 -10.23101 -10.23028
 Alpha  occ. eigenvalues --  -10.22995 -10.22994 -10.22968 -10.22951 -10.22898
 Alpha  occ. eigenvalues --  -10.22696 -10.22278 -10.22253 -10.22247 -10.22217
 Alpha  occ. eigenvalues --  -10.22179 -10.22114 -10.22095 -10.22015 -10.21948
 Alpha  occ. eigenvalues --  -10.21746 -10.21745 -10.21475 -10.21423 -10.21376
 Alpha  occ. eigenvalues --  -10.21040 -10.20937 -10.20884 -10.20841 -10.20832
 Alpha  occ. eigenvalues --  -10.20613 -10.20447 -10.20402 -10.20142 -10.19862
 Alpha  occ. eigenvalues --   -3.07678  -1.82600  -1.82160  -1.82096  -1.15153
 Alpha  occ. eigenvalues --   -1.09722  -1.06254  -1.02975  -1.01756  -0.98916
 Alpha  occ. eigenvalues --   -0.98165  -0.97500  -0.95643  -0.87380  -0.87133
 Alpha  occ. eigenvalues --   -0.86246  -0.84730  -0.84467  -0.84259  -0.84223
 Alpha  occ. eigenvalues --   -0.83513  -0.83067  -0.82037  -0.81875  -0.80639
 Alpha  occ. eigenvalues --   -0.80177  -0.79513  -0.79115  -0.78474  -0.77936
 Alpha  occ. eigenvalues --   -0.76683  -0.76176  -0.75369  -0.74656  -0.73633
 Alpha  occ. eigenvalues --   -0.73165  -0.72313  -0.72123  -0.71633  -0.71610
 Alpha  occ. eigenvalues --   -0.70293  -0.69634  -0.68622  -0.68000  -0.67618
 Alpha  occ. eigenvalues --   -0.67020  -0.65848  -0.64885  -0.64334  -0.64061
 Alpha  occ. eigenvalues --   -0.62902  -0.61603  -0.61276  -0.60360  -0.59380
 Alpha  occ. eigenvalues --   -0.59244  -0.58222  -0.58065  -0.57663  -0.57062
 Alpha  occ. eigenvalues --   -0.56783  -0.56344  -0.55691  -0.55455  -0.55051
 Alpha  occ. eigenvalues --   -0.54482  -0.54072  -0.53549  -0.53154  -0.52868
 Alpha  occ. eigenvalues --   -0.52749  -0.51997  -0.51584  -0.51039  -0.50794
 Alpha  occ. eigenvalues --   -0.50184  -0.50034  -0.49931  -0.49713  -0.49145
 Alpha  occ. eigenvalues --   -0.49091  -0.48655  -0.48398  -0.48241  -0.48019
 Alpha  occ. eigenvalues --   -0.47915  -0.47795  -0.47559  -0.47244  -0.47077
 Alpha  occ. eigenvalues --   -0.46771  -0.46668  -0.46270  -0.46025  -0.45786
 Alpha  occ. eigenvalues --   -0.45720  -0.45492  -0.45122  -0.44907  -0.44745
 Alpha  occ. eigenvalues --   -0.44535  -0.44396  -0.43990  -0.43741  -0.43602
 Alpha  occ. eigenvalues --   -0.43413  -0.43126  -0.42890  -0.42815  -0.42565
 Alpha  occ. eigenvalues --   -0.42267  -0.41997  -0.41936  -0.41768  -0.41615
 Alpha  occ. eigenvalues --   -0.41460  -0.41282  -0.41163  -0.40922  -0.40811
 Alpha  occ. eigenvalues --   -0.40465  -0.40238  -0.40132  -0.39996  -0.39634
 Alpha  occ. eigenvalues --   -0.39544  -0.39350  -0.38986  -0.38707  -0.38583
 Alpha  occ. eigenvalues --   -0.38375  -0.38182  -0.38010  -0.37735  -0.37539
 Alpha  occ. eigenvalues --   -0.37390  -0.37152  -0.36986  -0.36643  -0.36582
 Alpha  occ. eigenvalues --   -0.36146  -0.35870  -0.35719  -0.35616  -0.35592
 Alpha  occ. eigenvalues --   -0.35364  -0.35243  -0.34886  -0.34438  -0.34319
 Alpha  occ. eigenvalues --   -0.34247  -0.33992  -0.33784  -0.33544  -0.33417
 Alpha  occ. eigenvalues --   -0.33256  -0.32767  -0.32546  -0.32453  -0.32281
 Alpha  occ. eigenvalues --   -0.32180  -0.32036  -0.31619  -0.30684  -0.30556
 Alpha  occ. eigenvalues --   -0.30230  -0.29756  -0.29656  -0.28666  -0.28222
 Alpha  occ. eigenvalues --   -0.26854  -0.26285  -0.26067  -0.23879  -0.21292
 Alpha  occ. eigenvalues --   -0.19601
 Alpha virt. eigenvalues --   -0.07230  -0.04185  -0.00573   0.02718   0.03482
 Alpha virt. eigenvalues --    0.04681   0.05139   0.05627   0.05838   0.06396
 Alpha virt. eigenvalues --    0.06881   0.08709   0.08809   0.09411   0.09721

 Mulliken charges:
               1
     1  Mg   0.821880
     2  C    0.041093
     3  C   -0.197268
     4  C   -0.182368
     5  C   -0.194119
     6  N   -0.609780
     7  C    0.265093
     8  C   -0.127670
     9  C   -0.155848
    10  C    0.389044
    11  C   -0.318474
    12  C   -0.147092
    13  C   -0.283537
    14  C    0.612621
    15  O   -0.470761
    16  O   -0.512721
    17  N   -0.739557
    18  C    0.249537
    19  C    0.033394
    20  C    0.000192
    21  C    0.327428
    22  C   -0.380362
    23  C   -0.020656
    24  C   -0.287767
    25  N   -0.691353
    26  C    0.274274
    27  C    0.085918
    28  C   -0.011263
    29  C    0.308764
    30  C   -0.376164
    31  C   -0.213225
    32  C   -0.291627
    33  N   -0.726164
    34  C    0.285027
    35  C    0.059918
    36  C   -0.000233
    37  C    0.332793
    38  C   -0.390836
    39  C    0.339685
    40  O   -0.493354
    41  C   -0.291347
    42  C    0.614941
    43  O   -0.424298
    44  O   -0.447332
    45  C   -0.086484
    46  C   -0.018072
    47  C   -0.066229
    48  C    0.114964
    49  C   -0.354830
    50  C   -0.252368
    51  C   -0.160939
    52  C   -0.144982
    53  C   -0.060842
    54  C   -0.314476
    55  C   -0.164323
    56  C   -0.182710
    57  C   -0.151327
    58  C   -0.067793
    59  C   -0.317172
    60  C   -0.154995
    61  C   -0.171717
    62  C   -0.158522
    63  C   -0.036249
    64  C   -0.294716
    65  C   -0.308666
    66  H    0.062380
    67  H    0.080438
    68  H    0.082819
    69  H    0.123761
    70  H    0.099872
    71  H    0.049878
    72  H    0.117128
    73  H    0.143918
    74  H    0.136083
    75  H    0.093521
    76  H    0.128853
    77  H    0.124006
    78  H    0.143769
    79  H    0.109798
    80  H    0.114469
    81  H    0.078987
    82  H    0.101360
    83  H    0.091373
    84  H    0.115078
    85  H    0.094031
    86  H    0.126291
    87  H    0.098733
    88  H    0.083009
    89  H    0.123347
    90  H    0.116833
    91  H    0.088161
    92  H    0.123140
    93  H    0.132474
    94  H    0.135575
    95  H    0.164204
    96  H    0.108764
    97  H    0.140739
    98  H    0.137703
    99  H    0.144052
   100  H    0.128527
   101  H    0.088694
   102  H    0.105386
   103  H    0.131748
   104  H    0.125033
   105  H    0.105946
   106  H    0.062732
   107  H    0.107978
   108  H    0.086737
   109  H    0.079511
   110  H    0.084121
   111  H    0.077381
   112  H    0.098702
   113  H    0.095882
   114  H    0.103938
   115  H    0.081171
   116  H    0.096000
   117  H    0.099337
   118  H    0.076049
   119  H    0.047303
   120  H    0.077708
   121  H    0.091502
   122  H    0.105560
   123  H    0.102270
   124  H    0.104738
   125  H    0.069187
   126  H    0.073530
   127  H    0.103798
   128  H    0.107204
   129  H    0.034786
   130  H    0.041412
   131  H    0.102852
   132  H    0.076255
   133  H    0.110485
   134  H    0.089976
   135  H    0.123369
   136  H    0.078244
   137  H    0.106424
 Sum of Mulliken charges =  -0.00000

 Dipole moment (field-independent basis, Debye):
    X=              2.9018    Y=              2.5835    Z=              0.0959  Tot=              3.8864
 Quadrupole moment (field-independent basis, Debye-Ang):
   XX=           -339.1965   YY=           -398.4590   ZZ=           -395.7744
   XY=            -22.5992   XZ=              2.4206   YZ=             -5.3459

 Normal termination of Gaussian 16 at Tue Sep  3 19:12:46 2019.
