 Gaussian 16, Revision A.03,
 Gaussian 16:  ES64L-G16RevA.03 25-Dec-2016

 ----------------------------------------------------------------------
 # td=(NStates=1) iop(3/107=0140000000,3/108=0140000000) CAM-B3LYP/6-31
 G(d,p)
 ----------------------------------------------------------------------

 --
 TD
 --
 Symbolic Z-matrix:
 Charge =  0 Multiplicity = 1

                         Standard orientation:
 ---------------------------------------------------------------------
 Center     Atomic      Atomic             Coordinates (Angstroms)
 Number     Number       Type             X           Y           Z
 ---------------------------------------------------------------------
      1         12           0       -7.139916    0.665701    0.128930
      2          6           0       -4.846262   -2.016274    0.466752
      3          6           0       -4.798000    2.767990    1.139123
      4          6           0       -9.417506    3.160768   -0.315256
      5          6           0       -9.598478   -1.629466   -0.963143
      6          7           0       -5.220093    0.438235    0.770155
      7          6           0       -4.337823   -0.742102    0.844127
      8          6           0       -2.910733   -0.461617    1.169958
      9          6           0       -3.039311    0.965706    1.725567
     10          6           0       -4.344083    1.447027    1.130720
     11          6           0       -3.169383    0.840020    3.311234
     12          6           0       -1.955956   -0.597497   -0.093744
     13          6           0       -0.505665   -0.529127    0.474315
     14          6           0        0.507053   -0.620848   -0.714166
     15          8           0        0.278329   -0.866509   -1.885060
     16          8           0        1.758597   -0.418668   -0.219106
     17          7           0       -7.174251    2.673387    0.405144
     18          6           0       -5.990238    3.353210    0.827441
     19          6           0       -6.394712    4.742732    0.925453
     20          6           0       -7.725570    4.877779    0.412336
     21          6           0       -8.168464    3.554241    0.180000
     22          6           0       -5.359950    5.879969    1.140619
     23          6           0       -8.556255    6.032622    0.267396
     24          6           0       -8.333406    7.363395    0.707521
     25          7           0       -9.104862    0.702781   -0.475455
     26          6           0       -9.828281    1.849295   -0.596142
     27          6           0      -11.151418    1.531644   -1.170106
     28          6           0      -11.303182    0.180450   -1.193046
     29          6           0       -9.960403   -0.313816   -0.811591
     30          6           0      -12.242960    2.497382   -1.505605
     31          6           0      -12.405675   -0.706626   -1.702659
     32          6           0      -12.295754   -1.105109   -3.127234
     33          7           0       -7.227936   -1.382194   -0.095036
     34          6           0       -8.312417   -2.129097   -0.571516
     35          6           0       -7.892658   -3.571372   -0.596827
     36          6           0       -6.549732   -3.622648   -0.201900
     37          6           0       -6.207440   -2.242114    0.171856
     38          6           0       -8.715092   -4.737786   -0.967332
     39          6           0       -5.423381   -4.374553    0.222427
     40          8           0       -5.267138   -5.641486    0.087668
     41          6           0       -4.192611   -3.418211    0.586808
     42          6           0       -3.548271   -3.805302    1.916128
     43          8           0       -3.640234   -3.209458    2.999535
     44          8           0       -2.706498   -4.819618    1.782517
     45          6           0       -2.017622   -5.168805    2.991094
     46          6           0        2.774887   -0.564921   -1.298903
     47          6           0        4.095424   -0.352960   -0.597575
     48          6           0        5.099469    0.338988   -1.041725
     49          6           0        5.068548    1.140956   -2.351164
     50          6           0        6.433913    0.508657   -0.302351
     51          6           0        7.672684   -0.273274   -0.908732
     52          6           0        8.883657   -0.104927   -0.073759
     53          6           0       10.139038   -0.644201   -0.775463
     54          6           0       10.056495   -2.144704   -1.102914
     55          6           0       11.418944   -0.117165   -0.056886
     56          6           0       12.732814   -0.554816   -0.756646
     57          6           0       14.044367   -0.142589    0.155106
     58          6           0       15.339313   -0.256505   -0.497918
     59          6           0       15.666329   -1.689141   -0.799642
     60          6           0       16.511067    0.390420    0.405853
     61          6           0       17.944249    0.481756   -0.138921
     62          6           0       18.842188    1.478887    0.684611
     63          6           0       20.267160    1.460294    0.187724
     64          6           0       20.463099    2.195131   -1.086551
     65          6           0       21.144455    1.974241    1.245690
     66          1           0       -4.076570    3.293841    1.585289
     67          1           0      -10.163540    3.925716   -0.701188
     68          1           0      -10.172551   -2.220006   -1.547931
     69          1           0       -2.564521   -1.174104    1.881241
     70          1           0       -2.253491    1.588960    1.484332
     71          1           0       -2.093178    0.602695    3.876316
     72          1           0       -3.048409    1.836454    3.851213
     73          1           0       -3.943359    0.161811    3.555230
     74          1           0       -2.186167   -1.534542   -0.556143
     75          1           0       -2.068651   -0.010571   -0.929645
     76          1           0       -0.065845    0.301714    1.055239
     77          1           0       -0.112348   -1.488593    1.112907
     78          1           0       -5.698511    6.633385    0.410561
     79          1           0       -5.561545    6.319506    2.221888
     80          1           0       -4.317476    5.481043    0.894898
     81          1           0       -9.330657    6.030333   -0.589706
     82          1           0       -9.120958    8.184170    0.540482
     83          1           0       -7.560763    7.630998    1.575028
     84          1           0      -11.803386    3.193810   -2.272245
     85          1           0      -12.956358    2.177328   -2.084557
     86          1           0      -12.574056    2.941453   -0.594191
     87          1           0      -12.579340   -1.608831   -1.138452
     88          1           0      -13.336261    0.022250   -1.579646
     89          1           0      -13.155509   -2.092148   -3.227107
     90          1           0      -12.654509   -0.231657   -3.778210
     91          1           0      -11.267195   -1.441800   -3.202440
     92          1           0       -9.143063   -4.614273   -2.088049
     93          1           0       -8.134230   -5.912744   -0.921898
     94          1           0       -9.655079   -4.825471   -0.468868
     95          1           0       -3.147311   -3.666016   -0.120995
     96          1           0       -1.813129   -4.200195    3.567777
     97          1           0       -2.748325   -5.595439    3.472046
     98          1           0       -1.298760   -5.964174    2.847652
     99          1           0        2.597877   -1.407848   -1.826508
    100          1           0        2.631081    0.358158   -2.030686
    101          1           0        4.255980   -1.123163    0.264064
    102          1           0        4.308105    1.053280   -2.872835
    103          1           0        5.266109    2.220192   -2.114172
    104          1           0        5.863966    0.602683   -2.957247
    105          1           0        6.817757    1.530908    0.001487
    106          1           0        6.228862    0.006117    0.668750
    107          1           0        7.434296   -1.260284   -0.979442
    108          1           0        7.746886    0.043316   -1.996666
    109          1           0        9.072177    1.134576   -0.120380
    110          1           0        8.570478   -0.456591    0.939328
    111          1           0       10.292997   -0.137218   -1.859506
    112          1           0        9.261521   -2.387638   -1.894410
    113          1           0       10.921197   -2.487957   -1.677863
    114          1           0       10.121434   -2.749607   -0.259990
    115          1           0       11.309961    0.776815    0.050859
    116          1           0       11.352416   -0.485664    1.034902
    117          1           0       12.748067   -1.669995   -0.850013
    118          1           0       12.945810    0.060201   -1.799165
    119          1           0       13.813812    0.945763    0.542022
    120          1           0       13.885098   -0.625826    1.168679
    121          1           0       15.219310    0.179350   -1.365596
    122          1           0       15.861592   -2.139647    0.193879
    123          1           0       15.039210   -2.435347   -1.348701
    124          1           0       16.612414   -1.770491   -1.177501
    125          1           0       16.074659    1.617610    0.817437
    126          1           0       16.580380   -0.124339    1.344148
    127          1           0       18.554658   -0.452384   -0.135421
    128          1           0       17.798128    0.809263   -1.148310
    129          1           0       18.199084    2.373636    0.837677
    130          1           0       18.924437    0.911837    1.826021
    131          1           0       20.545772    0.193556    0.030237
    132          1           0       20.190057    3.207046   -0.908185
    133          1           0       21.503871    2.090642   -1.332791
    134          1           0       19.654133    1.746479   -1.757230
    135          1           0       20.983280    1.608730    2.289773
    136          1           0       22.346042    1.877435    1.233776
    137          1           0       20.817897    2.997623    1.310836
 ---------------------------------------------------------------------

 SCF Done:  E(RCAM-B3LYP) =  -2933.41529648     A.U. after   16 cycles

 Excitation energies and oscillator strengths:

 Excited State   1:      Singlet-A      1.8617 eV  665.97 nm  f=0.3025  <S**2>=0.000
     240 -> 243       -0.19905
     241 -> 242        0.67670
 This state for optimization and/or second-order correction.
 Total Energy, E(TD-HF/TD-DFT) =  -2933.34688009
 Copying the excited state density for this state as the 1-particle RhoCI density.

 The electronic state is 1-A.
 Alpha  occ. eigenvalues --  -46.79502 -19.22174 -19.21831 -19.16873 -19.16057
 Alpha  occ. eigenvalues --  -19.14812 -14.38577 -14.35838 -14.35512 -14.34862
 Alpha  occ. eigenvalues --  -10.34577 -10.34313 -10.30297 -10.27410 -10.27043
 Alpha  occ. eigenvalues --  -10.26702 -10.26488 -10.25971 -10.25474 -10.25456
 Alpha  occ. eigenvalues --  -10.25160 -10.25133 -10.24821 -10.24796 -10.24648
 Alpha  occ. eigenvalues --  -10.24518 -10.24158 -10.23848 -10.23819 -10.23745
 Alpha  occ. eigenvalues --  -10.23682 -10.23449 -10.23402 -10.23311 -10.23281
 Alpha  occ. eigenvalues --  -10.23215 -10.23081 -10.23048 -10.23028 -10.22977
 Alpha  occ. eigenvalues --  -10.22939 -10.22924 -10.22732 -10.22647 -10.22620
 Alpha  occ. eigenvalues --  -10.22602 -10.22451 -10.22383 -10.22202 -10.22111
 Alpha  occ. eigenvalues --  -10.21760 -10.21710 -10.21401 -10.21278 -10.21144
 Alpha  occ. eigenvalues --  -10.20949 -10.20730 -10.20700 -10.20531 -10.20492
 Alpha  occ. eigenvalues --  -10.20429 -10.20245 -10.20043 -10.19734 -10.19245
 Alpha  occ. eigenvalues --   -3.08210  -1.83146  -1.82705  -1.82602  -1.13911
 Alpha  occ. eigenvalues --   -1.12247  -1.03721  -1.02866  -1.01569  -0.98715
 Alpha  occ. eigenvalues --   -0.97740  -0.97470  -0.96541  -0.86773  -0.86110
 Alpha  occ. eigenvalues --   -0.85790  -0.85074  -0.84859  -0.84613  -0.84117
 Alpha  occ. eigenvalues --   -0.83763  -0.82818  -0.82415  -0.81853  -0.80838
 Alpha  occ. eigenvalues --   -0.80040  -0.79481  -0.79236  -0.78285  -0.77706
 Alpha  occ. eigenvalues --   -0.77000  -0.76587  -0.75521  -0.75081  -0.73575
 Alpha  occ. eigenvalues --   -0.73054  -0.72297  -0.71999  -0.71644  -0.71619
 Alpha  occ. eigenvalues --   -0.71290  -0.70149  -0.69462  -0.68891  -0.67544
 Alpha  occ. eigenvalues --   -0.67440  -0.66676  -0.64987  -0.64336  -0.64096
 Alpha  occ. eigenvalues --   -0.62474  -0.61927  -0.61562  -0.60781  -0.60179
 Alpha  occ. eigenvalues --   -0.60059  -0.59558  -0.58872  -0.58350  -0.58191
 Alpha  occ. eigenvalues --   -0.57267  -0.56753  -0.56319  -0.55098  -0.54867
 Alpha  occ. eigenvalues --   -0.54656  -0.53709  -0.53362  -0.52713  -0.52311
 Alpha  occ. eigenvalues --   -0.51981  -0.51712  -0.51346  -0.51256  -0.50811
 Alpha  occ. eigenvalues --   -0.50365  -0.50257  -0.50051  -0.49717  -0.49620
 Alpha  occ. eigenvalues --   -0.49213  -0.48893  -0.48842  -0.48463  -0.48066
 Alpha  occ. eigenvalues --   -0.47835  -0.47376  -0.47308  -0.47062  -0.46780
 Alpha  occ. eigenvalues --   -0.46585  -0.46482  -0.46280  -0.46097  -0.45804
 Alpha  occ. eigenvalues --   -0.45641  -0.45602  -0.45310  -0.45148  -0.44887
 Alpha  occ. eigenvalues --   -0.44758  -0.44447  -0.44232  -0.44007  -0.43638
 Alpha  occ. eigenvalues --   -0.43608  -0.43207  -0.42856  -0.42759  -0.42675
 Alpha  occ. eigenvalues --   -0.42466  -0.42355  -0.42271  -0.41661  -0.41277
 Alpha  occ. eigenvalues --   -0.41143  -0.41135  -0.40931  -0.40662  -0.40502
 Alpha  occ. eigenvalues --   -0.40208  -0.39954  -0.39846  -0.39605  -0.39337
 Alpha  occ. eigenvalues --   -0.39241  -0.39114  -0.38818  -0.38731  -0.38540
 Alpha  occ. eigenvalues --   -0.38441  -0.38223  -0.38160  -0.37960  -0.37776
 Alpha  occ. eigenvalues --   -0.37741  -0.37539  -0.37341  -0.37248  -0.37007
 Alpha  occ. eigenvalues --   -0.36729  -0.36692  -0.36558  -0.36381  -0.36151
 Alpha  occ. eigenvalues --   -0.35876  -0.35666  -0.35269  -0.34798  -0.34637
 Alpha  occ. eigenvalues --   -0.34463  -0.33985  -0.33870  -0.33576  -0.33514
 Alpha  occ. eigenvalues --   -0.33219  -0.33037  -0.32841  -0.32718  -0.32539
 Alpha  occ. eigenvalues --   -0.32500  -0.32459  -0.32181  -0.30868  -0.30624
 Alpha  occ. eigenvalues --   -0.30273  -0.29967  -0.29397  -0.28366  -0.27764
 Alpha  occ. eigenvalues --   -0.26885  -0.26376  -0.25972  -0.24123  -0.22020
 Alpha  occ. eigenvalues --   -0.19896
 Alpha virt. eigenvalues --   -0.07861  -0.04027  -0.01191   0.00871   0.03265
 Alpha virt. eigenvalues --    0.03603   0.04341   0.04495   0.04876   0.05088
 Alpha virt. eigenvalues --    0.06164   0.07547   0.08191   0.08929   0.09437

 Mulliken charges:
               1
     1  Mg   0.803726
     2  C    0.050225
     3  C   -0.187486
     4  C   -0.181511
     5  C   -0.152898
     6  N   -0.610048
     7  C    0.251762
     8  C   -0.130136
     9  C   -0.128002
    10  C    0.337803
    11  C   -0.301238
    12  C   -0.176897
    13  C   -0.263775
    14  C    0.597235
    15  O   -0.481667
    16  O   -0.483889
    17  N   -0.736593
    18  C    0.342898
    19  C   -0.028012
    20  C    0.042851
    21  C    0.350218
    22  C   -0.367255
    23  C   -0.102455
    24  C   -0.258274
    25  N   -0.681419
    26  C    0.328566
    27  C   -0.016492
    28  C    0.045365
    29  C    0.290833
    30  C   -0.360012
    31  C   -0.245365
    32  C   -0.265121
    33  N   -0.701679
    34  C    0.280900
    35  C    0.016972
    36  C    0.070719
    37  C    0.256190
    38  C   -0.390676
    39  C    0.346527
    40  O   -0.499326
    41  C   -0.291073
    42  C    0.614385
    43  O   -0.503769
    44  O   -0.426966
    45  C   -0.096574
    46  C    0.011073
    47  C   -0.130575
    48  C    0.113703
    49  C   -0.329060
    50  C   -0.237929
    51  C   -0.170631
    52  C   -0.154247
    53  C   -0.051246
    54  C   -0.327811
    55  C   -0.135068
    56  C   -0.182401
    57  C   -0.170443
    58  C   -0.036799
    59  C   -0.322157
    60  C   -0.163696
    61  C   -0.179257
    62  C   -0.158753
    63  C   -0.032327
    64  C   -0.287070
    65  C   -0.295150
    66  H    0.061108
    67  H    0.088492
    68  H    0.079686
    69  H    0.130343
    70  H    0.096087
    71  H    0.078503
    72  H    0.106672
    73  H    0.151164
    74  H    0.126955
    75  H    0.134287
    76  H    0.143692
    77  H    0.123721
    78  H    0.135559
    79  H    0.111583
    80  H    0.112421
    81  H    0.092197
    82  H    0.102821
    83  H    0.091034
    84  H    0.107355
    85  H    0.116261
    86  H    0.136013
    87  H    0.118567
    88  H    0.084259
    89  H    0.061140
    90  H    0.110094
    91  H    0.117157
    92  H    0.100066
    93  H    0.123626
    94  H    0.136551
    95  H    0.139188
    96  H    0.137310
    97  H    0.146570
    98  H    0.125162
    99  H    0.146560
   100  H    0.105939
   101  H    0.077612
   102  H    0.106958
   103  H    0.113896
   104  H    0.110448
   105  H    0.098363
   106  H    0.090118
   107  H    0.111101
   108  H    0.083110
   109  H    0.056326
   110  H    0.097633
   111  H    0.062729
   112  H    0.099398
   113  H    0.101921
   114  H    0.111399
   115  H    0.098197
   116  H    0.068215
   117  H    0.103523
   118  H    0.067398
   119  H    0.064135
   120  H    0.079532
   121  H    0.093456
   122  H    0.092450
   123  H    0.103211
   124  H    0.108664
   125  H    0.025048
   126  H    0.104091
   127  H    0.099697
   128  H    0.100253
   129  H    0.097962
   130  H    0.052638
   131  H    0.033103
   132  H    0.105863
   133  H    0.112826
   134  H    0.096033
   135  H    0.097157
   136  H    0.078632
   137  H    0.100043
 Sum of Mulliken charges =  -0.00000

 Dipole moment (field-independent basis, Debye):
    X=              2.0480    Y=              3.9985    Z=             -0.1311  Tot=              4.4944
 Quadrupole moment (field-independent basis, Debye-Ang):
   XX=           -339.7223   YY=           -404.4637   ZZ=           -398.1844
   XY=            -25.4511   XZ=             15.0406   YZ=             -3.6641

 Normal termination of Gaussian 16 at Fri Sep 13 18:59:48 2019.
