 Gaussian 16, Revision A.03,
 Gaussian 16:  ES64L-G16RevA.03 25-Dec-2016

 ----------------------------------------------------------------------
 # td=(NStates=1) iop(3/107=0140000000,3/108=0140000000) CAM-B3LYP/6-31
 G(d,p)
 ----------------------------------------------------------------------

 --
 TD
 --
 Symbolic Z-matrix:
 Charge =  0 Multiplicity = 1

                         Standard orientation:
 ---------------------------------------------------------------------
 Center     Atomic      Atomic             Coordinates (Angstroms)
 Number     Number       Type             X           Y           Z
 ---------------------------------------------------------------------
      1         12           0       -7.184015    0.606347    0.099977
      2          6           0       -4.838355   -1.921418    0.376846
      3          6           0       -4.754337    2.785955    1.108928
      4          6           0       -9.475021    3.172865   -0.315635
      5          6           0       -9.585899   -1.711246   -0.920394
      6          7           0       -5.020334    0.402451    0.624510
      7          6           0       -4.242526   -0.646347    0.576269
      8          6           0       -2.883635   -0.520170    1.192868
      9          6           0       -3.044037    0.987664    1.641730
     10          6           0       -4.323500    1.455878    1.052741
     11          6           0       -2.615568    1.264204    3.114656
     12          6           0       -1.954388   -0.764139    0.011941
     13          6           0       -0.481852   -0.494521    0.616223
     14          6           0        0.574879   -0.714937   -0.470427
     15          8           0        0.265323   -1.061966   -1.656091
     16          8           0        1.920288   -0.536236   -0.149243
     17          7           0       -7.152257    2.576396    0.313577
     18          6           0       -6.052696    3.260516    0.844883
     19          6           0       -6.351987    4.732045    0.783744
     20          6           0       -7.632195    4.830589    0.350617
     21          6           0       -8.103916    3.473066    0.018023
     22          6           0       -5.440215    5.879488    1.221396
     23          6           0       -8.501252    5.954782    0.164355
     24          6           0       -8.291917    7.201606    0.631753
     25          7           0       -9.183763    0.656005   -0.370419
     26          6           0       -9.858902    1.842688   -0.572006
     27          6           0      -11.203137    1.568538   -1.015249
     28          6           0      -11.299235    0.135991   -1.175743
     29          6           0      -10.039601   -0.344632   -0.804122
     30          6           0      -12.200790    2.556238   -1.326853
     31          6           0      -12.447945   -0.678137   -1.667581
     32          6           0      -12.399272   -0.987496   -3.277018
     33          7           0       -7.180832   -1.345200   -0.245487
     34          6           0       -8.281763   -2.170952   -0.533798
     35          6           0       -7.782208   -3.565653   -0.615586
     36          6           0       -6.507610   -3.564461   -0.154483
     37          6           0       -6.155997   -2.194939    0.078165
     38          6           0       -8.679169   -4.751033   -0.899215
     39          6           0       -5.277209   -4.409788    0.162929
     40          8           0       -5.181138   -5.570029    0.204714
     41          6           0       -4.183420   -3.282102    0.549701
     42          6           0       -3.726522   -3.741237    1.852807
     43          8           0       -3.983061   -3.027504    2.906633
     44          8           0       -2.916608   -4.769218    1.801466
     45          6           0       -2.360973   -5.233462    3.029441
     46          6           0        2.842241   -0.723017   -1.115597
     47          6           0        4.181505   -0.444905   -0.511130
     48          6           0        5.082183    0.251709   -0.952775
     49          6           0        5.067657    1.181381   -2.192258
     50          6           0        6.449469    0.549175   -0.025680
     51          6           0        7.637434   -0.084931   -0.924990
     52          6           0        8.971592   -0.105466   -0.238722
     53          6           0       10.152870   -0.521058   -0.992468
     54          6           0       10.012559   -1.974261   -1.426231
     55          6           0       11.406403   -0.293802   -0.102027
     56          6           0       12.861545   -0.558743   -0.749752
     57          6           0       14.025763   -0.035097    0.158097
     58          6           0       15.377895   -0.184052   -0.471437
     59          6           0       15.721160   -1.673446   -0.821249
     60          6           0       16.407070    0.348310    0.351443
     61          6           0       17.822748    0.491809   -0.143471
     62          6           0       18.761822    1.258375    0.671002
     63          6           0       20.254860    1.315394    0.256394
     64          6           0       20.326620    2.157047   -0.985989
     65          6           0       21.040397    1.941175    1.389531
     66          1           0       -3.969212    3.597138    1.665812
     67          1           0      -10.013745    4.025838   -0.543993
     68          1           0      -10.378706   -2.325771   -1.152201
     69          1           0       -2.621480   -1.139698    2.170063
     70          1           0       -2.165683    1.594796    1.175264
     71          1           0       -1.622305    0.871263    3.318304
     72          1           0       -2.873108    2.202876    3.443685
     73          1           0       -3.305795    0.493230    3.822733
     74          1           0       -2.096836   -1.846470   -0.060221
     75          1           0       -2.292984   -0.185619   -0.901610
     76          1           0       -0.442053    0.530187    0.864919
     77          1           0       -0.282202   -1.278726    1.416134
     78          1           0       -5.445946    6.823415    0.422315
     79          1           0       -6.044541    6.341158    2.110895
     80          1           0       -4.413062    5.562575    1.206039
     81          1           0       -9.378964    5.812105   -0.484086
     82          1           0       -8.863383    8.161782    0.521617
     83          1           0       -7.507447    7.266893    1.318541
     84          1           0      -11.943886    3.175809   -2.356285
     85          1           0      -13.006194    2.049413   -1.735671
     86          1           0      -12.662466    3.202839   -0.433637
     87          1           0      -12.504254   -1.502457   -1.146165
     88          1           0      -13.323697   -0.272304   -1.620447
     89          1           0      -13.476414   -1.458887   -3.551316
     90          1           0      -12.393956    0.056491   -3.545156
     91          1           0      -11.479711   -1.529069   -3.333404
     92          1           0       -9.420615   -4.871914   -1.810200
     93          1           0       -8.003226   -5.541316   -1.040912
     94          1           0       -9.359256   -4.880357   -0.088690
     95          1           0       -3.378658   -3.642822   -0.080806
     96          1           0       -2.079024   -4.269271    3.676835
     97          1           0       -2.980197   -5.887819    3.710198
     98          1           0       -1.432960   -5.751113    2.769393
     99          1           0        2.940246   -1.804329   -1.648011
    100          1           0        2.705848   -0.004780   -1.937884
    101          1           0        4.421998   -1.155806    0.381049
    102          1           0        3.972717    0.831506   -2.704987
    103          1           0        5.084910    2.260381   -1.974277
    104          1           0        5.921491    0.926190   -3.002094
    105          1           0        6.482354    1.709458    0.228631
    106          1           0        6.342902   -0.240563    0.848090
    107          1           0        7.180200   -1.151989   -1.143215
    108          1           0        7.857899    0.484226   -1.819505
    109          1           0        9.261960    0.913564    0.023609
    110          1           0        8.916031   -0.494534    0.832512
    111          1           0       10.119811    0.170122   -1.879509
    112          1           0        9.214479   -2.022137   -2.113172
    113          1           0       10.963173   -2.440947   -1.531013
    114          1           0        9.381645   -2.464070   -0.624387
    115          1           0       11.490699    0.814156    0.269270
    116          1           0       11.369568   -0.880005    0.846327
    117          1           0       13.204387   -1.684553   -1.059447
    118          1           0       12.996490    0.036856   -1.659922
    119          1           0       13.857990    0.995981    0.280850
    120          1           0       14.060354   -0.573869    0.993986
    121          1           0       15.387404    0.497671   -1.430732
    122          1           0       15.814010   -2.258729    0.055461
    123          1           0       15.059585   -2.089749   -1.460651
    124          1           0       16.834572   -1.655547   -1.335969
    125          1           0       16.196112    1.418069    0.686965
    126          1           0       16.332443   -0.178815    1.247924
    127          1           0       17.967164   -0.643507   -0.576135
    128          1           0       17.735264    0.932614   -1.013157
    129          1           0       18.490068    2.260758    0.906298
    130          1           0       18.758998    0.755977    1.505935
    131          1           0       20.588858    0.314316   -0.155973
    132          1           0       20.136509    3.182013   -0.755581
    133          1           0       21.316906    2.241311   -1.281534
    134          1           0       19.814233    1.685267   -1.846699
    135          1           0       21.067011    1.359252    2.202871
    136          1           0       22.237395    2.140983    1.151783
    137          1           0       20.798592    3.038709    1.621918
 ---------------------------------------------------------------------

 SCF Done:  E(RCAM-B3LYP) =  -2933.43513224     A.U. after   16 cycles

 Excitation energies and oscillator strengths:

 Excited State   1:      Singlet-A      2.0630 eV  601.00 nm  f=0.1594  <S**2>=0.000
     240 -> 243        0.30364
     241 -> 242        0.63494
 This state for optimization and/or second-order correction.
 Total Energy, E(TD-HF/TD-DFT) =  -2933.35931926
 Copying the excited state density for this state as the 1-particle RhoCI density.

 The electronic state is 1-A.
 Alpha  occ. eigenvalues --  -46.79686 -19.24344 -19.22858 -19.18195 -19.16854
 Alpha  occ. eigenvalues --  -19.15437 -14.37902 -14.35904 -14.35315 -14.34353
 Alpha  occ. eigenvalues --  -10.35635 -10.34739 -10.31965 -10.28711 -10.27605
 Alpha  occ. eigenvalues --  -10.26227 -10.26207 -10.26058 -10.25616 -10.25188
 Alpha  occ. eigenvalues --  -10.24854 -10.24394 -10.24233 -10.24175 -10.24115
 Alpha  occ. eigenvalues --  -10.24068 -10.24010 -10.23986 -10.23929 -10.23879
 Alpha  occ. eigenvalues --  -10.23683 -10.23663 -10.23563 -10.22897 -10.22820
 Alpha  occ. eigenvalues --  -10.22706 -10.22601 -10.22540 -10.22393 -10.22363
 Alpha  occ. eigenvalues --  -10.22306 -10.22216 -10.22026 -10.21943 -10.21870
 Alpha  occ. eigenvalues --  -10.21642 -10.21606 -10.21496 -10.21485 -10.21457
 Alpha  occ. eigenvalues --  -10.21419 -10.21333 -10.21233 -10.21123 -10.20969
 Alpha  occ. eigenvalues --  -10.20464 -10.20239 -10.19834 -10.19484 -10.19292
 Alpha  occ. eigenvalues --  -10.19183 -10.18920 -10.18911 -10.18397 -10.18343
 Alpha  occ. eigenvalues --   -3.08392  -1.83322  -1.82854  -1.82815  -1.14874
 Alpha  occ. eigenvalues --   -1.13360  -1.10613  -1.02600  -1.01669  -1.00745
 Alpha  occ. eigenvalues --   -0.98268  -0.97820  -0.96489  -0.87576  -0.87029
 Alpha  occ. eigenvalues --   -0.85926  -0.85405  -0.84946  -0.84458  -0.84281
 Alpha  occ. eigenvalues --   -0.83762  -0.83121  -0.82477  -0.81877  -0.80615
 Alpha  occ. eigenvalues --   -0.80114  -0.79835  -0.79024  -0.77999  -0.77581
 Alpha  occ. eigenvalues --   -0.76884  -0.76475  -0.75647  -0.74851  -0.73414
 Alpha  occ. eigenvalues --   -0.73130  -0.72666  -0.71757  -0.71633  -0.71307
 Alpha  occ. eigenvalues --   -0.70893  -0.70490  -0.70078  -0.69208  -0.67585
 Alpha  occ. eigenvalues --   -0.67489  -0.66306  -0.65690  -0.65180  -0.63626
 Alpha  occ. eigenvalues --   -0.62615  -0.62423  -0.61268  -0.60662  -0.59949
 Alpha  occ. eigenvalues --   -0.59681  -0.59201  -0.59153  -0.58747  -0.58300
 Alpha  occ. eigenvalues --   -0.57765  -0.56915  -0.56433  -0.55444  -0.54897
 Alpha  occ. eigenvalues --   -0.54624  -0.54274  -0.53823  -0.53561  -0.53370
 Alpha  occ. eigenvalues --   -0.52498  -0.51903  -0.51449  -0.51386  -0.51080
 Alpha  occ. eigenvalues --   -0.50857  -0.50734  -0.50538  -0.50242  -0.49829
 Alpha  occ. eigenvalues --   -0.49704  -0.49638  -0.49179  -0.48453  -0.48212
 Alpha  occ. eigenvalues --   -0.47866  -0.47708  -0.47481  -0.47036  -0.46944
 Alpha  occ. eigenvalues --   -0.46759  -0.46614  -0.46541  -0.46076  -0.45979
 Alpha  occ. eigenvalues --   -0.45888  -0.45674  -0.45516  -0.45215  -0.44687
 Alpha  occ. eigenvalues --   -0.44635  -0.44408  -0.44092  -0.44044  -0.43875
 Alpha  occ. eigenvalues --   -0.43628  -0.43391  -0.43147  -0.42947  -0.42676
 Alpha  occ. eigenvalues --   -0.42365  -0.42349  -0.41921  -0.41754  -0.41561
 Alpha  occ. eigenvalues --   -0.41376  -0.41118  -0.40834  -0.40661  -0.40591
 Alpha  occ. eigenvalues --   -0.40465  -0.40334  -0.40262  -0.40142  -0.40107
 Alpha  occ. eigenvalues --   -0.39607  -0.39193  -0.39127  -0.39035  -0.38853
 Alpha  occ. eigenvalues --   -0.38612  -0.38520  -0.38444  -0.38217  -0.38048
 Alpha  occ. eigenvalues --   -0.37963  -0.37760  -0.37521  -0.37481  -0.37102
 Alpha  occ. eigenvalues --   -0.36706  -0.36579  -0.36443  -0.36293  -0.36018
 Alpha  occ. eigenvalues --   -0.35684  -0.35635  -0.35348  -0.34614  -0.34364
 Alpha  occ. eigenvalues --   -0.33952  -0.33812  -0.33679  -0.33602  -0.33388
 Alpha  occ. eigenvalues --   -0.32901  -0.32818  -0.32717  -0.32604  -0.32546
 Alpha  occ. eigenvalues --   -0.32392  -0.32173  -0.30724  -0.30488  -0.30045
 Alpha  occ. eigenvalues --   -0.29774  -0.29710  -0.29011  -0.28466  -0.28342
 Alpha  occ. eigenvalues --   -0.27568  -0.27294  -0.25075  -0.24484  -0.21473
 Alpha  occ. eigenvalues --   -0.19805
 Alpha virt. eigenvalues --   -0.06434  -0.04803  -0.00328   0.01999   0.02279
 Alpha virt. eigenvalues --    0.03083   0.04681   0.05004   0.05452   0.06138
 Alpha virt. eigenvalues --    0.06707   0.08636   0.09051   0.09568   0.09646

 Mulliken charges:
               1
     1  Mg   0.824878
     2  C    0.103623
     3  C   -0.194395
     4  C   -0.117112
     5  C   -0.156120
     6  N   -0.609030
     7  C    0.267604
     8  C   -0.140206
     9  C   -0.158732
    10  C    0.367223
    11  C   -0.305375
    12  C   -0.155461
    13  C   -0.270229
    14  C    0.582784
    15  O   -0.473887
    16  O   -0.445854
    17  N   -0.715083
    18  C    0.285295
    19  C    0.011430
    20  C    0.040043
    21  C    0.276874
    22  C   -0.373022
    23  C   -0.068339
    24  C   -0.258208
    25  N   -0.708482
    26  C    0.313521
    27  C    0.025336
    28  C    0.033436
    29  C    0.274398
    30  C   -0.393002
    31  C   -0.257210
    32  C   -0.311041
    33  N   -0.711468
    34  C    0.273774
    35  C   -0.029888
    36  C    0.048623
    37  C    0.285792
    38  C   -0.380927
    39  C    0.356614
    40  O   -0.399530
    41  C   -0.365157
    42  C    0.632200
    43  O   -0.529164
    44  O   -0.407775
    45  C   -0.097660
    46  C    0.030619
    47  C   -0.124465
    48  C    0.137842
    49  C   -0.348377
    50  C   -0.218641
    51  C   -0.162610
    52  C   -0.174128
    53  C   -0.039017
    54  C   -0.311781
    55  C   -0.178134
    56  C   -0.193501
    57  C   -0.152141
    58  C   -0.063110
    59  C   -0.311520
    60  C   -0.156063
    61  C   -0.171389
    62  C   -0.145363
    63  C   -0.066754
    64  C   -0.305404
    65  C   -0.305270
    66  H    0.077274
    67  H    0.083221
    68  H    0.076697
    69  H    0.129897
    70  H    0.083994
    71  H    0.119337
    72  H    0.121301
    73  H    0.084497
    74  H    0.122223
    75  H    0.134900
    76  H    0.147640
    77  H    0.139115
    78  H    0.105234
    79  H    0.133381
    80  H    0.117478
    81  H    0.085625
    82  H    0.106801
    83  H    0.079677
    84  H    0.096580
    85  H    0.119096
    86  H    0.109991
    87  H    0.110718
    88  H    0.109318
    89  H    0.090908
    90  H    0.120582
    91  H    0.124357
    92  H    0.103580
    93  H    0.140064
    94  H    0.141239
    95  H    0.163806
    96  H    0.122967
    97  H    0.138923
    98  H    0.128949
    99  H    0.098206
   100  H    0.102221
   101  H    0.073553
   102  H    0.073835
   103  H    0.126103
   104  H    0.109114
   105  H    0.096206
   106  H    0.088636
   107  H    0.084871
   108  H    0.094271
   109  H    0.084565
   110  H    0.073329
   111  H    0.075823
   112  H    0.110949
   113  H    0.111483
   114  H    0.088902
   115  H    0.076606
   116  H    0.094951
   117  H    0.066315
   118  H    0.094482
   119  H    0.095288
   120  H    0.094601
   121  H    0.055696
   122  H    0.109948
   123  H    0.113278
   124  H    0.076692
   125  H    0.063076
   126  H    0.083105
   127  H    0.053513
   128  H    0.102748
   129  H    0.089817
   130  H    0.098235
   131  H    0.083014
   132  H    0.093976
   133  H    0.100416
   134  H    0.099419
   135  H    0.119539
   136  H    0.063556
   137  H    0.098411
 Sum of Mulliken charges =  -0.00000

 Dipole moment (field-independent basis, Debye):
    X=              0.8917    Y=              2.7373    Z=              1.3871  Tot=              3.1956
 Quadrupole moment (field-independent basis, Debye-Ang):
   XX=           -363.3851   YY=           -385.1151   ZZ=           -402.6304
   XY=             -8.7892   XZ=             16.4771   YZ=             -3.6800

 Normal termination of Gaussian 16 at Sat Sep  7 00:05:37 2019.
