 Gaussian 16, Revision A.03,
 Gaussian 16:  ES64L-G16RevA.03 25-Dec-2016

 ----------------------------------------------------------------------
 # td=(NStates=1) iop(3/107=0140000000,3/108=0140000000) CAM-B3LYP/6-31
 G(d,p)
 ----------------------------------------------------------------------

 --
 TD
 --
 Symbolic Z-matrix:
 Charge =  0 Multiplicity = 1

                         Standard orientation:
 ---------------------------------------------------------------------
 Center     Atomic      Atomic             Coordinates (Angstroms)
 Number     Number       Type             X           Y           Z
 ---------------------------------------------------------------------
      1         12           0       -7.051876    0.592140    0.093646
      2          6           0       -4.847711   -1.960585    0.423684
      3          6           0       -4.694312    2.743549    1.166249
      4          6           0       -9.427281    3.146893   -0.314986
      5          6           0       -9.565865   -1.743948   -0.948479
      6          7           0       -5.112301    0.424644    0.781736
      7          6           0       -4.371241   -0.719270    0.788217
      8          6           0       -3.015173   -0.387791    1.298717
      9          6           0       -3.057842    1.025852    1.794344
     10          6           0       -4.320909    1.446225    1.181088
     11          6           0       -3.071204    1.132116    3.409050
     12          6           0       -1.925049   -0.628657    0.158831
     13          6           0       -0.496495   -0.581093    0.680896
     14          6           0        0.428457   -0.689270   -0.540768
     15          8           0        0.134226   -0.846354   -1.725669
     16          8           0        1.655110   -0.380209   -0.011985
     17          7           0       -7.116368    2.625766    0.287573
     18          6           0       -5.982736    3.327143    0.755183
     19          6           0       -6.396389    4.737718    0.671772
     20          6           0       -7.714155    4.851690    0.285454
     21          6           0       -8.152120    3.496703    0.042810
     22          6           0       -5.362065    5.783655    1.049581
     23          6           0       -8.500502    6.061446    0.162293
     24          6           0       -8.403404    7.180218    0.768555
     25          7           0       -9.156897    0.691934   -0.553708
     26          6           0       -9.836610    1.784517   -0.563395
     27          6           0      -11.131803    1.481902   -1.224310
     28          6           0      -11.176588    0.179753   -1.396807
     29          6           0       -9.894859   -0.381236   -1.053201
     30          6           0      -12.290077    2.308937   -1.468353
     31          6           0      -12.339090   -0.695553   -1.821388
     32          6           0      -12.251514   -1.094262   -3.254117
     33          7           0       -7.148003   -1.374371   -0.132239
     34          6           0       -8.248062   -2.166052   -0.562955
     35          6           0       -7.820809   -3.617244   -0.597905
     36          6           0       -6.388193   -3.580600   -0.247120
     37          6           0       -6.156088   -2.202795    0.038602
     38          6           0       -8.556214   -4.811333   -0.976975
     39          6           0       -5.328127   -4.384404    0.116930
     40          8           0       -5.180821   -5.606624    0.112244
     41          6           0       -4.164036   -3.339629    0.449378
     42          6           0       -3.517152   -3.656168    1.844217
     43          8           0       -3.783549   -3.141666    2.768475
     44          8           0       -2.634472   -4.617915    1.780394
     45          6           0       -2.177666   -4.993717    3.077171
     46          6           0        2.804529   -0.486186   -1.008529
     47          6           0        4.063325   -0.380839   -0.349634
     48          6           0        5.167854    0.339871   -0.753082
     49          6           0        5.016501    1.421340   -1.832612
     50          6           0        6.476398    0.306870   -0.005666
     51          6           0        7.659741   -0.208095   -0.826098
     52          6           0        8.983242   -0.172624   -0.056330
     53          6           0       10.181391   -0.636267   -0.834583
     54          6           0        9.994254   -2.081534   -1.277566
     55          6           0       11.415201   -0.298761   -0.008190
     56          6           0       12.729337   -0.546496   -0.622439
     57          6           0       13.952652   -0.307174    0.267406
     58          6           0       15.328322   -0.338127   -0.421284
     59          6           0       15.687060   -1.750227   -0.935475
     60          6           0       16.454765    0.349521    0.401892
     61          6           0       17.780168    0.485058   -0.372561
     62          6           0       18.648953    1.448107    0.528789
     63          6           0       20.166996    1.462289    0.026828
     64          6           0       20.267714    2.096142   -1.308718
     65          6           0       20.965293    2.183505    1.216246
     66          1           0       -4.067987    3.449167    1.633136
     67          1           0      -10.083183    3.874197   -0.512797
     68          1           0      -10.340421   -2.544964   -1.126007
     69          1           0       -2.699345   -1.003460    2.097037
     70          1           0       -2.111993    1.601051    1.396825
     71          1           0       -2.179954    0.790595    3.846856
     72          1           0       -3.413743    2.211295    3.712690
     73          1           0       -3.940580    0.444366    3.673353
     74          1           0       -2.107425   -1.554976   -0.386945
     75          1           0       -1.834563    0.253625   -0.625286
     76          1           0       -0.025762    0.273469    1.344524
     77          1           0       -0.294766   -1.432175    1.337871
     78          1           0       -5.762283    6.883344    0.769805
     79          1           0       -5.483442    5.815895    2.131807
     80          1           0       -4.367866    5.406573    0.636244
     81          1           0       -9.290629    6.253316   -0.650242
     82          1           0       -9.012102    7.984528    0.337828
     83          1           0       -7.670399    7.394984    1.331924
     84          1           0      -11.906351    3.263996   -2.150117
     85          1           0      -13.282232    1.878311   -1.832328
     86          1           0      -12.420356    3.143236   -0.490865
     87          1           0      -12.326367   -1.476533   -1.111560
     88          1           0      -13.328774   -0.154570   -1.801334
     89          1           0      -12.978704   -1.773226   -3.539208
     90          1           0      -12.161290   -0.315126   -3.908518
     91          1           0      -11.265353   -1.623221   -3.618968
     92          1           0       -8.878083   -4.784847   -1.971007
     93          1           0       -8.086880   -5.909305   -0.898144
     94          1           0       -9.526266   -4.900430   -0.405639
     95          1           0       -3.368364   -3.789996   -0.264104
     96          1           0       -1.656534   -4.303761    3.754170
     97          1           0       -3.114066   -5.482406    3.730956
     98          1           0       -1.395537   -5.942103    2.847013
     99          1           0        2.893338   -1.473301   -1.439563
    100          1           0        2.715745    0.373055   -1.833930
    101          1           0        4.288651   -0.759751    0.616411
    102          1           0        4.023733    1.706679   -2.141429
    103          1           0        5.377777    2.378557   -1.442572
    104          1           0        5.560190    1.127571   -2.786747
    105          1           0        6.751012    1.510881    0.206576
    106          1           0        6.400374   -0.252363    0.967210
    107          1           0        7.464111   -1.379974   -0.969586
    108          1           0        7.682996    0.402795   -1.731369
    109          1           0        9.306347    0.977415    0.148786
    110          1           0        9.015013   -0.621316    0.834949
    111          1           0       10.446424   -0.001445   -1.769443
    112          1           0        9.166161   -2.145960   -1.724363
    113          1           0       10.702261   -2.441875   -2.076971
    114          1           0        9.938529   -2.938155   -0.571922
    115          1           0       11.271331    0.733328    0.288479
    116          1           0       11.352980   -0.983066    0.996669
    117          1           0       12.738427   -1.511552   -1.158482
    118          1           0       12.797526   -0.067727   -1.569680
    119          1           0       13.830026    0.763175    0.538628
    120          1           0       14.092156   -1.087118    1.088175
    121          1           0       15.255878    0.273998   -1.384577
    122          1           0       15.735143   -2.296226   -0.155178
    123          1           0       15.158494   -1.876732   -1.913047
    124          1           0       16.740659   -1.977040   -1.065822
    125          1           0       16.259449    1.403707    0.815005
    126          1           0       16.541175   -0.373121    1.312282
    127          1           0       18.507548   -0.487100   -0.235094
    128          1           0       17.513876    0.706766   -1.410500
    129          1           0       18.153583    2.438017    0.429229
    130          1           0       18.912606    0.997526    1.672756
    131          1           0       20.466890    0.513514   -0.155868
    132          1           0       19.684422    3.166879   -1.521779
    133          1           0       21.466648    2.243009   -1.729826
    134          1           0       19.950172    1.472437   -2.010990
    135          1           0       20.885792    1.453154    2.017306
    136          1           0       21.973726    2.355140    0.789556
    137          1           0       20.649128    3.159548    1.468872
 ---------------------------------------------------------------------

 SCF Done:  E(RCAM-B3LYP) =  -2933.43008335     A.U. after   16 cycles

 Excitation energies and oscillator strengths:

 Excited State   1:      Singlet-A      2.0292 eV  611.00 nm  f=0.2647  <S**2>=0.000
     240 -> 243       -0.22328
     241 -> 242        0.66401
 This state for optimization and/or second-order correction.
 Total Energy, E(TD-HF/TD-DFT) =  -2933.35551194
 Copying the excited state density for this state as the 1-particle RhoCI density.

 The electronic state is 1-A.
 Alpha  occ. eigenvalues --  -46.80153 -19.22304 -19.21663 -19.17399 -19.16043
 Alpha  occ. eigenvalues --  -19.14334 -14.37401 -14.35828 -14.35584 -14.35268
 Alpha  occ. eigenvalues --  -10.34742 -10.32434 -10.28952 -10.28649 -10.28316
 Alpha  occ. eigenvalues --  -10.26686 -10.26086 -10.25897 -10.25850 -10.25087
 Alpha  occ. eigenvalues --  -10.24883 -10.24877 -10.24569 -10.24375 -10.24281
 Alpha  occ. eigenvalues --  -10.23991 -10.23769 -10.23634 -10.23632 -10.23547
 Alpha  occ. eigenvalues --  -10.23371 -10.23257 -10.23058 -10.22982 -10.22970
 Alpha  occ. eigenvalues --  -10.22697 -10.22653 -10.22481 -10.22422 -10.22252
 Alpha  occ. eigenvalues --  -10.22132 -10.22101 -10.22091 -10.22046 -10.21966
 Alpha  occ. eigenvalues --  -10.21929 -10.21754 -10.21714 -10.21560 -10.21398
 Alpha  occ. eigenvalues --  -10.21341 -10.21341 -10.21135 -10.20977 -10.20955
 Alpha  occ. eigenvalues --  -10.20869 -10.20524 -10.20284 -10.20077 -10.19890
 Alpha  occ. eigenvalues --  -10.19784 -10.19694 -10.19457 -10.18871 -10.18677
 Alpha  occ. eigenvalues --   -3.08751  -1.83698  -1.83207  -1.83170  -1.18012
 Alpha  occ. eigenvalues --   -1.11108  -1.08060  -1.03746  -1.03604  -1.00374
 Alpha  occ. eigenvalues --   -0.99455  -0.98443  -0.97172  -0.86998  -0.86642
 Alpha  occ. eigenvalues --   -0.85618  -0.84816  -0.84621  -0.84601  -0.84390
 Alpha  occ. eigenvalues --   -0.83629  -0.83030  -0.82528  -0.82277  -0.81249
 Alpha  occ. eigenvalues --   -0.80241  -0.79682  -0.78864  -0.78554  -0.78302
 Alpha  occ. eigenvalues --   -0.76640  -0.76364  -0.75839  -0.75554  -0.74084
 Alpha  occ. eigenvalues --   -0.72996  -0.72567  -0.72083  -0.71457  -0.71274
 Alpha  occ. eigenvalues --   -0.70526  -0.69627  -0.69548  -0.68315  -0.67791
 Alpha  occ. eigenvalues --   -0.67079  -0.66098  -0.65897  -0.64150  -0.63701
 Alpha  occ. eigenvalues --   -0.62699  -0.61417  -0.61014  -0.60902  -0.60177
 Alpha  occ. eigenvalues --   -0.60021  -0.59041  -0.58663  -0.58487  -0.58342
 Alpha  occ. eigenvalues --   -0.57592  -0.56976  -0.56096  -0.55722  -0.55524
 Alpha  occ. eigenvalues --   -0.55114  -0.54583  -0.54177  -0.52990  -0.52659
 Alpha  occ. eigenvalues --   -0.52220  -0.52127  -0.51654  -0.51302  -0.51069
 Alpha  occ. eigenvalues --   -0.50870  -0.50412  -0.50252  -0.49718  -0.49396
 Alpha  occ. eigenvalues --   -0.48852  -0.48758  -0.48632  -0.48581  -0.48256
 Alpha  occ. eigenvalues --   -0.47715  -0.47467  -0.47366  -0.47267  -0.47245
 Alpha  occ. eigenvalues --   -0.46565  -0.46494  -0.46184  -0.45912  -0.45702
 Alpha  occ. eigenvalues --   -0.45602  -0.45515  -0.45170  -0.44926  -0.44666
 Alpha  occ. eigenvalues --   -0.44621  -0.44465  -0.44458  -0.44041  -0.43938
 Alpha  occ. eigenvalues --   -0.43619  -0.43515  -0.43140  -0.42634  -0.42542
 Alpha  occ. eigenvalues --   -0.42446  -0.42246  -0.42069  -0.41706  -0.41673
 Alpha  occ. eigenvalues --   -0.41648  -0.41392  -0.41348  -0.41208  -0.40845
 Alpha  occ. eigenvalues --   -0.40584  -0.40470  -0.40244  -0.40093  -0.39825
 Alpha  occ. eigenvalues --   -0.39518  -0.38833  -0.38765  -0.38687  -0.38661
 Alpha  occ. eigenvalues --   -0.38536  -0.38433  -0.38177  -0.38163  -0.37991
 Alpha  occ. eigenvalues --   -0.37780  -0.37327  -0.37285  -0.37148  -0.36964
 Alpha  occ. eigenvalues --   -0.36858  -0.36691  -0.36646  -0.36432  -0.36275
 Alpha  occ. eigenvalues --   -0.36051  -0.35272  -0.35197  -0.35168  -0.34576
 Alpha  occ. eigenvalues --   -0.34369  -0.33926  -0.33737  -0.33496  -0.33465
 Alpha  occ. eigenvalues --   -0.33273  -0.33124  -0.33042  -0.32996  -0.32522
 Alpha  occ. eigenvalues --   -0.32385  -0.32189  -0.32082  -0.30387  -0.30304
 Alpha  occ. eigenvalues --   -0.29853  -0.29523  -0.29457  -0.28379  -0.26572
 Alpha  occ. eigenvalues --   -0.26268  -0.25718  -0.25584  -0.25314  -0.21968
 Alpha  occ. eigenvalues --   -0.20058
 Alpha virt. eigenvalues --   -0.07247  -0.03842   0.00068   0.02844   0.03134
 Alpha virt. eigenvalues --    0.03514   0.04753   0.05156   0.05422   0.06239
 Alpha virt. eigenvalues --    0.07607   0.08671   0.08929   0.09576   0.09775

 Mulliken charges:
               1
     1  Mg   0.817646
     2  C    0.080258
     3  C   -0.209676
     4  C   -0.116310
     5  C   -0.154555
     6  N   -0.672922
     7  C    0.337293
     8  C   -0.164005
     9  C   -0.151398
    10  C    0.396464
    11  C   -0.309933
    12  C   -0.177104
    13  C   -0.281248
    14  C    0.631889
    15  O   -0.475167
    16  O   -0.491231
    17  N   -0.735069
    18  C    0.310835
    19  C   -0.017193
    20  C    0.039112
    21  C    0.329398
    22  C   -0.373289
    23  C   -0.086061
    24  C   -0.202637
    25  N   -0.666394
    26  C    0.323022
    27  C    0.056663
    28  C    0.019800
    29  C    0.263760
    30  C   -0.390900
    31  C   -0.222636
    32  C   -0.310568
    33  N   -0.743698
    34  C    0.252201
    35  C    0.034734
    36  C    0.053053
    37  C    0.314862
    38  C   -0.411505
    39  C    0.334060
    40  O   -0.490593
    41  C   -0.365146
    42  C    0.594383
    43  O   -0.385682
    44  O   -0.419595
    45  C   -0.093424
    46  C    0.015763
    47  C   -0.132038
    48  C    0.128112
    49  C   -0.376687
    50  C   -0.221281
    51  C   -0.160806
    52  C   -0.149091
    53  C   -0.056846
    54  C   -0.314402
    55  C   -0.142080
    56  C   -0.190509
    57  C   -0.141726
    58  C   -0.091653
    59  C   -0.298428
    60  C   -0.154870
    61  C   -0.164154
    62  C   -0.163405
    63  C   -0.055101
    64  C   -0.285012
    65  C   -0.313697
    66  H    0.075736
    67  H    0.069302
    68  H    0.108988
    69  H    0.118002
    70  H    0.096605
    71  H    0.123835
    72  H    0.102287
    73  H    0.124484
    74  H    0.134525
    75  H    0.103938
    76  H    0.132148
    77  H    0.134021
    78  H    0.100759
    79  H    0.138495
    80  H    0.122822
    81  H    0.082930
    82  H    0.089632
    83  H    0.071915
    84  H    0.089890
    85  H    0.121894
    86  H    0.077805
    87  H    0.108258
    88  H    0.091756
    89  H    0.109688
    90  H    0.123155
    91  H    0.080628
    92  H    0.142160
    93  H    0.143171
    94  H    0.116429
    95  H    0.147069
    96  H    0.133919
    97  H    0.106404
    98  H    0.095899
    99  H    0.147917
   100  H    0.114459
   101  H    0.087208
   102  H    0.115134
   103  H    0.117669
   104  H    0.112876
   105  H    0.067283
   106  H    0.093895
   107  H    0.086475
   108  H    0.104234
   109  H    0.058780
   110  H    0.106072
   111  H    0.069159
   112  H    0.117730
   113  H    0.087635
   114  H    0.095153
   115  H    0.086017
   116  H    0.054016
   117  H    0.089711
   118  H    0.085339
   119  H    0.091163
   120  H    0.083377
   121  H    0.056695
   122  H    0.105186
   123  H    0.109705
   124  H    0.092073
   125  H    0.082731
   126  H    0.071312
   127  H    0.067776
   128  H    0.106640
   129  H    0.096698
   130  H    0.068777
   131  H    0.096398
   132  H    0.070032
   133  H    0.047668
   134  H    0.123422
   135  H    0.102269
   136  H    0.094102
   137  H    0.115080
 Sum of Mulliken charges =  -0.00000

 Dipole moment (field-independent basis, Debye):
    X=              1.7227    Y=              4.2700    Z=              0.5756  Tot=              4.6402
 Quadrupole moment (field-independent basis, Debye-Ang):
   XX=           -354.2660   YY=           -401.2003   ZZ=           -394.8464
   XY=            -25.0518   XZ=              7.6726   YZ=             -1.8759

 Normal termination of Gaussian 16 at Mon Sep  9 18:37:22 2019.
