 Gaussian 16, Revision A.03,
 Gaussian 16:  ES64L-G16RevA.03 25-Dec-2016

 ----------------------------------------------------------------------
 # td=(NStates=1) iop(3/107=0140000000,3/108=0140000000) CAM-B3LYP/6-31
 G(d,p)
 ----------------------------------------------------------------------

 --
 TD
 --
 Symbolic Z-matrix:
 Charge =  0 Multiplicity = 1

                         Standard orientation:
 ---------------------------------------------------------------------
 Center     Atomic      Atomic             Coordinates (Angstroms)
 Number     Number       Type             X           Y           Z
 ---------------------------------------------------------------------
      1         12           0       -7.149846    0.553339    0.066438
      2          6           0       -4.819181   -1.942884    0.380783
      3          6           0       -4.783883    2.745176    1.168043
      4          6           0       -9.397900    3.181432   -0.374708
      5          6           0       -9.597030   -1.772422   -0.869421
      6          7           0       -5.111779    0.460590    0.784921
      7          6           0       -4.327489   -0.693100    0.728399
      8          6           0       -2.930119   -0.375375    1.185477
      9          6           0       -2.990572    1.061346    1.726082
     10          6           0       -4.359814    1.421811    1.197048
     11          6           0       -2.970171    1.171004    3.258492
     12          6           0       -1.834955   -0.543262    0.077284
     13          6           0       -0.452429   -0.265941    0.570450
     14          6           0        0.479642   -0.545314   -0.493113
     15          8           0        0.242624   -0.883570   -1.618507
     16          8           0        1.775302   -0.462255   -0.004919
     17          7           0       -7.145839    2.622298    0.373524
     18          6           0       -6.017044    3.303737    0.784479
     19          6           0       -6.367170    4.823465    0.862951
     20          6           0       -7.642420    4.924900    0.350417
     21          6           0       -8.117656    3.501287    0.129009
     22          6           0       -5.432869    5.918390    1.152332
     23          6           0       -8.381635    6.017653   -0.022585
     24          6           0       -8.407533    7.230380    0.615640
     25          7           0       -9.190185    0.646664   -0.457793
     26          6           0       -9.850975    1.826570   -0.612867
     27          6           0      -11.231212    1.472619   -1.079281
     28          6           0      -11.251315    0.152069   -1.144569
     29          6           0      -10.028141   -0.398857   -0.782833
     30          6           0      -12.344817    2.490982   -1.346925
     31          6           0      -12.457846   -0.715004   -1.634165
     32          6           0      -12.566255   -0.921303   -3.193599
     33          7           0       -7.290084   -1.381634   -0.283585
     34          6           0       -8.362030   -2.247081   -0.641247
     35          6           0       -7.770951   -3.640594   -0.622108
     36          6           0       -6.526187   -3.550631   -0.173955
     37          6           0       -6.201779   -2.224053    0.078779
     38          6           0       -8.696209   -4.864561   -0.932601
     39          6           0       -5.419466   -4.376934    0.130271
     40          8           0       -5.232678   -5.631339    0.036966
     41          6           0       -4.178026   -3.337737    0.572643
     42          6           0       -3.613808   -3.647971    1.917207
     43          8           0       -3.927334   -3.171906    2.984460
     44          8           0       -2.729940   -4.717628    1.642863
     45          6           0       -2.207194   -5.384987    2.869993
     46          6           0        2.766961   -0.728359   -1.115699
     47          6           0        4.196468   -0.428231   -0.506687
     48          6           0        5.127733    0.353957   -0.938602
     49          6           0        5.065560    1.214104   -2.196992
     50          6           0        6.505520    0.380668   -0.175587
     51          6           0        7.746790   -0.100811   -0.974316
     52          6           0        9.035049   -0.071642   -0.122725
     53          6           0       10.299614   -0.670774   -0.815052
     54          6           0        9.978409   -2.125839   -1.189911
     55          6           0       11.514670   -0.447892    0.102369
     56          6           0       12.859698   -0.608968   -0.711604
     57          6           0       14.092311   -0.213430    0.198748
     58          6           0       15.438722   -0.194128   -0.561814
     59          6           0       15.759625   -1.715942   -0.833660
     60          6           0       16.413391    0.507500    0.365492
     61          6           0       17.863879    0.685020   -0.273999
     62          6           0       18.809183    1.350859    0.657330
     63          6           0       20.218923    1.353580    0.148760
     64          6           0       20.316315    2.201299   -1.134664
     65          6           0       21.241292    1.916652    1.332755
     66          1           0       -4.055003    3.616311    1.530512
     67          1           0      -10.201888    3.972577   -0.429319
     68          1           0      -10.551027   -2.391189   -1.124319
     69          1           0       -2.712030   -1.154125    1.945525
     70          1           0       -2.041163    1.566029    1.447911
     71          1           0       -2.102278    0.597991    3.625094
     72          1           0       -3.075636    2.191656    3.523676
     73          1           0       -3.891610    0.680230    3.599398
     74          1           0       -1.970854   -1.455600   -0.527339
     75          1           0       -2.248389    0.205839   -0.619023
     76          1           0       -0.252446    0.698304    0.696938
     77          1           0       -0.365279   -0.892341    1.550162
     78          1           0       -5.661201    6.906458    0.473204
     79          1           0       -5.557055    6.385800    2.203132
     80          1           0       -4.316840    5.600562    0.885952
     81          1           0       -9.132341    5.933761   -0.781262
     82          1           0       -8.901789    7.889472    0.179490
     83          1           0       -7.671657    7.344623    1.472149
     84          1           0      -12.212211    3.119674   -2.235827
     85          1           0      -13.122815    1.638366   -1.573516
     86          1           0      -12.381723    3.267372   -0.573599
     87          1           0      -12.379268   -1.670970   -1.032406
     88          1           0      -13.484993   -0.275209   -1.357755
     89          1           0      -13.524621   -1.389708   -3.823890
     90          1           0      -12.391328    0.107681   -3.848483
     91          1           0      -11.615352   -1.598558   -3.592178
     92          1           0       -9.369202   -4.626785   -1.826624
     93          1           0       -8.108396   -5.819037   -0.936328
     94          1           0       -9.448519   -4.849240   -0.017101
     95          1           0       -3.457822   -3.472244   -0.229609
     96          1           0       -1.877090   -4.499065    3.509018
     97          1           0       -3.046629   -5.710158    3.620730
     98          1           0       -1.441476   -6.249734    2.472834
     99          1           0        2.774613   -1.703721   -1.499232
    100          1           0        2.798993   -0.065871   -2.136741
    101          1           0        4.423180   -0.996000    0.404033
    102          1           0        3.996779    1.177921   -2.550380
    103          1           0        5.213013    2.218618   -1.842587
    104          1           0        5.698235    0.880906   -2.879980
    105          1           0        6.710012    1.429494   -0.011128
    106          1           0        6.654833   -0.197606    0.807416
    107          1           0        7.630685   -1.130612   -1.322792
    108          1           0        7.744190    0.500120   -1.972170
    109          1           0        9.299765    0.933308    0.182115
    110          1           0        8.723179   -0.687844    0.775542
    111          1           0       10.540304   -0.047010   -1.681214
    112          1           0        9.088790   -2.387872   -1.773960
    113          1           0       10.820860   -2.703207   -1.985617
    114          1           0        9.919545   -2.753101   -0.214382
    115          1           0       11.586255    0.514036    0.436042
    116          1           0       11.616036   -1.101956    0.767684
    117          1           0       12.999654   -1.647814   -0.921922
    118          1           0       12.855186    0.094518   -1.578544
    119          1           0       13.657996    0.854696    0.720117
    120          1           0       14.024835   -0.959027    1.071029
    121          1           0       15.364193    0.187570   -1.431134
    122          1           0       16.373426   -2.340713    0.099588
    123          1           0       14.688922   -2.221611   -1.284969
    124          1           0       16.492880   -1.530988   -1.815610
    125          1           0       16.042555    1.474238    0.778172
    126          1           0       16.627021   -0.146142    1.095493
    127          1           0       18.293144   -0.379644   -0.654414
    128          1           0       17.589350    1.101343   -1.247908
    129          1           0       18.447679    2.325692    0.805457
    130          1           0       18.899168    0.873347    1.544352
    131          1           0       20.748941    0.402391    0.006283
    132          1           0       19.716986    3.138478   -1.057995
    133          1           0       21.398863    2.406681   -1.443843
    134          1           0       19.794846    1.560167   -1.916298
    135          1           0       21.201413    1.443154    2.235350
    136          1           0       22.252969    2.115306    1.013536
    137          1           0       20.638136    2.843495    1.714170
 ---------------------------------------------------------------------

 SCF Done:  E(RCAM-B3LYP) =  -2933.46182248     A.U. after   16 cycles

 Excitation energies and oscillator strengths:

 Excited State   1:      Singlet-A      2.0572 eV  602.69 nm  f=0.2230  <S**2>=0.000
     240 -> 243       -0.25184
     241 -> 242        0.65247
 This state for optimization and/or second-order correction.
 Total Energy, E(TD-HF/TD-DFT) =  -2933.38622230
 Copying the excited state density for this state as the 1-particle RhoCI density.

 The electronic state is 1-A.
 Alpha  occ. eigenvalues --  -46.80734 -19.22207 -19.21725 -19.18175 -19.17295
 Alpha  occ. eigenvalues --  -19.16673 -14.38319 -14.36213 -14.35833 -14.34687
 Alpha  occ. eigenvalues --  -10.35048 -10.34349 -10.31379 -10.28882 -10.28339
 Alpha  occ. eigenvalues --  -10.26893 -10.26737 -10.26580 -10.25544 -10.25386
 Alpha  occ. eigenvalues --  -10.25315 -10.24906 -10.24792 -10.24649 -10.24644
 Alpha  occ. eigenvalues --  -10.24557 -10.24283 -10.24126 -10.24065 -10.23918
 Alpha  occ. eigenvalues --  -10.23718 -10.23706 -10.23705 -10.23437 -10.23300
 Alpha  occ. eigenvalues --  -10.23257 -10.23029 -10.22865 -10.22576 -10.22464
 Alpha  occ. eigenvalues --  -10.22428 -10.22356 -10.22345 -10.22196 -10.22153
 Alpha  occ. eigenvalues --  -10.22050 -10.21970 -10.21725 -10.21445 -10.21438
 Alpha  occ. eigenvalues --  -10.21386 -10.21228 -10.21163 -10.21134 -10.20955
 Alpha  occ. eigenvalues --  -10.20898 -10.20807 -10.20793 -10.20767 -10.20761
 Alpha  occ. eigenvalues --  -10.20438 -10.19776 -10.19720 -10.19283 -10.18561
 Alpha  occ. eigenvalues --   -3.09208  -1.84155  -1.83684  -1.83601  -1.12434
 Alpha  occ. eigenvalues --   -1.11061  -1.04242  -1.04052  -1.03273  -1.01257
 Alpha  occ. eigenvalues --   -0.98524  -0.97734  -0.96748  -0.87331  -0.86634
 Alpha  occ. eigenvalues --   -0.85759  -0.85314  -0.85283  -0.84451  -0.83530
 Alpha  occ. eigenvalues --   -0.83165  -0.82830  -0.82480  -0.82187  -0.81252
 Alpha  occ. eigenvalues --   -0.79895  -0.79508  -0.78366  -0.77396  -0.77057
 Alpha  occ. eigenvalues --   -0.76052  -0.75499  -0.75447  -0.74852  -0.74055
 Alpha  occ. eigenvalues --   -0.73052  -0.71845  -0.71125  -0.70558  -0.70531
 Alpha  occ. eigenvalues --   -0.70264  -0.69608  -0.69100  -0.68466  -0.67533
 Alpha  occ. eigenvalues --   -0.67099  -0.66487  -0.64766  -0.64247  -0.63768
 Alpha  occ. eigenvalues --   -0.63470  -0.62003  -0.61408  -0.61033  -0.60321
 Alpha  occ. eigenvalues --   -0.59739  -0.59697  -0.58822  -0.58759  -0.58342
 Alpha  occ. eigenvalues --   -0.57591  -0.57167  -0.55813  -0.55194  -0.55068
 Alpha  occ. eigenvalues --   -0.54622  -0.54193  -0.53902  -0.53508  -0.53066
 Alpha  occ. eigenvalues --   -0.52565  -0.52121  -0.52009  -0.50838  -0.50643
 Alpha  occ. eigenvalues --   -0.50401  -0.50119  -0.50077  -0.49540  -0.49226
 Alpha  occ. eigenvalues --   -0.48930  -0.48697  -0.48609  -0.48061  -0.47915
 Alpha  occ. eigenvalues --   -0.47263  -0.47147  -0.46929  -0.46650  -0.46499
 Alpha  occ. eigenvalues --   -0.46321  -0.46210  -0.46028  -0.45978  -0.45741
 Alpha  occ. eigenvalues --   -0.45513  -0.45094  -0.44908  -0.44829  -0.44782
 Alpha  occ. eigenvalues --   -0.44373  -0.44218  -0.43978  -0.43648  -0.43510
 Alpha  occ. eigenvalues --   -0.43236  -0.43065  -0.42851  -0.42825  -0.42715
 Alpha  occ. eigenvalues --   -0.42363  -0.42044  -0.41632  -0.41543  -0.41426
 Alpha  occ. eigenvalues --   -0.41265  -0.41051  -0.40792  -0.40683  -0.40376
 Alpha  occ. eigenvalues --   -0.40299  -0.40195  -0.40192  -0.39922  -0.39868
 Alpha  occ. eigenvalues --   -0.39735  -0.39570  -0.39350  -0.39045  -0.38975
 Alpha  occ. eigenvalues --   -0.38861  -0.38646  -0.38476  -0.38295  -0.38034
 Alpha  occ. eigenvalues --   -0.37945  -0.37857  -0.37782  -0.37637  -0.36870
 Alpha  occ. eigenvalues --   -0.36632  -0.36489  -0.36403  -0.36299  -0.35794
 Alpha  occ. eigenvalues --   -0.35694  -0.35253  -0.35038  -0.34763  -0.34755
 Alpha  occ. eigenvalues --   -0.34622  -0.34493  -0.34033  -0.33777  -0.33768
 Alpha  occ. eigenvalues --   -0.33502  -0.33212  -0.33113  -0.32597  -0.32463
 Alpha  occ. eigenvalues --   -0.32002  -0.31885  -0.31324  -0.31245  -0.31030
 Alpha  occ. eigenvalues --   -0.30298  -0.29834  -0.29671  -0.28697  -0.27962
 Alpha  occ. eigenvalues --   -0.27538  -0.27166  -0.25930  -0.25190  -0.22102
 Alpha  occ. eigenvalues --   -0.19779
 Alpha virt. eigenvalues --   -0.06686  -0.04646  -0.01209   0.01388   0.02857
 Alpha virt. eigenvalues --    0.03518   0.04388   0.05045   0.05295   0.06028
 Alpha virt. eigenvalues --    0.06244   0.08700   0.08885   0.09342   0.09776

 Mulliken charges:
               1
     1  Mg   0.823543
     2  C    0.000236
     3  C   -0.218438
     4  C   -0.177770
     5  C   -0.180190
     6  N   -0.627352
     7  C    0.302626
     8  C   -0.187286
     9  C   -0.137820
    10  C    0.377325
    11  C   -0.304508
    12  C   -0.178734
    13  C   -0.241289
    14  C    0.616920
    15  O   -0.456760
    16  O   -0.494091
    17  N   -0.693187
    18  C    0.303827
    19  C    0.047253
    20  C    0.063144
    21  C    0.315303
    22  C   -0.398682
    23  C   -0.126921
    24  C   -0.198458
    25  N   -0.706687
    26  C    0.292838
    27  C    0.007354
    28  C    0.038804
    29  C    0.292944
    30  C   -0.363685
    31  C   -0.251446
    32  C   -0.284490
    33  N   -0.727669
    34  C    0.297344
    35  C   -0.002228
    36  C    0.115644
    37  C    0.277905
    38  C   -0.367704
    39  C    0.321577
    40  O   -0.479410
    41  C   -0.290460
    42  C    0.628194
    43  O   -0.464226
    44  O   -0.464571
    45  C   -0.090832
    46  C    0.003171
    47  C   -0.145245
    48  C    0.123106
    49  C   -0.360136
    50  C   -0.217151
    51  C   -0.182772
    52  C   -0.169107
    53  C   -0.046623
    54  C   -0.305506
    55  C   -0.148906
    56  C   -0.208817
    57  C   -0.166229
    58  C   -0.034068
    59  C   -0.285527
    60  C   -0.159586
    61  C   -0.205579
    62  C   -0.144340
    63  C   -0.060179
    64  C   -0.301071
    65  C   -0.337625
    66  H    0.068199
    67  H    0.087161
    68  H    0.088175
    69  H    0.108048
    70  H    0.103000
    71  H    0.110821
    72  H    0.118625
    73  H    0.125284
    74  H    0.128000
    75  H    0.109837
    76  H    0.149239
    77  H    0.140218
    78  H    0.108957
    79  H    0.124068
    80  H    0.107141
    81  H    0.091404
    82  H    0.087841
    83  H    0.091736
    84  H    0.121821
    85  H    0.103504
    86  H    0.121772
    87  H    0.102268
    88  H    0.106263
    89  H    0.093355
    90  H    0.091427
    91  H    0.083187
    92  H    0.124422
    93  H    0.147321
    94  H    0.121166
    95  H    0.163080
    96  H    0.125822
    97  H    0.127378
    98  H    0.129638
    99  H    0.144183
   100  H    0.095887
   101  H    0.081628
   102  H    0.101301
   103  H    0.122357
   104  H    0.137917
   105  H    0.099241
   106  H    0.085769
   107  H    0.097187
   108  H    0.070004
   109  H    0.090952
   110  H    0.082763
   111  H    0.086771
   112  H    0.119914
   113  H    0.055015
   114  H    0.094515
   115  H    0.094868
   116  H    0.096325
   117  H    0.103148
   118  H    0.084542
   119  H    0.038502
   120  H    0.084019
   121  H    0.093751
   122  H    0.087879
   123  H    0.087099
   124  H    0.074675
   125  H    0.088761
   126  H    0.105274
   127  H    0.066167
   128  H    0.093690
   129  H    0.100356
   130  H    0.100871
   131  H    0.092982
   132  H    0.098542
   133  H    0.090839
   134  H    0.099952
   135  H    0.110033
   136  H    0.103303
   137  H    0.073146
 Sum of Mulliken charges =  -0.00000

 Dipole moment (field-independent basis, Debye):
    X=              2.0893    Y=              4.3075    Z=              0.6434  Tot=              4.8305
 Quadrupole moment (field-independent basis, Debye-Ang):
   XX=           -375.6925   YY=           -394.8278   ZZ=           -398.8103
   XY=            -23.2660   XZ=             10.8424   YZ=             -4.2550

 Normal termination of Gaussian 16 at Sat Sep  7 14:54:27 2019.
