 Gaussian 16, Revision A.03,
 Gaussian 16:  ES64L-G16RevA.03 25-Dec-2016

 ----------------------------------------------------------------------
 # td=(NStates=1) iop(3/107=0140000000,3/108=0140000000) CAM-B3LYP/6-31
 G(d,p)
 ----------------------------------------------------------------------

 --
 TD
 --
 Symbolic Z-matrix:
 Charge =  0 Multiplicity = 1

                         Standard orientation:
 ---------------------------------------------------------------------
 Center     Atomic      Atomic             Coordinates (Angstroms)
 Number     Number       Type             X           Y           Z
 ---------------------------------------------------------------------
      1         12           0       -7.210877    0.606029    0.005820
      2          6           0       -4.925355   -2.000558    0.477698
      3          6           0       -4.779397    2.709417    1.118900
      4          6           0       -9.318597    3.190071   -0.468304
      5          6           0       -9.507006   -1.729676   -0.954744
      6          7           0       -5.151009    0.323263    0.685091
      7          6           0       -4.414474   -0.857828    0.857685
      8          6           0       -2.965029   -0.533528    1.179084
      9          6           0       -3.021983    0.977588    1.681531
     10          6           0       -4.367645    1.472409    1.146886
     11          6           0       -2.845527    1.239293    3.272317
     12          6           0       -1.906356   -0.799293    0.107471
     13          6           0       -0.479557   -0.521980    0.586435
     14          6           0        0.551107   -0.645499   -0.497973
     15          8           0        0.266851   -1.073563   -1.645970
     16          8           0        1.799565   -0.274679   -0.082802
     17          7           0       -7.047997    2.669940    0.209059
     18          6           0       -5.994834    3.365672    0.722009
     19          6           0       -6.297456    4.784307    0.776380
     20          6           0       -7.631980    4.922453    0.385803
     21          6           0       -8.106037    3.546764    0.037683
     22          6           0       -5.306978    5.836804    1.409335
     23          6           0       -8.431474    6.063244    0.226029
     24          6           0       -8.404594    7.220507    0.920576
     25          7           0       -9.039255    0.771737   -0.698054
     26          6           0       -9.777121    1.895654   -0.745285
     27          6           0      -11.189105    1.640279   -1.160535
     28          6           0      -11.191815    0.280281   -1.354008
     29          6           0       -9.930155   -0.252588   -0.929103
     30          6           0      -12.277763    2.660529   -1.146121
     31          6           0      -12.372044   -0.677636   -1.705227
     32          6           0      -12.379285   -0.975026   -3.233513
     33          7           0       -7.266434   -1.368727   -0.214412
     34          6           0       -8.290150   -2.163398   -0.653847
     35          6           0       -7.981258   -3.534870   -0.524963
     36          6           0       -6.587692   -3.570968   -0.203273
     37          6           0       -6.292659   -2.173179    0.003954
     38          6           0       -8.783752   -4.760398   -0.870034
     39          6           0       -5.474884   -4.402788    0.172338
     40          8           0       -5.339480   -5.676251    0.117029
     41          6           0       -4.297706   -3.393439    0.576153
     42          6           0       -3.506601   -3.789293    1.829093
     43          8           0       -3.544111   -3.223570    2.901038
     44          8           0       -2.834034   -4.961491    1.727611
     45          6           0       -2.183839   -5.523511    2.868187
     46          6           0        2.758759   -0.685894   -1.085881
     47          6           0        4.125049   -0.318880   -0.399137
     48          6           0        5.111849    0.397341   -0.945450
     49          6           0        5.111761    1.035862   -2.307640
     50          6           0        6.431032    0.647149   -0.100952
     51          6           0        7.588478    0.046385   -0.950676
     52          6           0        8.867511    0.074138   -0.103946
     53          6           0       10.197820   -0.551875   -0.776174
     54          6           0        9.945079   -2.070383   -1.022480
     55          6           0       11.466976   -0.179896    0.005155
     56          6           0       12.731708   -0.504131   -0.707948
     57          6           0       14.004535   -0.091008    0.082511
     58          6           0       15.401527   -0.271613   -0.543110
     59          6           0       15.711818   -1.736369   -0.866928
     60          6           0       16.560667    0.394214    0.369550
     61          6           0       17.849524    0.566267   -0.148239
     62          6           0       18.776183    1.247078    0.742101
     63          6           0       20.338060    1.227112    0.135432
     64          6           0       20.302884    2.011084   -1.236532
     65          6           0       21.195267    2.026534    1.133668
     66          1           0       -3.958890    3.573352    1.296098
     67          1           0      -10.098961    3.923701   -0.566926
     68          1           0      -10.384697   -2.385336   -1.245455
     69          1           0       -2.760338   -1.251899    1.923341
     70          1           0       -2.251883    1.452066    1.230290
     71          1           0       -1.768668    0.759834    3.641431
     72          1           0       -2.867526    2.364398    3.593864
     73          1           0       -3.661145    0.594674    3.747785
     74          1           0       -1.966032   -1.812771   -0.440134
     75          1           0       -2.130646   -0.070826   -0.670554
     76          1           0       -0.374933    0.500626    0.902209
     77          1           0       -0.296748   -1.158235    1.390484
     78          1           0       -5.525757    6.875234    1.036683
     79          1           0       -5.300317    5.912553    2.590937
     80          1           0       -4.160852    5.503883    1.177032
     81          1           0       -9.141304    6.042994   -0.459812
     82          1           0       -9.058279    8.038296    0.786115
     83          1           0       -7.609993    7.232804    1.615745
     84          1           0      -12.253483    3.197613   -2.252691
     85          1           0      -13.279929    2.144858   -1.446902
     86          1           0      -12.133077    3.512375   -0.188651
     87          1           0      -12.291872   -1.615076   -1.083118
     88          1           0      -13.358835   -0.197162   -1.478558
     89          1           0      -13.241455   -1.494041   -3.420684
     90          1           0      -12.171560   -0.176644   -3.954842
     91          1           0      -11.521623   -1.752219   -3.448619
     92          1           0       -9.578944   -4.692280   -1.743626
     93          1           0       -8.186946   -5.620323   -0.760947
     94          1           0       -9.702839   -5.090026    0.050601
     95          1           0       -3.578659   -3.532252   -0.323808
     96          1           0       -1.402904   -4.851005    3.277185
     97          1           0       -3.138500   -5.661062    3.793863
     98          1           0       -1.546702   -6.506439    2.428605
     99          1           0        2.746102   -1.684239   -1.381488
    100          1           0        2.727806    0.019239   -1.944291
    101          1           0        4.143421   -0.935492    0.578070
    102          1           0        4.191049    1.035127   -2.790587
    103          1           0        5.211648    2.244307   -2.158501
    104          1           0        5.865061    0.615615   -2.894830
    105          1           0        6.626185    1.641937    0.193792
    106          1           0        6.434602    0.030143    0.781919
    107          1           0        7.182346   -1.002255   -1.150062
    108          1           0        7.600527    0.681829   -2.011808
    109          1           0        9.120747    1.100937   -0.073720
    110          1           0        8.523817   -0.285568    0.769472
    111          1           0       10.173154   -0.176491   -1.671495
    112          1           0        8.964748   -2.055373   -1.559309
    113          1           0       10.724669   -2.557617   -1.545536
    114          1           0        9.869791   -2.572955    0.155693
    115          1           0       11.429793    0.941279    0.292939
    116          1           0       11.607480   -0.704923    0.934444
    117          1           0       12.638664   -1.698034   -0.865410
    118          1           0       12.698470   -0.022098   -1.744529
    119          1           0       13.643410    0.983398    0.322136
    120          1           0       13.921073   -0.690937    0.969585
    121          1           0       15.261961    0.427375   -1.516800
    122          1           0       15.834324   -2.303633    0.202267
    123          1           0       14.832294   -2.311929   -1.210507
    124          1           0       16.647361   -1.841763   -1.566951
    125          1           0       16.154648    1.191710    0.671613
    126          1           0       16.668986   -0.088689    1.300935
    127          1           0       18.284476   -0.548063   -0.494205
    128          1           0       17.798131    1.220765   -1.052938
    129          1           0       18.441224    2.228438    0.881982
    130          1           0       18.988732    0.814767    1.784265
    131          1           0       20.657942    0.112327    0.115078
    132          1           0       19.862422    3.007045   -1.130144
    133          1           0       21.441568    2.267946   -1.639963
    134          1           0       19.764611    1.555469   -2.021021
    135          1           0       21.332774    1.450006    2.147024
    136          1           0       22.369105    2.126165    0.942118
    137          1           0       20.747321    3.075593    1.215326
 ---------------------------------------------------------------------

 SCF Done:  E(RCAM-B3LYP) =  -2933.47686849     A.U. after   16 cycles

 Excitation energies and oscillator strengths:

 Excited State   1:      Singlet-A      2.0457 eV  606.07 nm  f=0.2504  <S**2>=0.000
     240 -> 243        0.22028
     241 -> 242        0.66231
 This state for optimization and/or second-order correction.
 Total Energy, E(TD-HF/TD-DFT) =  -2933.40169071
 Copying the excited state density for this state as the 1-particle RhoCI density.

 The electronic state is 1-A.
 Alpha  occ. eigenvalues --  -46.79719 -19.23115 -19.21568 -19.16727 -19.16376
 Alpha  occ. eigenvalues --  -19.15883 -14.36281 -14.35874 -14.35731 -14.35550
 Alpha  occ. eigenvalues --  -10.34854 -10.34821 -10.31076 -10.30083 -10.27025
 Alpha  occ. eigenvalues --  -10.25965 -10.25920 -10.25710 -10.25463 -10.25357
 Alpha  occ. eigenvalues --  -10.25349 -10.25235 -10.25097 -10.24907 -10.24815
 Alpha  occ. eigenvalues --  -10.24732 -10.24714 -10.24695 -10.24544 -10.24033
 Alpha  occ. eigenvalues --  -10.23479 -10.23462 -10.23447 -10.23370 -10.23206
 Alpha  occ. eigenvalues --  -10.23088 -10.23039 -10.22703 -10.22664 -10.22571
 Alpha  occ. eigenvalues --  -10.22564 -10.22362 -10.22181 -10.22129 -10.22121
 Alpha  occ. eigenvalues --  -10.22103 -10.22099 -10.21934 -10.21900 -10.21867
 Alpha  occ. eigenvalues --  -10.21756 -10.21691 -10.21571 -10.21354 -10.21308
 Alpha  occ. eigenvalues --  -10.21303 -10.21233 -10.21166 -10.21133 -10.20892
 Alpha  occ. eigenvalues --  -10.20869 -10.20865 -10.20734 -10.19934 -10.18015
 Alpha  occ. eigenvalues --   -3.08450  -1.83383  -1.82901  -1.82892  -1.12808
 Alpha  occ. eigenvalues --   -1.12600  -1.03721  -1.02872  -1.02519  -1.01581
 Alpha  occ. eigenvalues --   -0.98842  -0.97717  -0.95024  -0.87233  -0.85984
 Alpha  occ. eigenvalues --   -0.85612  -0.84803  -0.84586  -0.84237  -0.84119
 Alpha  occ. eigenvalues --   -0.83173  -0.82872  -0.82435  -0.82096  -0.80508
 Alpha  occ. eigenvalues --   -0.79863  -0.79191  -0.78850  -0.78281  -0.77781
 Alpha  occ. eigenvalues --   -0.76458  -0.75795  -0.75757  -0.75183  -0.73387
 Alpha  occ. eigenvalues --   -0.72775  -0.71921  -0.71260  -0.70699  -0.70333
 Alpha  occ. eigenvalues --   -0.70075  -0.69772  -0.69630  -0.68655  -0.68172
 Alpha  occ. eigenvalues --   -0.66707  -0.65577  -0.65246  -0.64642  -0.63699
 Alpha  occ. eigenvalues --   -0.63646  -0.61707  -0.61249  -0.60842  -0.60014
 Alpha  occ. eigenvalues --   -0.59491  -0.59250  -0.59183  -0.58353  -0.57574
 Alpha  occ. eigenvalues --   -0.57463  -0.56629  -0.56097  -0.55771  -0.55377
 Alpha  occ. eigenvalues --   -0.54763  -0.54196  -0.53869  -0.53324  -0.52775
 Alpha  occ. eigenvalues --   -0.51948  -0.51407  -0.51254  -0.50977  -0.50876
 Alpha  occ. eigenvalues --   -0.50646  -0.50443  -0.49954  -0.49361  -0.49242
 Alpha  occ. eigenvalues --   -0.48967  -0.48556  -0.48210  -0.47893  -0.47794
 Alpha  occ. eigenvalues --   -0.47540  -0.47341  -0.47023  -0.46973  -0.46711
 Alpha  occ. eigenvalues --   -0.46501  -0.46210  -0.46083  -0.45966  -0.45692
 Alpha  occ. eigenvalues --   -0.45302  -0.45112  -0.44903  -0.44805  -0.44573
 Alpha  occ. eigenvalues --   -0.44345  -0.43945  -0.43746  -0.43569  -0.43524
 Alpha  occ. eigenvalues --   -0.43459  -0.43315  -0.42932  -0.42806  -0.42140
 Alpha  occ. eigenvalues --   -0.41862  -0.41722  -0.41549  -0.41482  -0.41177
 Alpha  occ. eigenvalues --   -0.41116  -0.40985  -0.40786  -0.40597  -0.40492
 Alpha  occ. eigenvalues --   -0.40104  -0.39931  -0.39662  -0.39593  -0.39526
 Alpha  occ. eigenvalues --   -0.39357  -0.39317  -0.39126  -0.38962  -0.38696
 Alpha  occ. eigenvalues --   -0.38665  -0.38337  -0.38254  -0.38151  -0.37807
 Alpha  occ. eigenvalues --   -0.37640  -0.37249  -0.37072  -0.36933  -0.36856
 Alpha  occ. eigenvalues --   -0.36254  -0.36219  -0.36172  -0.35961  -0.35866
 Alpha  occ. eigenvalues --   -0.35518  -0.35434  -0.35391  -0.35128  -0.35020
 Alpha  occ. eigenvalues --   -0.34633  -0.34427  -0.34173  -0.33842  -0.33775
 Alpha  occ. eigenvalues --   -0.33278  -0.33266  -0.33049  -0.32941  -0.32593
 Alpha  occ. eigenvalues --   -0.32092  -0.31864  -0.31737  -0.30592  -0.30271
 Alpha  occ. eigenvalues --   -0.30167  -0.30002  -0.29822  -0.28571  -0.27559
 Alpha  occ. eigenvalues --   -0.27358  -0.26808  -0.26206  -0.25067  -0.21738
 Alpha  occ. eigenvalues --   -0.20612
 Alpha virt. eigenvalues --   -0.07578  -0.04512  -0.00295   0.02008   0.03209
 Alpha virt. eigenvalues --    0.03392   0.04784   0.04872   0.04961   0.05302
 Alpha virt. eigenvalues --    0.06789   0.07813   0.08251   0.09080   0.09289

 Mulliken charges:
               1
     1  Mg   0.820409
     2  C    0.066174
     3  C   -0.207749
     4  C   -0.157471
     5  C   -0.186949
     6  N   -0.651383
     7  C    0.301866
     8  C   -0.148743
     9  C   -0.135609
    10  C    0.351726
    11  C   -0.298887
    12  C   -0.177563
    13  C   -0.259799
    14  C    0.607175
    15  O   -0.486454
    16  O   -0.462081
    17  N   -0.700202
    18  C    0.316413
    19  C    0.021921
    20  C    0.028637
    21  C    0.309653
    22  C   -0.364611
    23  C   -0.085605
    24  C   -0.232829
    25  N   -0.693532
    26  C    0.289570
    27  C    0.063979
    28  C    0.021882
    29  C    0.249048
    30  C   -0.380773
    31  C   -0.253084
    32  C   -0.307036
    33  N   -0.730823
    34  C    0.321681
    35  C    0.063864
    36  C    0.023292
    37  C    0.325325
    38  C   -0.372311
    39  C    0.341180
    40  O   -0.492072
    41  C   -0.309400
    42  C    0.605715
    43  O   -0.468594
    44  O   -0.427869
    45  C   -0.059533
    46  C    0.007502
    47  C   -0.149897
    48  C    0.116035
    49  C   -0.359836
    50  C   -0.218175
    51  C   -0.200804
    52  C   -0.168639
    53  C   -0.048190
    54  C   -0.296171
    55  C   -0.161483
    56  C   -0.177622
    57  C   -0.171981
    58  C   -0.046792
    59  C   -0.303226
    60  C   -0.140462
    61  C   -0.149990
    62  C   -0.172987
    63  C   -0.050741
    64  C   -0.305082
    65  C   -0.291037
    66  H    0.057270
    67  H    0.075956
    68  H    0.096944
    69  H    0.123027
    70  H    0.103425
    71  H    0.084034
    72  H    0.108506
    73  H    0.127378
    74  H    0.114016
    75  H    0.113214
    76  H    0.136321
    77  H    0.143396
    78  H    0.121893
    79  H    0.118326
    80  H    0.097448
    81  H    0.080872
    82  H    0.107384
    83  H    0.091379
    84  H    0.102232
    85  H    0.117147
    86  H    0.114939
    87  H    0.106540
    88  H    0.099647
    89  H    0.115850
    90  H    0.120131
    91  H    0.085493
    92  H    0.124555
    93  H    0.164780
    94  H    0.067559
    95  H    0.158483
    96  H    0.128341
    97  H    0.100765
    98  H    0.113580
    99  H    0.142754
   100  H    0.114406
   101  H    0.085513
   102  H    0.119720
   103  H    0.092380
   104  H    0.137639
   105  H    0.109352
   106  H    0.102625
   107  H    0.096310
   108  H    0.066079
   109  H    0.096634
   110  H    0.097409
   111  H    0.096788
   112  H    0.103447
   113  H    0.111110
   114  H    0.056951
   115  H    0.068846
   116  H    0.094527
   117  H    0.067296
   118  H    0.077035
   119  H    0.080381
   120  H    0.091063
   121  H    0.057805
   122  H    0.076860
   123  H    0.109475
   124  H    0.104106
   125  H    0.090914
   126  H    0.086081
   127  H    0.054789
   128  H    0.085724
   129  H    0.096624
   130  H    0.078976
   131  H    0.084979
   132  H    0.103278
   133  H    0.069507
   134  H    0.116416
   135  H    0.085874
   136  H    0.081426
   137  H    0.099096
 Sum of Mulliken charges =  -0.00000

 Dipole moment (field-independent basis, Debye):
    X=             -0.5466    Y=              4.6879    Z=              0.1402  Tot=              4.7217
 Quadrupole moment (field-independent basis, Debye-Ang):
   XX=           -340.5236   YY=           -398.1068   ZZ=           -400.5592
   XY=            -19.0272   XZ=             15.5873   YZ=             -0.9151

 Normal termination of Gaussian 16 at Fri Sep  6 00:22:33 2019.
