 Gaussian 09, Revision D.01,
 Gaussian 09:  ES64L-G09RevD.01 24-Apr-2013

 -------------------------------------
 # td=(NStates=1) CAM-B3LYP/6-31G(d,p)
 -------------------------------------

 --
 TD
 --
 Symbolic Z-matrix:
 Charge =  0 Multiplicity = 1

                         Standard orientation:
 ---------------------------------------------------------------------
 Center     Atomic      Atomic             Coordinates (Angstroms)
 Number     Number       Type             X           Y           Z
 ---------------------------------------------------------------------
      1         12           0       -7.142480    0.612907    0.070379
      2          6           0       -4.803787   -1.945688    0.525355
      3          6           0       -4.799946    2.840495    1.111724
      4          6           0       -9.497163    3.056034   -0.259698
      5          6           0       -9.536332   -1.673013   -0.822139
      6          7           0       -5.172771    0.456898    0.672645
      7          6           0       -4.371005   -0.676959    0.833224
      8          6           0       -3.005349   -0.390232    1.192128
      9          6           0       -3.076399    1.114445    1.721880
     10          6           0       -4.451220    1.591132    1.190677
     11          6           0       -3.008216    1.172770    3.194075
     12          6           0       -1.993219   -0.660976    0.133990
     13          6           0       -0.496899   -0.435856    0.614482
     14          6           0        0.501647   -0.610816   -0.604888
     15          8           0        0.166494   -0.919492   -1.707898
     16          8           0        1.718593   -0.466051   -0.191344
     17          7           0       -7.170794    2.664653    0.318662
     18          6           0       -6.044204    3.394141    0.747258
     19          6           0       -6.475189    4.848314    0.794031
     20          6           0       -7.755003    4.853482    0.312807
     21          6           0       -8.159835    3.474313    0.211956
     22          6           0       -5.342891    5.860027    1.078525
     23          6           0       -8.630582    6.006771    0.086134
     24          6           0       -8.403796    7.127352    0.752850
     25          7           0       -9.130715    0.651210   -0.620906
     26          6           0       -9.894717    1.800705   -0.709595
     27          6           0      -11.238413    1.435731   -1.029266
     28          6           0      -11.273548    0.048018   -1.261329
     29          6           0       -9.942703   -0.434661   -0.995293
     30          6           0      -12.316881    2.318532   -1.413169
     31          6           0      -12.418294   -0.856338   -1.743396
     32          6           0      -12.312183   -1.045955   -3.244503
     33          7           0       -7.151813   -1.357017   -0.134109
     34          6           0       -8.232227   -2.190026   -0.467457
     35          6           0       -7.828916   -3.537709   -0.481571
     36          6           0       -6.490652   -3.543435   -0.024771
     37          6           0       -6.185431   -2.217938    0.132879
     38          6           0       -8.612944   -4.788655   -0.742814
     39          6           0       -5.291016   -4.396917    0.193182
     40          8           0       -5.142120   -5.519130    0.168897
     41          6           0       -4.081540   -3.301616    0.576153
     42          6           0       -3.485813   -3.726272    1.951763
     43          8           0       -3.888354   -3.147342    2.969766
     44          8           0       -2.566532   -4.613576    1.836466
     45          6           0       -2.188721   -5.165394    3.114428
     46          6           0        2.790496   -0.566323   -1.286563
     47          6           0        4.114819   -0.383845   -0.549342
     48          6           0        5.224064    0.255740   -0.953020
     49          6           0        5.161274    1.126930   -2.223789
     50          6           0        6.479149    0.234534   -0.242766
     51          6           0        7.650681   -0.212449   -1.138052
     52          6           0        9.000943   -0.128280   -0.359555
     53          6           0       10.278107   -0.600222   -1.179008
     54          6           0       10.235155   -2.052215   -1.642798
     55          6           0       11.458223   -0.378978   -0.148845
     56          6           0       12.902150   -0.556130   -0.717789
     57          6           0       14.015472   -0.316687    0.268493
     58          6           0       15.351743   -0.234449   -0.470886
     59          6           0       15.831959   -1.663920   -0.862319
     60          6           0       16.433140    0.326293    0.475892
     61          6           0       17.781553    0.561515   -0.062830
     62          6           0       18.725281    1.435507    0.825113
     63          6           0       20.226824    1.445380    0.385184
     64          6           0       20.246679    2.233165   -0.943272
     65          6           0       21.052976    2.118020    1.452209
     66          1           0       -4.085394    3.646105    1.376468
     67          1           0      -10.122021    3.890520   -0.421051
     68          1           0      -10.284644   -2.732888   -0.995673
     69          1           0       -2.763551   -1.170807    2.095367
     70          1           0       -2.202110    1.487087    1.065648
     71          1           0       -2.103577    0.867037    3.440634
     72          1           0       -3.105539    2.295809    3.758183
     73          1           0       -3.837969    0.662202    3.589143
     74          1           0       -1.844464   -1.757160   -0.221876
     75          1           0       -2.118132    0.069624   -0.758889
     76          1           0       -0.239231    0.523188    1.117321
     77          1           0       -0.362917   -1.067853    1.436142
     78          1           0       -5.683070    6.814970    0.542451
     79          1           0       -5.025926    6.163810    2.035706
     80          1           0       -4.366252    5.550032    0.316959
     81          1           0       -9.465190    6.017682   -0.449588
     82          1           0       -9.354731    8.089870    0.779016
     83          1           0       -7.700696    7.269803    1.459177
     84          1           0      -12.149942    2.866131   -2.389300
     85          1           0      -13.178580    1.626601   -1.430658
     86          1           0      -12.586196    3.283258   -0.765052
     87          1           0      -12.452288   -1.804216   -1.209190
     88          1           0      -13.382587   -0.328990   -1.400081
     89          1           0      -13.116815   -1.618818   -3.574913
     90          1           0      -12.585409   -0.112228   -3.772682
     91          1           0      -11.387153   -1.158363   -3.514986
     92          1           0       -9.111860   -4.836932   -1.781550
     93          1           0       -8.168580   -5.656680   -0.620391
     94          1           0       -9.485387   -4.833745   -0.044988
     95          1           0       -3.255531   -3.357830   -0.288980
     96          1           0       -1.673834   -4.301946    3.714039
     97          1           0       -2.899771   -5.889601    3.489698
     98          1           0       -1.457624   -5.907621    2.799690
     99          1           0        2.588637   -1.566348   -1.630769
    100          1           0        2.574919    0.298685   -2.025527
    101          1           0        4.129362   -0.929965    0.314795
    102          1           0        4.188516    1.287773   -2.450216
    103          1           0        5.568483    2.186782   -2.187595
    104          1           0        5.567685    0.856379   -3.202074
    105          1           0        6.608412    1.207765    0.284030
    106          1           0        6.386021   -0.315385    0.559068
    107          1           0        7.505917   -1.269168   -1.627776
    108          1           0        7.457113    0.553336   -1.963692
    109          1           0        9.168925    0.873821   -0.017403
    110          1           0        9.081265   -0.870286    0.544390
    111          1           0       10.425829   -0.023568   -2.084731
    112          1           0        9.312719   -2.202582   -2.486257
    113          1           0       11.103990   -2.088731   -2.474766
    114          1           0       10.083043   -2.818822   -0.974300
    115          1           0       11.370342    0.504767    0.512785
    116          1           0       11.379609   -1.227688    0.614546
    117          1           0       12.960530   -1.610205   -1.161687
    118          1           0       13.120374   -0.074775   -1.524193
    119          1           0       13.760429    0.537448    1.079868
    120          1           0       14.139660   -1.150345    1.109283
    121          1           0       15.008409    0.374707   -1.430959
    122          1           0       15.789846   -2.337052    0.031507
    123          1           0       15.237576   -2.202721   -1.738816
    124          1           0       16.791750   -1.587079   -1.357112
    125          1           0       16.039002    1.375862    0.725224
    126          1           0       16.672754   -0.302469    1.397939
    127          1           0       18.278037   -0.305340   -0.438299
    128          1           0       17.538765    1.153670   -1.053436
    129          1           0       18.396966    2.364010    1.034559
    130          1           0       18.854350    0.926768    1.757787
    131          1           0       20.524550    0.458754    0.318286
    132          1           0       19.865591    3.312936   -0.644113
    133          1           0       21.279311    2.200232   -1.322220
    134          1           0       19.666460    1.846378   -1.812485
    135          1           0       21.006236    1.590092    2.318726
    136          1           0       22.182789    2.343098    1.038191
    137          1           0       20.826753    3.176522    1.711949
 ---------------------------------------------------------------------

 SCF Done:  E(RCAM-B3LYP) =  -2932.63369772     A.U. after   18 cycles

 Excitation energies and oscillator strengths:

 Excited State   1:      Singlet-A      1.9532 eV  634.79 nm  f=0.2951  <S**2>=0.000
     240 -> 242       -0.11164
     240 -> 243        0.20004
     241 -> 242        0.66347
 This state for optimization and/or second-order correction.
 Total Energy, E(TD-HF/TD-KS) =  -2932.56192032
 Copying the excited state density for this state as the 1-particle RhoCI density.

 The electronic state is 1-A.
 Alpha  occ. eigenvalues --  -46.83182 -19.27843 -19.25990 -19.20982 -19.19950
 Alpha  occ. eigenvalues --  -19.19453 -14.40891 -14.39354 -14.38861 -14.38051
 Alpha  occ. eigenvalues --  -10.38646 -10.38371 -10.34850 -10.33450 -10.32344
 Alpha  occ. eigenvalues --  -10.30296 -10.30001 -10.29420 -10.28828 -10.28815
 Alpha  occ. eigenvalues --  -10.28737 -10.28400 -10.28190 -10.28040 -10.28039
 Alpha  occ. eigenvalues --  -10.27898 -10.27895 -10.27565 -10.27354 -10.27351
 Alpha  occ. eigenvalues --  -10.27185 -10.27135 -10.27120 -10.27109 -10.27039
 Alpha  occ. eigenvalues --  -10.26913 -10.26844 -10.26773 -10.26746 -10.26691
 Alpha  occ. eigenvalues --  -10.26616 -10.26484 -10.26480 -10.26457 -10.26421
 Alpha  occ. eigenvalues --  -10.26259 -10.25937 -10.25919 -10.25909 -10.25580
 Alpha  occ. eigenvalues --  -10.25545 -10.25538 -10.25461 -10.25355 -10.25230
 Alpha  occ. eigenvalues --  -10.25061 -10.25026 -10.24920 -10.24882 -10.24865
 Alpha  occ. eigenvalues --  -10.24588 -10.24048 -10.23665 -10.23611 -10.23348
 Alpha  occ. eigenvalues --   -3.12299  -1.87007  -1.86523  -1.86495  -1.20441
 Alpha  occ. eigenvalues --   -1.18723  -1.16099  -1.09131  -1.07914  -1.04587
 Alpha  occ. eigenvalues --   -1.03531  -1.01682  -1.00859  -0.92132  -0.90729
 Alpha  occ. eigenvalues --   -0.90535  -0.89750  -0.89380  -0.88935  -0.88473
 Alpha  occ. eigenvalues --   -0.88250  -0.87836  -0.87749  -0.86374  -0.85734
 Alpha  occ. eigenvalues --   -0.84818  -0.84178  -0.83437  -0.83360  -0.82746
 Alpha  occ. eigenvalues --   -0.81398  -0.81244  -0.80299  -0.79852  -0.77928
 Alpha  occ. eigenvalues --   -0.77759  -0.77175  -0.76750  -0.75346  -0.75274
 Alpha  occ. eigenvalues --   -0.74801  -0.74601  -0.74446  -0.73418  -0.72433
 Alpha  occ. eigenvalues --   -0.70977  -0.70129  -0.69769  -0.68592  -0.67339
 Alpha  occ. eigenvalues --   -0.66655  -0.66468  -0.65035  -0.64943  -0.63892
 Alpha  occ. eigenvalues --   -0.63646  -0.63603  -0.62789  -0.62351  -0.61764
 Alpha  occ. eigenvalues --   -0.61633  -0.61390  -0.60863  -0.60517  -0.58886
 Alpha  occ. eigenvalues --   -0.58515  -0.57838  -0.57683  -0.57312  -0.57138
 Alpha  occ. eigenvalues --   -0.56156  -0.55881  -0.55546  -0.54461  -0.54389
 Alpha  occ. eigenvalues --   -0.54316  -0.54129  -0.53823  -0.53477  -0.53248
 Alpha  occ. eigenvalues --   -0.53019  -0.52839  -0.52673  -0.51758  -0.51330
 Alpha  occ. eigenvalues --   -0.51145  -0.50908  -0.50657  -0.50568  -0.50251
 Alpha  occ. eigenvalues --   -0.50092  -0.49886  -0.49464  -0.49431  -0.49174
 Alpha  occ. eigenvalues --   -0.49028  -0.48600  -0.48461  -0.48367  -0.48193
 Alpha  occ. eigenvalues --   -0.48153  -0.47800  -0.47741  -0.47581  -0.46904
 Alpha  occ. eigenvalues --   -0.46790  -0.46666  -0.46229  -0.46182  -0.45923
 Alpha  occ. eigenvalues --   -0.45847  -0.45691  -0.45320  -0.45283  -0.45077
 Alpha  occ. eigenvalues --   -0.44922  -0.44794  -0.44603  -0.44417  -0.44014
 Alpha  occ. eigenvalues --   -0.43784  -0.43500  -0.43449  -0.43244  -0.43078
 Alpha  occ. eigenvalues --   -0.42864  -0.42661  -0.42586  -0.42385  -0.42164
 Alpha  occ. eigenvalues --   -0.42038  -0.41694  -0.41423  -0.41286  -0.40996
 Alpha  occ. eigenvalues --   -0.40863  -0.40702  -0.40147  -0.40078  -0.39880
 Alpha  occ. eigenvalues --   -0.39582  -0.39543  -0.39504  -0.39136  -0.38931
 Alpha  occ. eigenvalues --   -0.38718  -0.38588  -0.38436  -0.38176  -0.37993
 Alpha  occ. eigenvalues --   -0.37651  -0.37268  -0.37053  -0.36866  -0.36674
 Alpha  occ. eigenvalues --   -0.36488  -0.36302  -0.36183  -0.36114  -0.35312
 Alpha  occ. eigenvalues --   -0.34847  -0.34567  -0.33967  -0.33443  -0.33246
 Alpha  occ. eigenvalues --   -0.32849  -0.32463  -0.32081  -0.30215  -0.30169
 Alpha  occ. eigenvalues --   -0.29122  -0.28658  -0.27924  -0.27353  -0.22354
 Alpha  occ. eigenvalues --   -0.21048
 Alpha virt. eigenvalues --   -0.07038  -0.01920   0.02988   0.04558   0.05350
 Alpha virt. eigenvalues --    0.06455   0.07046   0.07340   0.07683   0.08298
 Alpha virt. eigenvalues --    0.08914   0.11081   0.11385   0.11557   0.11686

 Mulliken charges:
               1
     1  Mg   0.806915
     2  C    0.078648
     3  C   -0.194983
     4  C   -0.172445
     5  C   -0.176097
     6  N   -0.655077
     7  C    0.341078
     8  C   -0.170351
     9  C   -0.152445
    10  C    0.334488
    11  C   -0.275238
    12  C   -0.168565
    13  C   -0.292071
    14  C    0.602100
    15  O   -0.475890
    16  O   -0.473633
    17  N   -0.672691
    18  C    0.269488
    19  C    0.014599
    20  C   -0.003982
    21  C    0.308976
    22  C   -0.377257
    23  C   -0.040789
    24  C   -0.219830
    25  N   -0.686270
    26  C    0.324674
    27  C    0.017757
    28  C    0.014230
    29  C    0.308286
    30  C   -0.371409
    31  C   -0.233900
    32  C   -0.301806
    33  N   -0.722756
    34  C    0.255357
    35  C    0.007934
    36  C   -0.010770
    37  C    0.289889
    38  C   -0.373417
    39  C    0.364451
    40  O   -0.387318
    41  C   -0.346899
    42  C    0.621007
    43  O   -0.501661
    44  O   -0.410517
    45  C   -0.101201
    46  C    0.002011
    47  C   -0.139536
    48  C    0.136956
    49  C   -0.385019
    50  C   -0.219000
    51  C   -0.184133
    52  C   -0.163720
    53  C   -0.061012
    54  C   -0.295359
    55  C   -0.181537
    56  C   -0.174982
    57  C   -0.153261
    58  C   -0.068240
    59  C   -0.304294
    60  C   -0.155995
    61  C   -0.182537
    62  C   -0.163561
    63  C   -0.063590
    64  C   -0.293518
    65  C   -0.303126
    66  H    0.092599
    67  H    0.077411
    68  H    0.081677
    69  H    0.106266
    70  H    0.100883
    71  H    0.119748
    72  H    0.064808
    73  H    0.139798
    74  H    0.119868
    75  H    0.110164
    76  H    0.116232
    77  H    0.130694
    78  H    0.114531
    79  H    0.139877
    80  H    0.096326
    81  H    0.094765
    82  H    0.055287
    83  H    0.110901
    84  H    0.122343
    85  H    0.109289
    86  H    0.092242
    87  H    0.112318
    88  H    0.092327
    89  H    0.111925
    90  H    0.101461
    91  H    0.130031
    92  H    0.106568
    93  H    0.143157
    94  H    0.116975
    95  H    0.131488
    96  H    0.139906
    97  H    0.148584
    98  H    0.123768
    99  H    0.154120
   100  H    0.133620
   101  H    0.095349
   102  H    0.107050
   103  H    0.106973
   104  H    0.125336
   105  H    0.103371
   106  H    0.103697
   107  H    0.094203
   108  H    0.097099
   109  H    0.101877
   110  H    0.081125
   111  H    0.089903
   112  H    0.062339
   113  H    0.095662
   114  H    0.120108
   115  H    0.089512
   116  H    0.083966
   117  H    0.091332
   118  H    0.097815
   119  H    0.068900
   120  H    0.066370
   121  H    0.076975
   122  H    0.107043
   123  H    0.077853
   124  H    0.110003
   125  H    0.084713
   126  H    0.086065
   127  H    0.095148
   128  H    0.067461
   129  H    0.096819
   130  H    0.079331
   131  H    0.095006
   132  H    0.084620
   133  H    0.091484
   134  H    0.103365
   135  H    0.111860
   136  H    0.072337
   137  H    0.098825
 Sum of Mulliken charges =   0.00000

 Dipole moment (field-independent basis, Debye):
    X=              3.4745    Y=              2.9925    Z=              0.4845  Tot=              4.6111
 Quadrupole moment (field-independent basis, Debye-Ang):
   XX=           -348.6968   YY=           -383.8882   ZZ=           -395.0751
   XY=            -20.9609   XZ=             12.5935   YZ=             -3.5696

 Normal termination of Gaussian 09 at Sat Jul  6 14:43:07 2019.
