 Gaussian 16, Revision A.03,
 Gaussian 16:  ES64L-G16RevA.03 25-Dec-2016

 ----------------------------------------------------------------------
 # td=(NStates=1) iop(3/107=0140000000,3/108=0140000000) CAM-B3LYP/6-31
 G(d,p)
 ----------------------------------------------------------------------

 --
 TD
 --
 Symbolic Z-matrix:
 Charge =  0 Multiplicity = 1

                         Standard orientation:
 ---------------------------------------------------------------------
 Center     Atomic      Atomic             Coordinates (Angstroms)
 Number     Number       Type             X           Y           Z
 ---------------------------------------------------------------------
      1         12           0       -7.210519    0.580171    0.137229
      2          6           0       -4.869638   -1.935365    0.513056
      3          6           0       -4.803220    2.805943    1.101689
      4          6           0       -9.448279    3.076583   -0.265130
      5          6           0       -9.496608   -1.731630   -0.895007
      6          7           0       -5.131359    0.385845    0.854412
      7          6           0       -4.360533   -0.735914    0.842941
      8          6           0       -2.996085   -0.410734    1.237108
      9          6           0       -3.041474    1.098322    1.701025
     10          6           0       -4.379432    1.430584    1.216795
     11          6           0       -2.932052    1.274097    3.244879
     12          6           0       -1.989568   -0.671156    0.103743
     13          6           0       -0.529774   -0.468925    0.552848
     14          6           0        0.498151   -0.649454   -0.475788
     15          8           0        0.247903   -1.133352   -1.588967
     16          8           0        1.691346   -0.262905   -0.041470
     17          7           0       -7.168420    2.570776    0.367857
     18          6           0       -6.008069    3.335591    0.761111
     19          6           0       -6.326907    4.797915    0.766344
     20          6           0       -7.713899    4.827947    0.377793
     21          6           0       -8.131854    3.464948    0.063403
     22          6           0       -5.472536    5.851782    1.232822
     23          6           0       -8.548009    5.968640    0.212501
     24          6           0       -8.322707    7.232393    0.649558
     25          7           0       -9.108045    0.708420   -0.502368
     26          6           0       -9.960364    1.845056   -0.689953
     27          6           0      -11.274737    1.498393   -1.138680
     28          6           0      -11.243668    0.143248   -1.290480
     29          6           0       -9.809087   -0.366089   -0.934017
     30          6           0      -12.462026    2.476582   -1.462747
     31          6           0      -12.253105   -0.668974   -1.929833
     32          6           0      -12.004320   -1.074200   -3.320354
     33          7           0       -7.227988   -1.423409   -0.183172
     34          6           0       -8.276399   -2.248087   -0.503473
     35          6           0       -7.872357   -3.594258   -0.496481
     36          6           0       -6.500788   -3.555993   -0.154819
     37          6           0       -6.216564   -2.224235    0.085909
     38          6           0       -8.534783   -4.807406   -0.738418
     39          6           0       -5.259965   -4.315479    0.163270
     40          8           0       -5.147609   -5.491554    0.117347
     41          6           0       -4.145904   -3.301298    0.603898
     42          6           0       -3.563178   -3.655617    1.915337
     43          8           0       -3.671583   -3.081700    2.986521
     44          8           0       -2.775929   -4.775056    1.773345
     45          6           0       -2.172134   -5.272456    2.978284
     46          6           0        2.763900   -0.632576   -1.118036
     47          6           0        4.103351   -0.533264   -0.486492
     48          6           0        5.057334    0.356106   -0.911605
     49          6           0        5.188162    1.171283   -2.204636
     50          6           0        6.454789    0.354010   -0.225984
     51          6           0        7.686242   -0.019189   -1.071498
     52          6           0        8.897769   -0.110942   -0.177285
     53          6           0       10.171085   -0.523677   -0.942691
     54          6           0       10.051287   -2.096840   -1.501768
     55          6           0       11.451194   -0.196502   -0.079717
     56          6           0       12.708713   -0.558919   -0.764365
     57          6           0       13.895102   -0.121466    0.102496
     58          6           0       15.397937   -0.191309   -0.491926
     59          6           0       15.754818   -1.677457   -0.853468
     60          6           0       16.388864    0.503127    0.349019
     61          6           0       17.765931    0.604607   -0.263294
     62          6           0       18.637873    1.295574    0.684951
     63          6           0       20.251044    1.284297    0.249741
     64          6           0       20.511246    2.221075   -0.950051
     65          6           0       21.094232    1.889273    1.413314
     66          1           0       -4.218481    3.508619    1.426418
     67          1           0      -10.279705    3.822726   -0.403166
     68          1           0      -10.232710   -2.495324   -1.519151
     69          1           0       -2.579157   -1.221043    1.970853
     70          1           0       -2.338189    1.780171    1.146537
     71          1           0       -1.930338    0.682319    3.415361
     72          1           0       -3.008079    2.335084    3.659793
     73          1           0       -3.978236    0.783752    3.464247
     74          1           0       -2.098383   -1.815279   -0.112590
     75          1           0       -2.223304    0.036311   -0.742562
     76          1           0       -0.157445    0.478316    1.024535
     77          1           0        0.047585   -1.248281    1.130476
     78          1           0       -5.692513    6.494677    0.579727
     79          1           0       -5.304669    6.244211    2.090740
     80          1           0       -4.374980    5.532454    0.865306
     81          1           0       -9.509780    5.835851   -0.447007
     82          1           0       -9.096146    8.059062    0.495318
     83          1           0       -7.699369    7.621044    1.263574
     84          1           0      -12.344930    3.072810   -2.542171
     85          1           0      -13.374203    1.933401   -1.557532
     86          1           0      -12.584397    3.166942   -0.772269
     87          1           0      -12.517681   -1.694704   -1.320647
     88          1           0      -13.210137   -0.286295   -1.862743
     89          1           0      -12.949697   -1.559929   -3.781490
     90          1           0      -12.158470   -0.228229   -3.943944
     91          1           0      -11.096518   -1.389869   -3.426712
     92          1           0       -8.959901   -5.104552   -1.781905
     93          1           0       -8.022030   -5.835720   -0.670118
     94          1           0       -9.359344   -4.888743    0.125289
     95          1           0       -3.488609   -3.224677   -0.248834
     96          1           0       -1.503606   -4.484726    3.557226
     97          1           0       -2.970282   -5.757329    3.618302
     98          1           0       -1.522548   -6.157990    2.768089
     99          1           0        2.440258   -1.700626   -1.351528
    100          1           0        2.650505   -0.173402   -2.225415
    101          1           0        4.217073   -0.919176    0.568037
    102          1           0        4.208939    1.382449   -2.713273
    103          1           0        5.514380    2.089726   -1.872966
    104          1           0        6.037648    0.769158   -2.960293
    105          1           0        6.719303    1.441011    0.051594
    106          1           0        6.352382   -0.160333    0.723318
    107          1           0        7.418349   -1.048231   -1.662692
    108          1           0        7.835826    0.716483   -1.797762
    109          1           0        9.149121    0.867081    0.256217
    110          1           0        8.853708   -1.014241    0.657381
    111          1           0       10.186524    0.090264   -1.773513
    112          1           0        9.046808   -2.136354   -2.117301
    113          1           0       10.918790   -2.345464   -2.426319
    114          1           0        9.948252   -2.899842   -0.696518
    115          1           0       11.321050    0.885977    0.251612
    116          1           0       11.448018   -0.774851    0.817817
    117          1           0       12.912338   -1.688305   -0.906214
    118          1           0       12.699513   -0.076498   -1.670162
    119          1           0       13.714842    0.949710    0.441588
    120          1           0       14.016357   -0.816837    0.941456
    121          1           0       15.093199    0.358472   -1.476260
    122          1           0       16.001117   -2.152361    0.161357
    123          1           0       15.010214   -2.280399   -1.300202
    124          1           0       16.741440   -1.813069   -1.217999
    125          1           0       16.195380    1.394288    0.716107
    126          1           0       16.294550   -0.109280    1.339722
    127          1           0       18.154046   -0.348055   -0.579669
    128          1           0       17.718125    1.061191   -1.186145
    129          1           0       18.335869    2.294644    0.694050
    130          1           0       18.592659    0.864284    1.662959
    131          1           0       20.567862    0.201044   -0.012126
    132          1           0       20.011760    3.254162   -0.854149
    133          1           0       21.464666    2.453950   -1.173736
    134          1           0       20.032798    1.654389   -1.837213
    135          1           0       21.207899    1.485346    2.400493
    136          1           0       22.135024    1.815345    1.205446
    137          1           0       20.939550    2.988562    1.360232
 ---------------------------------------------------------------------

 SCF Done:  E(RCAM-B3LYP) =  -2933.45914497     A.U. after   16 cycles

 Excitation energies and oscillator strengths:

 Excited State   1:      Singlet-A      1.9712 eV  628.97 nm  f=0.2704  <S**2>=0.000
     240 -> 243       -0.20478
     241 -> 242        0.67396
 This state for optimization and/or second-order correction.
 Total Energy, E(TD-HF/TD-DFT) =  -2933.38670380
 Copying the excited state density for this state as the 1-particle RhoCI density.

 The electronic state is 1-A.
 Alpha  occ. eigenvalues --  -46.79501 -19.22369 -19.21794 -19.16982 -19.15766
 Alpha  occ. eigenvalues --  -19.14972 -14.37552 -14.35128 -14.35010 -14.34444
 Alpha  occ. eigenvalues --  -10.34891 -10.33311 -10.30133 -10.28992 -10.27724
 Alpha  occ. eigenvalues --  -10.26305 -10.25297 -10.25280 -10.25034 -10.24948
 Alpha  occ. eigenvalues --  -10.24792 -10.24464 -10.24056 -10.24039 -10.23851
 Alpha  occ. eigenvalues --  -10.23754 -10.23748 -10.23599 -10.23578 -10.23522
 Alpha  occ. eigenvalues --  -10.23470 -10.23311 -10.23169 -10.23169 -10.23044
 Alpha  occ. eigenvalues --  -10.22931 -10.22854 -10.22776 -10.22615 -10.22549
 Alpha  occ. eigenvalues --  -10.22536 -10.22470 -10.22443 -10.22302 -10.22284
 Alpha  occ. eigenvalues --  -10.22252 -10.22230 -10.22142 -10.22036 -10.21963
 Alpha  occ. eigenvalues --  -10.21231 -10.20856 -10.20813 -10.20640 -10.20448
 Alpha  occ. eigenvalues --  -10.20386 -10.20241 -10.20115 -10.20029 -10.19759
 Alpha  occ. eigenvalues --  -10.19745 -10.19739 -10.19348 -10.19318 -10.18948
 Alpha  occ. eigenvalues --   -3.08171  -1.83107  -1.82648  -1.82577  -1.12265
 Alpha  occ. eigenvalues --   -1.12012  -1.07701  -1.03840  -1.02050  -1.00420
 Alpha  occ. eigenvalues --   -0.99400  -0.97049  -0.96000  -0.87584  -0.86020
 Alpha  occ. eigenvalues --   -0.85579  -0.84982  -0.84772  -0.84319  -0.84174
 Alpha  occ. eigenvalues --   -0.83784  -0.82644  -0.82473  -0.82298  -0.81421
 Alpha  occ. eigenvalues --   -0.80738  -0.80020  -0.79102  -0.78458  -0.78095
 Alpha  occ. eigenvalues --   -0.77115  -0.76460  -0.75894  -0.74724  -0.73964
 Alpha  occ. eigenvalues --   -0.73722  -0.72842  -0.71464  -0.71032  -0.70970
 Alpha  occ. eigenvalues --   -0.70646  -0.70414  -0.69036  -0.68439  -0.67747
 Alpha  occ. eigenvalues --   -0.67405  -0.66355  -0.65408  -0.64527  -0.64036
 Alpha  occ. eigenvalues --   -0.62994  -0.62684  -0.61006  -0.60638  -0.60163
 Alpha  occ. eigenvalues --   -0.59658  -0.59495  -0.59059  -0.57816  -0.57504
 Alpha  occ. eigenvalues --   -0.57379  -0.57193  -0.56133  -0.55367  -0.54876
 Alpha  occ. eigenvalues --   -0.54593  -0.54243  -0.54140  -0.53717  -0.52633
 Alpha  occ. eigenvalues --   -0.52134  -0.52093  -0.51235  -0.51164  -0.50787
 Alpha  occ. eigenvalues --   -0.50516  -0.50265  -0.50225  -0.49823  -0.49733
 Alpha  occ. eigenvalues --   -0.49531  -0.49323  -0.49240  -0.48513  -0.48157
 Alpha  occ. eigenvalues --   -0.47935  -0.47592  -0.47368  -0.46835  -0.46801
 Alpha  occ. eigenvalues --   -0.46527  -0.46125  -0.45886  -0.45719  -0.45476
 Alpha  occ. eigenvalues --   -0.45410  -0.45288  -0.45158  -0.44815  -0.44625
 Alpha  occ. eigenvalues --   -0.44232  -0.44071  -0.44018  -0.43920  -0.43747
 Alpha  occ. eigenvalues --   -0.43489  -0.43278  -0.42948  -0.42627  -0.42403
 Alpha  occ. eigenvalues --   -0.42278  -0.42015  -0.41846  -0.41818  -0.41587
 Alpha  occ. eigenvalues --   -0.41174  -0.40972  -0.40829  -0.40744  -0.40694
 Alpha  occ. eigenvalues --   -0.40566  -0.40484  -0.40194  -0.40153  -0.40023
 Alpha  occ. eigenvalues --   -0.39892  -0.39627  -0.39397  -0.39251  -0.39044
 Alpha  occ. eigenvalues --   -0.38891  -0.38724  -0.38438  -0.38388  -0.37888
 Alpha  occ. eigenvalues --   -0.37779  -0.37348  -0.37114  -0.37051  -0.36859
 Alpha  occ. eigenvalues --   -0.36637  -0.36276  -0.35974  -0.35928  -0.35769
 Alpha  occ. eigenvalues --   -0.35640  -0.35459  -0.35233  -0.35148  -0.34713
 Alpha  occ. eigenvalues --   -0.34522  -0.34098  -0.33860  -0.33682  -0.33613
 Alpha  occ. eigenvalues --   -0.33581  -0.32987  -0.32909  -0.32836  -0.32756
 Alpha  occ. eigenvalues --   -0.32508  -0.32365  -0.31177  -0.30681  -0.30463
 Alpha  occ. eigenvalues --   -0.29799  -0.29460  -0.29106  -0.28245  -0.26984
 Alpha  occ. eigenvalues --   -0.26584  -0.26275  -0.26023  -0.24311  -0.21648
 Alpha  occ. eigenvalues --   -0.19371
 Alpha virt. eigenvalues --   -0.06988  -0.03484   0.00191   0.01875   0.02095
 Alpha virt. eigenvalues --    0.03489   0.04796   0.05305   0.05513   0.06095
 Alpha virt. eigenvalues --    0.06740   0.08686   0.09119   0.09378   0.10147

 Mulliken charges:
               1
     1  Mg   0.814868
     2  C    0.014984
     3  C   -0.159078
     4  C   -0.195188
     5  C   -0.182661
     6  N   -0.629882
     7  C    0.369763
     8  C   -0.187617
     9  C   -0.154354
    10  C    0.323635
    11  C   -0.279138
    12  C   -0.160644
    13  C   -0.255217
    14  C    0.605202
    15  O   -0.511668
    16  O   -0.483455
    17  N   -0.706834
    18  C    0.303594
    19  C    0.008351
    20  C    0.033448
    21  C    0.325437
    22  C   -0.351857
    23  C   -0.094285
    24  C   -0.244471
    25  N   -0.690156
    26  C    0.251829
    27  C    0.061903
    28  C    0.016444
    29  C    0.320437
    30  C   -0.354538
    31  C   -0.258652
    32  C   -0.290956
    33  N   -0.736662
    34  C    0.298582
    35  C    0.044676
    36  C    0.020934
    37  C    0.312819
    38  C   -0.422175
    39  C    0.350283
    40  O   -0.430062
    41  C   -0.317634
    42  C    0.631127
    43  O   -0.468758
    44  O   -0.442614
    45  C   -0.083371
    46  C   -0.012987
    47  C   -0.126432
    48  C    0.123443
    49  C   -0.362466
    50  C   -0.222044
    51  C   -0.161470
    52  C   -0.158683
    53  C   -0.057906
    54  C   -0.309723
    55  C   -0.168356
    56  C   -0.163903
    57  C   -0.188474
    58  C   -0.058992
    59  C   -0.325869
    60  C   -0.148500
    61  C   -0.174992
    62  C   -0.168269
    63  C   -0.066438
    64  C   -0.306466
    65  C   -0.319187
    66  H    0.039446
    67  H    0.069906
    68  H    0.097884
    69  H    0.117018
    70  H    0.104544
    71  H    0.112745
    72  H    0.110732
    73  H    0.119671
    74  H    0.110539
    75  H    0.116790
    76  H    0.131214
    77  H    0.135765
    78  H    0.138859
    79  H    0.142063
    80  H    0.081993
    81  H    0.089825
    82  H    0.084656
    83  H    0.099235
    84  H    0.096328
    85  H    0.123251
    86  H    0.135386
    87  H    0.072769
    88  H    0.099919
    89  H    0.091961
    90  H    0.110098
    91  H    0.117869
    92  H    0.109455
    93  H    0.143125
    94  H    0.107472
    95  H    0.181975
    96  H    0.114186
    97  H    0.126201
    98  H    0.122083
    99  H    0.137111
   100  H    0.125846
   101  H    0.095712
   102  H    0.105429
   103  H    0.133622
   104  H    0.114931
   105  H    0.082410
   106  H    0.097746
   107  H    0.082786
   108  H    0.105840
   109  H    0.092225
   110  H    0.072257
   111  H    0.088953
   112  H    0.091803
   113  H    0.072083
   114  H    0.106685
   115  H    0.079536
   116  H    0.096885
   117  H    0.091571
   118  H    0.095740
   119  H    0.073608
   120  H    0.084816
   121  H    0.060150
   122  H    0.081082
   123  H    0.112665
   124  H    0.111149
   125  H    0.098046
   126  H    0.066251
   127  H    0.086993
   128  H    0.104909
   129  H    0.096801
   130  H    0.097319
   131  H    0.076190
   132  H    0.089943
   133  H    0.117636
   134  H    0.086780
   135  H    0.098071
   136  H    0.098495
   137  H    0.096286
 Sum of Mulliken charges =  -0.00000

 Dipole moment (field-independent basis, Debye):
    X=              2.8878    Y=              5.0294    Z=              0.0991  Tot=              5.8004
 Quadrupole moment (field-independent basis, Debye-Ang):
   XX=           -336.2981   YY=           -390.8321   ZZ=           -398.5125
   XY=            -17.0055   XZ=             12.0801   YZ=             -1.8339

 Normal termination of Gaussian 16 at Sun Sep 22 08:43:35 2019.
