 Gaussian 16, Revision A.03,
 Gaussian 16:  ES64L-G16RevA.03 25-Dec-2016

 ----------------------------------------------------------------------
 # td=(NStates=1) iop(3/107=0140000000,3/108=0140000000) CAM-B3LYP/6-31
 G(d,p)
 ----------------------------------------------------------------------

 --
 TD
 --
 Symbolic Z-matrix:
 Charge =  0 Multiplicity = 1

                         Standard orientation:
 ---------------------------------------------------------------------
 Center     Atomic      Atomic             Coordinates (Angstroms)
 Number     Number       Type             X           Y           Z
 ---------------------------------------------------------------------
      1         12           0       -7.176138    0.626204    0.019901
      2          6           0       -4.858327   -2.021631    0.519230
      3          6           0       -4.708122    2.786741    1.213043
      4          6           0       -9.348517    3.124288   -0.386979
      5          6           0       -9.515539   -1.829165   -0.928309
      6          7           0       -5.164616    0.400311    0.751007
      7          6           0       -4.305128   -0.769723    0.783126
      8          6           0       -2.964184   -0.458747    1.267599
      9          6           0       -3.048587    1.057259    1.727610
     10          6           0       -4.348552    1.513038    1.142482
     11          6           0       -2.924962    1.180532    3.230388
     12          6           0       -1.929931   -0.431115    0.171241
     13          6           0       -0.478863   -0.474625    0.673535
     14          6           0        0.580136   -0.717820   -0.528562
     15          8           0        0.293289   -1.018426   -1.703402
     16          8           0        1.776445   -0.423422   -0.135137
     17          7           0       -7.014257    2.582914    0.281682
     18          6           0       -6.018357    3.432214    0.807450
     19          6           0       -6.393486    4.742710    0.871757
     20          6           0       -7.675559    4.848533    0.307534
     21          6           0       -8.087399    3.470768    0.081991
     22          6           0       -5.403883    5.862074    1.050260
     23          6           0       -8.550712    6.042523    0.219038
     24          6           0       -8.430920    7.129803    0.937752
     25          7           0       -9.084245    0.663805   -0.672070
     26          6           0       -9.823598    1.837836   -0.662385
     27          6           0      -11.181240    1.581888   -1.069834
     28          6           0      -11.287462    0.170936   -1.261773
     29          6           0       -9.952748   -0.398193   -1.045496
     30          6           0      -12.302150    2.576928   -1.234084
     31          6           0      -12.413657   -0.561605   -1.725051
     32          6           0      -12.340774   -1.153871   -3.290736
     33          7           0       -7.186358   -1.353970   -0.221633
     34          6           0       -8.282187   -2.177887   -0.569439
     35          6           0       -7.915019   -3.558311   -0.550864
     36          6           0       -6.493572   -3.510420   -0.211818
     37          6           0       -6.178596   -2.224935    0.008677
     38          6           0       -8.702467   -4.742034   -0.832154
     39          6           0       -5.405019   -4.431440    0.225568
     40          8           0       -5.323113   -5.669589    0.323510
     41          6           0       -4.255656   -3.429743    0.471541
     42          6           0       -3.560912   -3.684284    1.876268
     43          8           0       -3.896394   -3.217737    2.982173
     44          8           0       -2.838188   -4.798229    1.764822
     45          6           0       -2.241217   -5.299273    2.957230
     46          6           0        2.869082   -0.645287   -1.115895
     47          6           0        4.203577   -0.385772   -0.529436
     48          6           0        5.119738    0.414256   -1.064659
     49          6           0        5.003820    1.217988   -2.281642
     50          6           0        6.514789    0.566173   -0.411068
     51          6           0        7.691759   -0.208196   -1.067916
     52          6           0        8.885130   -0.049472   -0.274148
     53          6           0       10.191701   -0.531783   -0.926754
     54          6           0       10.087939   -2.102623   -1.228258
     55          6           0       11.462233   -0.261219   -0.056477
     56          6           0       12.841752   -0.378767   -0.778474
     57          6           0       13.945698   -0.019876    0.127089
     58          6           0       15.291839   -0.162396   -0.552462
     59          6           0       15.648029   -1.783279   -0.743053
     60          6           0       16.382579    0.492752    0.370520
     61          6           0       17.855685    0.633123   -0.217009
     62          6           0       18.859986    1.198460    0.841397
     63          6           0       20.213912    1.306885    0.277337
     64          6           0       20.512079    2.021484   -0.970184
     65          6           0       21.166897    1.789307    1.359598
     66          1           0       -3.959086    3.347356    1.419693
     67          1           0       -9.986246    4.088611   -0.379204
     68          1           0      -10.460487   -2.556084   -1.095175
     69          1           0       -2.951780   -1.178741    2.124298
     70          1           0       -2.157953    1.581809    1.377372
     71          1           0       -1.881035    0.796191    3.648250
     72          1           0       -2.790902    2.289888    3.518194
     73          1           0       -3.744311    0.691931    3.610413
     74          1           0       -2.129746   -1.365979   -0.334865
     75          1           0       -2.095887    0.422067   -0.673259
     76          1           0       -0.017550    0.439331    0.986094
     77          1           0       -0.282910   -1.345133    1.225790
     78          1           0       -5.668462    6.722005    0.541382
     79          1           0       -5.500365    6.286854    2.222097
     80          1           0       -4.393578    5.462675    0.702871
     81          1           0       -9.282574    5.980624   -0.495104
     82          1           0       -9.184050    7.942269    0.606528
     83          1           0       -7.619037    7.256884    1.656637
     84          1           0      -12.118267    3.303328   -1.901551
     85          1           0      -13.203955    2.194225   -1.458952
     86          1           0      -12.240539    3.170060   -0.137600
     87          1           0      -12.626725   -1.425375   -1.171220
     88          1           0      -13.521616    0.012138   -1.761203
     89          1           0      -12.960881   -2.063146   -3.470602
     90          1           0      -12.559300   -0.368910   -4.055464
     91          1           0      -11.391342   -1.588841   -3.378330
     92          1           0       -8.993711   -4.844628   -1.894030
     93          1           0       -8.059219   -5.574687   -0.836363
     94          1           0       -9.533920   -5.073161   -0.138374
     95          1           0       -3.434386   -3.650953   -0.226031
     96          1           0       -1.507482   -4.500318    3.388957
     97          1           0       -3.065881   -5.455716    3.702133
     98          1           0       -1.712925   -6.156748    2.710350
     99          1           0        2.849954   -1.676717   -1.377071
    100          1           0        2.680432   -0.068686   -2.176814
    101          1           0        4.526261   -0.560710    0.499094
    102          1           0        4.067890    1.324836   -2.677075
    103          1           0        5.392985    2.173761   -1.994835
    104          1           0        5.607499    0.871613   -3.220902
    105          1           0        6.648126    1.583387   -0.255317
    106          1           0        6.460145    0.250257    0.742579
    107          1           0        7.096059   -1.180615   -1.193797
    108          1           0        7.652218    0.336155   -1.919656
    109          1           0        8.860951    1.037010   -0.236098
    110          1           0        8.822951   -0.581809    0.753841
    111          1           0       10.327781   -0.013758   -1.958973
    112          1           0        9.169414   -2.392349   -1.687367
    113          1           0       10.857683   -2.384727   -1.789835
    114          1           0        9.970203   -2.760370   -0.175153
    115          1           0       11.369590    1.046706    0.157100
    116          1           0       11.616991   -0.747561    0.902742
    117          1           0       12.883153   -1.561012   -1.093612
    118          1           0       12.940515    0.096561   -1.691052
    119          1           0       13.727192    1.035773    0.475918
    120          1           0       14.054229   -0.626856    1.002120
    121          1           0       15.327625    0.454389   -1.522308
    122          1           0       15.580633   -2.431536    0.182782
    123          1           0       14.863309   -2.318839   -1.494971
    124          1           0       16.615760   -1.699564   -1.398378
    125          1           0       15.961193    1.414104    0.626277
    126          1           0       16.601295   -0.099019    1.239101
    127          1           0       18.320776   -0.391107   -0.673059
    128          1           0       18.038986    1.173899   -1.235399
    129          1           0       18.502896    2.307852    1.128837
    130          1           0       18.725485    0.495483    1.707640
    131          1           0       20.479566    0.106298    0.117311
    132          1           0       20.230244    3.075344   -0.941354
    133          1           0       21.571932    2.141370   -1.030549
    134          1           0       19.796704    1.838347   -1.878323
    135          1           0       20.885455    1.188765    2.307592
    136          1           0       22.077875    1.649621    1.030209
    137          1           0       21.031481    2.937178    1.621512
 ---------------------------------------------------------------------

 SCF Done:  E(RCAM-B3LYP) =  -2933.48149451     A.U. after   15 cycles

 Excitation energies and oscillator strengths:

 Excited State   1:      Singlet-A      2.0170 eV  614.71 nm  f=0.2018  <S**2>=0.000
     240 -> 243        0.26631
     241 -> 242        0.64529
 This state for optimization and/or second-order correction.
 Total Energy, E(TD-HF/TD-DFT) =  -2933.40737256
 Copying the excited state density for this state as the 1-particle RhoCI density.

 The electronic state is 1-A.
 Alpha  occ. eigenvalues --  -46.78313 -19.23171 -19.22366 -19.16557 -19.16427
 Alpha  occ. eigenvalues --  -19.15316 -14.36441 -14.35414 -14.35056 -14.34824
 Alpha  occ. eigenvalues --  -10.34577 -10.33994 -10.30954 -10.29029 -10.27002
 Alpha  occ. eigenvalues --  -10.26135 -10.25734 -10.25420 -10.25118 -10.24746
 Alpha  occ. eigenvalues --  -10.24658 -10.24582 -10.24511 -10.24493 -10.24438
 Alpha  occ. eigenvalues --  -10.24123 -10.23847 -10.23272 -10.23061 -10.23030
 Alpha  occ. eigenvalues --  -10.23019 -10.22995 -10.22982 -10.22895 -10.22851
 Alpha  occ. eigenvalues --  -10.22814 -10.22712 -10.22350 -10.22319 -10.22303
 Alpha  occ. eigenvalues --  -10.22255 -10.22155 -10.22143 -10.22046 -10.22012
 Alpha  occ. eigenvalues --  -10.21900 -10.21821 -10.21714 -10.21681 -10.21602
 Alpha  occ. eigenvalues --  -10.21533 -10.21521 -10.21307 -10.21295 -10.21182
 Alpha  occ. eigenvalues --  -10.21113 -10.21112 -10.20976 -10.20883 -10.20571
 Alpha  occ. eigenvalues --  -10.20509 -10.20419 -10.20237 -10.20104 -10.19730
 Alpha  occ. eigenvalues --   -3.07096  -1.82023  -1.81582  -1.81512  -1.14066
 Alpha  occ. eigenvalues --   -1.13329  -1.04517  -1.02920  -1.01990  -0.98667
 Alpha  occ. eigenvalues --   -0.97092  -0.95805  -0.94884  -0.87496  -0.87306
 Alpha  occ. eigenvalues --   -0.85413  -0.84983  -0.84439  -0.84062  -0.83869
 Alpha  occ. eigenvalues --   -0.83672  -0.82758  -0.82453  -0.82311  -0.80789
 Alpha  occ. eigenvalues --   -0.80219  -0.79546  -0.78976  -0.78188  -0.77649
 Alpha  occ. eigenvalues --   -0.77043  -0.76780  -0.75455  -0.74695  -0.73854
 Alpha  occ. eigenvalues --   -0.73182  -0.72125  -0.71992  -0.71502  -0.71325
 Alpha  occ. eigenvalues --   -0.70714  -0.69981  -0.69521  -0.68936  -0.68186
 Alpha  occ. eigenvalues --   -0.66935  -0.65642  -0.65568  -0.64489  -0.63862
 Alpha  occ. eigenvalues --   -0.62455  -0.62316  -0.61063  -0.60498  -0.59965
 Alpha  occ. eigenvalues --   -0.59360  -0.59131  -0.59123  -0.57838  -0.57498
 Alpha  occ. eigenvalues --   -0.56717  -0.56412  -0.56118  -0.55423  -0.55061
 Alpha  occ. eigenvalues --   -0.54399  -0.53737  -0.53333  -0.53059  -0.52305
 Alpha  occ. eigenvalues --   -0.52244  -0.51822  -0.51296  -0.51057  -0.51043
 Alpha  occ. eigenvalues --   -0.50370  -0.50160  -0.50073  -0.49604  -0.49590
 Alpha  occ. eigenvalues --   -0.48912  -0.48596  -0.48286  -0.48213  -0.48006
 Alpha  occ. eigenvalues --   -0.47666  -0.47411  -0.47140  -0.46787  -0.46561
 Alpha  occ. eigenvalues --   -0.46485  -0.46459  -0.46199  -0.46011  -0.45869
 Alpha  occ. eigenvalues --   -0.45828  -0.45584  -0.45298  -0.45163  -0.44657
 Alpha  occ. eigenvalues --   -0.44527  -0.44444  -0.44107  -0.43975  -0.43621
 Alpha  occ. eigenvalues --   -0.43307  -0.43114  -0.42939  -0.42840  -0.42672
 Alpha  occ. eigenvalues --   -0.42461  -0.41712  -0.41560  -0.41420  -0.41181
 Alpha  occ. eigenvalues --   -0.41131  -0.40808  -0.40678  -0.40588  -0.40381
 Alpha  occ. eigenvalues --   -0.40344  -0.40260  -0.39927  -0.39791  -0.39708
 Alpha  occ. eigenvalues --   -0.39469  -0.39265  -0.39142  -0.38991  -0.38599
 Alpha  occ. eigenvalues --   -0.38485  -0.38374  -0.38196  -0.38153  -0.38024
 Alpha  occ. eigenvalues --   -0.37766  -0.37494  -0.37442  -0.37402  -0.37155
 Alpha  occ. eigenvalues --   -0.36890  -0.36790  -0.36528  -0.36317  -0.35662
 Alpha  occ. eigenvalues --   -0.35645  -0.35522  -0.35074  -0.35038  -0.34858
 Alpha  occ. eigenvalues --   -0.34442  -0.34416  -0.33918  -0.33740  -0.32913
 Alpha  occ. eigenvalues --   -0.32857  -0.32833  -0.32691  -0.32348  -0.32091
 Alpha  occ. eigenvalues --   -0.31934  -0.31545  -0.31118  -0.30838  -0.30418
 Alpha  occ. eigenvalues --   -0.29988  -0.29464  -0.28684  -0.28059  -0.27499
 Alpha  occ. eigenvalues --   -0.27126  -0.26573  -0.25260  -0.24527  -0.21196
 Alpha  occ. eigenvalues --   -0.20771
 Alpha virt. eigenvalues --   -0.07681  -0.04487  -0.00099   0.02344   0.03099
 Alpha virt. eigenvalues --    0.03533   0.04939   0.05164   0.05733   0.06148
 Alpha virt. eigenvalues --    0.06706   0.08155   0.09074   0.09521   0.10000

 Mulliken charges:
               1
     1  Mg   0.799743
     2  C    0.090609
     3  C   -0.159473
     4  C   -0.155948
     5  C   -0.177921
     6  N   -0.623016
     7  C    0.274941
     8  C   -0.174906
     9  C   -0.144738
    10  C    0.355253
    11  C   -0.289927
    12  C   -0.163818
    13  C   -0.246110
    14  C    0.554356
    15  O   -0.499254
    16  O   -0.433500
    17  N   -0.700412
    18  C    0.289781
    19  C    0.001577
    20  C    0.010422
    21  C    0.300502
    22  C   -0.364097
    23  C   -0.047708
    24  C   -0.236785
    25  N   -0.699432
    26  C    0.309838
    27  C    0.029785
    28  C    0.050999
    29  C    0.247461
    30  C   -0.347661
    31  C   -0.282848
    32  C   -0.327410
    33  N   -0.739540
    34  C    0.327136
    35  C    0.056009
    36  C   -0.028939
    37  C    0.312131
    38  C   -0.419624
    39  C    0.404912
    40  O   -0.477815
    41  C   -0.318332
    42  C    0.593320
    43  O   -0.485239
    44  O   -0.421199
    45  C   -0.083575
    46  C    0.000824
    47  C   -0.120439
    48  C    0.109205
    49  C   -0.359383
    50  C   -0.261884
    51  C   -0.151272
    52  C   -0.138120
    53  C   -0.059895
    54  C   -0.308214
    55  C   -0.139047
    56  C   -0.162382
    57  C   -0.151683
    58  C   -0.071937
    59  C   -0.313332
    60  C   -0.157951
    61  C   -0.193445
    62  C   -0.140232
    63  C   -0.023465
    64  C   -0.311348
    65  C   -0.294130
    66  H    0.042106
    67  H    0.086469
    68  H    0.108552
    69  H    0.137501
    70  H    0.095284
    71  H    0.089856
    72  H    0.091790
    73  H    0.132832
    74  H    0.112618
    75  H    0.111329
    76  H    0.135524
    77  H    0.139310
    78  H    0.134364
    79  H    0.085571
    80  H    0.116156
    81  H    0.088986
    82  H    0.095066
    83  H    0.101919
    84  H    0.133917
    85  H    0.117777
    86  H    0.089460
    87  H    0.115328
    88  H    0.076555
    89  H    0.097595
    90  H    0.112985
    91  H    0.117492
    92  H    0.128055
    93  H    0.155991
    94  H    0.129940
    95  H    0.158329
    96  H    0.107372
    97  H    0.139570
    98  H    0.133385
    99  H    0.143115
   100  H    0.120764
   101  H    0.092208
   102  H    0.116843
   103  H    0.120365
   104  H    0.108492
   105  H    0.103844
   106  H    0.062791
   107  H    0.095110
   108  H    0.110351
   109  H    0.093938
   110  H    0.086828
   111  H    0.073160
   112  H    0.110916
   113  H    0.116985
   114  H    0.062645
   115  H    0.019681
   116  H    0.100042
   117  H    0.063250
   118  H    0.100021
   119  H    0.080362
   120  H    0.093394
   121  H    0.077020
   122  H    0.110354
   123  H    0.079768
   124  H    0.104417
   125  H    0.099321
   126  H    0.093877
   127  H    0.065976
   128  H    0.069516
   129  H    0.065771
   130  H    0.092425
   131  H    0.050709
   132  H    0.100235
   133  H    0.110210
   134  H    0.094622
   135  H    0.088712
   136  H    0.110775
   137  H    0.080785
 Sum of Mulliken charges =  -0.00000

 Dipole moment (field-independent basis, Debye):
    X=              2.2845    Y=              4.0318    Z=             -0.6407  Tot=              4.6782
 Quadrupole moment (field-independent basis, Debye-Ang):
   XX=           -341.4624   YY=           -386.9061   ZZ=           -400.6402
   XY=            -12.6883   XZ=             14.0381   YZ=             -4.6506

 Normal termination of Gaussian 16 at Fri Sep 13 10:57:53 2019.
