 Gaussian 16, Revision A.03,
 Gaussian 16:  ES64L-G16RevA.03 25-Dec-2016

 ----------------------------------------------------------------------
 # td=(NStates=1) iop(3/107=0140000000,3/108=0140000000) CAM-B3LYP/6-31
 G(d,p)
 ----------------------------------------------------------------------

 --
 TD
 --
 Symbolic Z-matrix:
 Charge =  0 Multiplicity = 1

                         Standard orientation:
 ---------------------------------------------------------------------
 Center     Atomic      Atomic             Coordinates (Angstroms)
 Number     Number       Type             X           Y           Z
 ---------------------------------------------------------------------
      1         12           0       -7.190107    0.617139    0.142274
      2          6           0       -4.814414   -2.034347    0.570511
      3          6           0       -4.784127    2.789507    1.201765
      4          6           0       -9.390404    3.089853   -0.404227
      5          6           0       -9.593691   -1.730406   -0.848460
      6          7           0       -5.120092    0.399659    0.720015
      7          6           0       -4.308227   -0.695282    0.879063
      8          6           0       -2.940472   -0.366388    1.285928
      9          6           0       -3.093862    1.005535    1.642044
     10          6           0       -4.391204    1.467746    1.271036
     11          6           0       -2.970603    1.249108    3.205865
     12          6           0       -1.893951   -0.599564    0.116288
     13          6           0       -0.467692   -0.435524    0.572472
     14          6           0        0.516211   -0.609372   -0.646213
     15          8           0        0.123190   -0.974594   -1.670927
     16          8           0        1.751797   -0.489089   -0.243228
     17          7           0       -7.167035    2.579220    0.353727
     18          6           0       -6.046666    3.383587    0.789855
     19          6           0       -6.316488    4.841884    0.811973
     20          6           0       -7.608308    4.859468    0.282359
     21          6           0       -8.125570    3.446337    0.085337
     22          6           0       -5.402576    6.002329    1.026779
     23          6           0       -8.458759    6.084514    0.182078
     24          6           0       -8.331327    7.267418    0.802786
     25          7           0       -9.120196    0.718618   -0.561146
     26          6           0       -9.806877    1.808585   -0.685570
     27          6           0      -11.139896    1.467132   -1.188470
     28          6           0      -11.126410    0.157782   -1.357324
     29          6           0       -9.898624   -0.464089   -0.834810
     30          6           0      -12.207449    2.512979   -1.535052
     31          6           0      -12.381078   -0.666830   -1.725221
     32          6           0      -12.228590   -1.154043   -3.191211
     33          7           0       -7.197390   -1.344535   -0.186025
     34          6           0       -8.231491   -2.187903   -0.515671
     35          6           0       -7.819283   -3.586564   -0.562388
     36          6           0       -6.437775   -3.605621   -0.084162
     37          6           0       -6.144963   -2.169800    0.173250
     38          6           0       -8.546563   -4.858182   -1.009043
     39          6           0       -5.329501   -4.439071    0.052815
     40          8           0       -5.158485   -5.625934    0.036975
     41          6           0       -4.181718   -3.346426    0.551419
     42          6           0       -3.575380   -3.643014    1.993041
     43          8           0       -3.955992   -3.080614    3.007845
     44          8           0       -2.814240   -4.718082    1.850019
     45          6           0       -2.269657   -5.286903    3.138175
     46          6           0        2.826232   -0.553903   -1.234253
     47          6           0        4.107427   -0.561241   -0.601761
     48          6           0        5.119428    0.272199   -0.924771
     49          6           0        5.016329    1.233423   -2.048440
     50          6           0        6.371895    0.146410   -0.165692
     51          6           0        7.684980   -0.245690   -0.971124
     52          6           0        8.886793   -0.033471   -0.135700
     53          6           0       10.163125   -0.540651   -0.903111
     54          6           0       10.056437   -1.941240   -1.440039
     55          6           0       11.454028   -0.381174   -0.031886
     56          6           0       12.723208   -0.576997   -0.664337
     57          6           0       14.025931   -0.026108    0.088647
     58          6           0       15.340400   -0.160483   -0.550944
     59          6           0       15.710565   -1.538853   -0.982824
     60          6           0       16.404638    0.435215    0.403687
     61          6           0       17.812698    0.507899   -0.098508
     62          6           0       18.760870    1.160564    0.847017
     63          6           0       20.089636    1.392141    0.257575
     64          6           0       20.319967    2.267203   -1.010626
     65          6           0       21.146749    1.822897    1.363525
     66          1           0       -4.108728    3.773002    1.354246
     67          1           0      -10.245643    3.851355   -0.426375
     68          1           0      -10.522578   -2.501373   -1.044466
     69          1           0       -2.721736   -1.094655    2.120072
     70          1           0       -2.386309    1.546870    1.069722
     71          1           0       -2.103060    0.763465    3.501910
     72          1           0       -3.336327    2.244481    3.467357
     73          1           0       -3.741283    0.660701    3.523244
     74          1           0       -2.011854   -1.430884   -0.424530
     75          1           0       -2.079965    0.132639   -0.495504
     76          1           0       -0.200649    0.513244    1.086704
     77          1           0       -0.228100   -1.170280    1.381920
     78          1           0       -5.523141    6.757127    0.207211
     79          1           0       -5.572183    6.328094    1.941824
     80          1           0       -4.238588    5.826767    0.969576
     81          1           0       -9.431360    5.990542   -0.411218
     82          1           0       -9.079090    7.906571    0.605835
     83          1           0       -7.450014    7.553279    1.523101
     84          1           0      -11.935156    3.460059   -2.191489
     85          1           0      -13.020763    1.981259   -2.067304
     86          1           0      -12.577863    2.972996   -0.525075
     87          1           0      -12.316378   -1.494161   -0.920905
     88          1           0      -13.362405   -0.132576   -1.524775
     89          1           0      -13.039683   -1.949772   -3.507388
     90          1           0      -12.299248   -0.389700   -3.904306
     91          1           0      -11.340250   -1.688717   -3.427487
     92          1           0       -8.856649   -4.700056   -1.965331
     93          1           0       -7.787974   -5.611865   -0.920666
     94          1           0       -9.409869   -4.948697   -0.319085
     95          1           0       -3.263973   -3.646322   -0.008672
     96          1           0       -1.396878   -4.579071    3.365858
     97          1           0       -3.239092   -4.970722    3.945787
     98          1           0       -1.970554   -6.423399    2.924324
     99          1           0        2.597417   -1.422267   -1.958604
    100          1           0        2.629444    0.311153   -2.035996
    101          1           0        4.379205   -1.404812    0.110780
    102          1           0        4.141573    1.362932   -2.422720
    103          1           0        5.485691    2.255945   -1.793743
    104          1           0        5.575193    0.690121   -3.026153
    105          1           0        6.827363    1.036160    0.300208
    106          1           0        6.257556   -0.533917    0.655821
    107          1           0        7.513117   -1.353613   -1.206828
    108          1           0        7.786500    0.430348   -1.838022
    109          1           0        9.173137    1.120745   -0.157971
    110          1           0        8.662836   -0.777377    0.732138
    111          1           0       10.351651    0.030916   -1.789355
    112          1           0        9.220326   -2.533865   -1.853883
    113          1           0       11.067561   -2.051769   -2.051698
    114          1           0       10.375083   -2.754987   -0.637534
    115          1           0       11.472963    0.568220    0.512547
    116          1           0       11.540409   -1.078870    0.832272
    117          1           0       12.875365   -1.491930   -1.302838
    118          1           0       12.761749   -0.043473   -1.723630
    119          1           0       13.659666    1.034770    0.381789
    120          1           0       13.926527   -0.651285    1.042838
    121          1           0       15.435501    0.399027   -1.602038
    122          1           0       15.791003   -2.027782    0.039543
    123          1           0       14.947994   -1.989608   -1.684668
    124          1           0       16.815023   -1.675994   -1.478653
    125          1           0       15.961450    1.418031    0.637748
    126          1           0       16.296626   -0.028117    1.357228
    127          1           0       18.113002   -0.516296   -0.348411
    128          1           0       17.588151    1.116358   -1.091537
    129          1           0       18.229729    2.151013    1.077933
    130          1           0       18.690573    0.707127    1.799706
    131          1           0       20.466694    0.368797    0.053931
    132          1           0       20.025883    3.263749   -0.894611
    133          1           0       21.450614    2.192250   -1.371030
    134          1           0       19.678585    1.870965   -2.007336
    135          1           0       21.166412    1.219034    2.168736
    136          1           0       22.069611    2.107854    0.774915
    137          1           0       21.090545    2.984898    1.595520
 ---------------------------------------------------------------------

 SCF Done:  E(RCAM-B3LYP) =  -2933.45956449     A.U. after   16 cycles

 Excitation energies and oscillator strengths:

 Excited State   1:      Singlet-A      1.8384 eV  674.41 nm  f=0.3403  <S**2>=0.000
     240 -> 243        0.18494
     241 -> 242        0.68043
 This state for optimization and/or second-order correction.
 Total Energy, E(TD-HF/TD-DFT) =  -2933.39200398
 Copying the excited state density for this state as the 1-particle RhoCI density.

 The electronic state is 1-A.
 Alpha  occ. eigenvalues --  -46.79005 -19.22301 -19.22047 -19.16481 -19.16322
 Alpha  occ. eigenvalues --  -19.15276 -14.37810 -14.35669 -14.35537 -14.34310
 Alpha  occ. eigenvalues --  -10.33781 -10.33702 -10.30079 -10.29169 -10.28794
 Alpha  occ. eigenvalues --  -10.26492 -10.25814 -10.25768 -10.25518 -10.25171
 Alpha  occ. eigenvalues --  -10.24205 -10.23945 -10.23753 -10.23618 -10.23604
 Alpha  occ. eigenvalues --  -10.23586 -10.23383 -10.23307 -10.23304 -10.23138
 Alpha  occ. eigenvalues --  -10.23040 -10.23020 -10.22954 -10.22781 -10.22574
 Alpha  occ. eigenvalues --  -10.22565 -10.22560 -10.22548 -10.22519 -10.22506
 Alpha  occ. eigenvalues --  -10.22260 -10.22193 -10.22087 -10.21999 -10.21911
 Alpha  occ. eigenvalues --  -10.21902 -10.21815 -10.21752 -10.21748 -10.21453
 Alpha  occ. eigenvalues --  -10.21435 -10.21423 -10.21194 -10.21054 -10.21000
 Alpha  occ. eigenvalues --  -10.20885 -10.20842 -10.20644 -10.20436 -10.20408
 Alpha  occ. eigenvalues --  -10.20297 -10.20193 -10.20039 -10.19879 -10.19659
 Alpha  occ. eigenvalues --   -3.07798  -1.82725  -1.82256  -1.82234  -1.14936
 Alpha  occ. eigenvalues --   -1.12217  -1.06816  -1.05919  -1.03760  -0.99337
 Alpha  occ. eigenvalues --   -0.98517  -0.97367  -0.96590  -0.87338  -0.86557
 Alpha  occ. eigenvalues --   -0.86474  -0.85723  -0.85418  -0.84397  -0.83824
 Alpha  occ. eigenvalues --   -0.83420  -0.82662  -0.82057  -0.81721  -0.80993
 Alpha  occ. eigenvalues --   -0.80518  -0.79260  -0.78563  -0.77751  -0.77434
 Alpha  occ. eigenvalues --   -0.77003  -0.75991  -0.75649  -0.74728  -0.73706
 Alpha  occ. eigenvalues --   -0.73410  -0.72631  -0.71788  -0.70767  -0.70632
 Alpha  occ. eigenvalues --   -0.70277  -0.70073  -0.69694  -0.69415  -0.67694
 Alpha  occ. eigenvalues --   -0.66996  -0.66236  -0.65301  -0.64707  -0.63392
 Alpha  occ. eigenvalues --   -0.62348  -0.62172  -0.60952  -0.60433  -0.60184
 Alpha  occ. eigenvalues --   -0.59393  -0.59052  -0.58803  -0.58514  -0.57352
 Alpha  occ. eigenvalues --   -0.56920  -0.56750  -0.56183  -0.55940  -0.54569
 Alpha  occ. eigenvalues --   -0.54005  -0.53623  -0.53341  -0.52881  -0.52603
 Alpha  occ. eigenvalues --   -0.51718  -0.51151  -0.51041  -0.50895  -0.50765
 Alpha  occ. eigenvalues --   -0.50585  -0.50296  -0.49666  -0.49520  -0.49265
 Alpha  occ. eigenvalues --   -0.48827  -0.48674  -0.48571  -0.48463  -0.48143
 Alpha  occ. eigenvalues --   -0.47878  -0.47641  -0.47387  -0.47324  -0.46920
 Alpha  occ. eigenvalues --   -0.46651  -0.46358  -0.46287  -0.46198  -0.45929
 Alpha  occ. eigenvalues --   -0.45688  -0.45412  -0.45240  -0.44846  -0.44553
 Alpha  occ. eigenvalues --   -0.44437  -0.44227  -0.44139  -0.44045  -0.43278
 Alpha  occ. eigenvalues --   -0.43213  -0.42957  -0.42838  -0.42756  -0.42499
 Alpha  occ. eigenvalues --   -0.42332  -0.42093  -0.41921  -0.41754  -0.41506
 Alpha  occ. eigenvalues --   -0.41325  -0.41163  -0.41127  -0.40938  -0.40834
 Alpha  occ. eigenvalues --   -0.40784  -0.40640  -0.40357  -0.40290  -0.40017
 Alpha  occ. eigenvalues --   -0.39751  -0.39559  -0.39383  -0.39306  -0.38731
 Alpha  occ. eigenvalues --   -0.38687  -0.38627  -0.38447  -0.38303  -0.37755
 Alpha  occ. eigenvalues --   -0.37327  -0.37287  -0.37131  -0.36984  -0.36917
 Alpha  occ. eigenvalues --   -0.36770  -0.36701  -0.36677  -0.36589  -0.36125
 Alpha  occ. eigenvalues --   -0.35718  -0.35517  -0.35407  -0.35121  -0.34917
 Alpha  occ. eigenvalues --   -0.34049  -0.33692  -0.33666  -0.33561  -0.33554
 Alpha  occ. eigenvalues --   -0.32983  -0.32864  -0.32591  -0.32567  -0.32492
 Alpha  occ. eigenvalues --   -0.32473  -0.32049  -0.31382  -0.30474  -0.30252
 Alpha  occ. eigenvalues --   -0.29878  -0.29630  -0.29289  -0.27544  -0.26682
 Alpha  occ. eigenvalues --   -0.26206  -0.25835  -0.25603  -0.25356  -0.21540
 Alpha  occ. eigenvalues --   -0.18741
 Alpha virt. eigenvalues --   -0.07146  -0.02748  -0.00109   0.02405   0.02650
 Alpha virt. eigenvalues --    0.04405   0.05168   0.05460   0.05840   0.05954
 Alpha virt. eigenvalues --    0.06847   0.08736   0.09019   0.09825   0.09831

 Mulliken charges:
               1
     1  Mg   0.814479
     2  C    0.118263
     3  C   -0.193721
     4  C   -0.192530
     5  C   -0.186921
     6  N   -0.612121
     7  C    0.293236
     8  C   -0.157236
     9  C   -0.159495
    10  C    0.335355
    11  C   -0.312459
    12  C   -0.147714
    13  C   -0.296088
    14  C    0.598819
    15  O   -0.434467
    16  O   -0.449551
    17  N   -0.707184
    18  C    0.239138
    19  C    0.046552
    20  C   -0.015776
    21  C    0.361518
    22  C   -0.380203
    23  C   -0.091832
    24  C   -0.223324
    25  N   -0.738727
    26  C    0.378811
    27  C    0.037873
    28  C   -0.001802
    29  C    0.334321
    30  C   -0.373724
    31  C   -0.239977
    32  C   -0.315134
    33  N   -0.708405
    34  C    0.254995
    35  C   -0.009432
    36  C    0.021054
    37  C    0.264826
    38  C   -0.362141
    39  C    0.344986
    40  O   -0.454227
    41  C   -0.370318
    42  C    0.613771
    43  O   -0.481978
    44  O   -0.439512
    45  C   -0.102727
    46  C   -0.015234
    47  C   -0.127977
    48  C    0.172968
    49  C   -0.342996
    50  C   -0.250503
    51  C   -0.174909
    52  C   -0.168039
    53  C   -0.057849
    54  C   -0.320596
    55  C   -0.159535
    56  C   -0.195034
    57  C   -0.162229
    58  C   -0.048324
    59  C   -0.288032
    60  C   -0.180848
    61  C   -0.160934
    62  C   -0.157864
    63  C   -0.032993
    64  C   -0.313541
    65  C   -0.311722
    66  H    0.071787
    67  H    0.083035
    68  H    0.102422
    69  H    0.114680
    70  H    0.107755
    71  H    0.113761
    72  H    0.113740
    73  H    0.135720
    74  H    0.127605
    75  H    0.117650
    76  H    0.117694
    77  H    0.120614
    78  H    0.139756
    79  H    0.149059
    80  H    0.104198
    81  H    0.080142
    82  H    0.099491
    83  H    0.089960
    84  H    0.111168
    85  H    0.112617
    86  H    0.110836
    87  H    0.094470
    88  H    0.101293
    89  H    0.077820
    90  H    0.122901
    91  H    0.121194
    92  H    0.133936
    93  H    0.148995
    94  H    0.122339
    95  H    0.139375
    96  H    0.132200
    97  H    0.136834
    98  H    0.140416
    99  H    0.127452
   100  H    0.103756
   101  H    0.090073
   102  H    0.119035
   103  H    0.107196
   104  H    0.096611
   105  H    0.101636
   106  H    0.097884
   107  H    0.092852
   108  H    0.093882
   109  H    0.091750
   110  H    0.093448
   111  H    0.100383
   112  H    0.116703
   113  H    0.085762
   114  H    0.078212
   115  H    0.086242
   116  H    0.091239
   117  H    0.092198
   118  H    0.049581
   119  H    0.091018
   120  H    0.083891
   121  H    0.062294
   122  H    0.088416
   123  H    0.100148
   124  H    0.087073
   125  H    0.086052
   126  H    0.083990
   127  H    0.090520
   128  H    0.079531
   129  H    0.075243
   130  H    0.098985
   131  H    0.088683
   132  H    0.121354
   133  H    0.096284
   134  H    0.074294
   135  H    0.111167
   136  H    0.092290
   137  H    0.074329
 Sum of Mulliken charges =  -0.00000

 Dipole moment (field-independent basis, Debye):
    X=              3.8105    Y=              4.8542    Z=              0.6245  Tot=              6.2027
 Quadrupole moment (field-independent basis, Debye-Ang):
   XX=           -354.2909   YY=           -392.8172   ZZ=           -397.6838
   XY=            -24.8011   XZ=              7.9444   YZ=             -4.1235

 Normal termination of Gaussian 16 at Tue Sep 10 11:57:09 2019.
