 Gaussian 09, Revision D.01,
 Gaussian 09:  ES64L-G09RevD.01 24-Apr-2013

 -------------------------------------
 # td=(NStates=1) CAM-B3LYP/6-31G(d,p)
 -------------------------------------

 --
 TD
 --
 Symbolic Z-matrix:
 Charge =  0 Multiplicity = 1

                         Standard orientation:
 ---------------------------------------------------------------------
 Center     Atomic      Atomic             Coordinates (Angstroms)
 Number     Number       Type             X           Y           Z
 ---------------------------------------------------------------------
      1         12           0       -7.077562    0.597204    0.011407
      2          6           0       -4.807332   -1.936887    0.713025
      3          6           0       -4.813987    2.859103    1.105497
      4          6           0       -9.362780    3.151274   -0.383985
      5          6           0       -9.501232   -1.763068   -0.991545
      6          7           0       -5.103679    0.474701    0.687965
      7          6           0       -4.379749   -0.694783    0.999698
      8          6           0       -2.933275   -0.379502    1.302319
      9          6           0       -3.004146    1.071462    1.780074
     10          6           0       -4.398819    1.491481    1.124489
     11          6           0       -2.983076    1.243936    3.287491
     12          6           0       -1.976985   -0.649194    0.113984
     13          6           0       -0.534850   -0.302061    0.474019
     14          6           0        0.485375   -0.549583   -0.643477
     15          8           0        0.226295   -0.931958   -1.750146
     16          8           0        1.716684   -0.252093   -0.237838
     17          7           0       -7.062069    2.571294    0.252692
     18          6           0       -6.032637    3.356198    0.665621
     19          6           0       -6.400582    4.773803    0.773368
     20          6           0       -7.661753    4.776961    0.361484
     21          6           0       -8.085685    3.460744    0.004762
     22          6           0       -5.412979    5.800530    1.305219
     23          6           0       -8.552472    6.011150    0.064139
     24          6           0       -8.643719    7.119278    0.986261
     25          7           0       -9.113999    0.634381   -0.465333
     26          6           0       -9.846957    1.714238   -0.704328
     27          6           0      -11.212192    1.488395   -1.176096
     28          6           0      -11.313194    0.150327   -1.251538
     29          6           0       -9.847433   -0.434563   -0.873468
     30          6           0      -12.329502    2.383992   -1.470594
     31          6           0      -12.359037   -0.755265   -1.781002
     32          6           0      -12.104058   -1.107144   -3.322626
     33          7           0       -7.232868   -1.421777   -0.224373
     34          6           0       -8.155445   -2.238214   -0.626708
     35          6           0       -7.753718   -3.692176   -0.595892
     36          6           0       -6.468342   -3.626854   -0.045175
     37          6           0       -6.177096   -2.255115    0.157966
     38          6           0       -8.646555   -4.849585   -0.925359
     39          6           0       -5.244918   -4.341613    0.212466
     40          8           0       -5.081615   -5.584623    0.197764
     41          6           0       -4.116032   -3.286130    0.653269
     42          6           0       -3.503188   -3.664305    1.977988
     43          8           0       -3.864717   -3.173513    3.001721
     44          8           0       -2.728729   -4.714315    1.847844
     45          6           0       -2.249342   -5.194632    3.125512
     46          6           0        2.746750   -0.611477   -1.205940
     47          6           0        3.999041   -0.377834   -0.593743
     48          6           0        5.068120    0.361662   -1.110445
     49          6           0        5.070810    1.155514   -2.325133
     50          6           0        6.417795    0.548285   -0.321205
     51          6           0        7.586985   -0.012583   -1.048962
     52          6           0        8.890467   -0.013181   -0.111009
     53          6           0       10.144092   -0.514622   -0.864168
     54          6           0       10.059420   -2.069118   -1.138285
     55          6           0       11.422849   -0.312904   -0.079226
     56          6           0       12.705690   -0.493549   -0.764444
     57          6           0       13.913177   -0.158163    0.212499
     58          6           0       15.386997   -0.143006   -0.494102
     59          6           0       15.782446   -1.572120   -1.008329
     60          6           0       16.421846    0.288626    0.443731
     61          6           0       17.894122    0.398813   -0.283196
     62          6           0       18.778801    1.212455    0.709846
     63          6           0       20.362437    1.269051    0.249525
     64          6           0       20.420003    2.249751   -1.003393
     65          6           0       21.117638    1.829077    1.340614
     66          1           0       -4.263895    3.703430    1.461731
     67          1           0      -10.066024    4.023906   -0.402430
     68          1           0      -10.326980   -2.354060   -1.352223
     69          1           0       -2.774430   -0.726287    2.123441
     70          1           0       -2.265857    1.745867    1.382839
     71          1           0       -2.100052    0.847670    3.755000
     72          1           0       -3.024050    2.405871    3.600210
     73          1           0       -3.760633    0.614817    3.774184
     74          1           0       -2.004921   -1.537624   -0.327052
     75          1           0       -2.226083   -0.071151   -0.822903
     76          1           0       -0.479076    0.759050    0.937915
     77          1           0       -0.182434   -1.085097    1.172661
     78          1           0       -5.736747    6.894706    1.030674
     79          1           0       -5.753278    5.811993    2.540770
     80          1           0       -4.215007    5.521850    0.982515
     81          1           0       -9.087835    6.049231   -0.843035
     82          1           0       -9.407234    7.950241    0.872661
     83          1           0       -8.082978    7.229228    1.846328
     84          1           0      -12.071744    3.132935   -2.282629
     85          1           0      -13.333351    1.950944   -1.700691
     86          1           0      -12.633021    2.911193   -0.501331
     87          1           0      -12.370920   -1.690055   -1.110303
     88          1           0      -13.164768   -0.271477   -1.732933
     89          1           0      -12.834089   -1.965695   -3.738631
     90          1           0      -12.351292   -0.317859   -4.171553
     91          1           0      -11.079442   -1.598819   -3.496855
     92          1           0       -8.769945   -5.011225   -2.012575
     93          1           0       -8.213038   -5.867840   -0.537399
     94          1           0       -9.854284   -4.751373   -0.587139
     95          1           0       -3.348495   -3.463112    0.016437
     96          1           0       -1.561118   -4.472608    3.543724
     97          1           0       -3.092687   -5.430521    3.797753
     98          1           0       -1.730709   -6.162150    2.934021
     99          1           0        2.517427   -1.667110   -1.625555
    100          1           0        2.516106   -0.009241   -2.087190
    101          1           0        3.927206   -1.049566    0.433900
    102          1           0        4.054865    1.469523   -2.793197
    103          1           0        5.676697    2.187952   -2.002343
    104          1           0        5.568170    0.610780   -3.114435
    105          1           0        6.709533    1.504575   -0.077762
    106          1           0        6.401792    0.227903    0.618820
    107          1           0        7.639436   -1.203302   -1.207766
    108          1           0        7.761211    0.462220   -1.920390
    109          1           0        9.324149    0.986594   -0.012041
    110          1           0        8.489619   -0.642954    0.831910
    111          1           0       10.282312    0.265579   -1.784065
    112          1           0        9.207686   -2.284944   -1.945944
    113          1           0       10.996406   -2.381324   -1.607371
    114          1           0        9.968531   -2.680491   -0.390526
    115          1           0       11.210531    0.830729    0.365767
    116          1           0       11.279489   -1.040350    0.888634
    117          1           0       12.711524   -1.655527   -1.091121
    118          1           0       12.785150    0.177026   -1.631203
    119          1           0       13.808244    1.005959    0.461622
    120          1           0       14.033323   -0.916750    0.964549
    121          1           0       15.053574    0.570195   -1.214271
    122          1           0       15.795405   -2.312917   -0.242015
    123          1           0       15.069443   -1.893087   -1.621141
    124          1           0       16.883927   -1.457537   -1.239980
    125          1           0       16.259685    1.327807    1.004078
    126          1           0       16.627445   -0.325315    1.292327
    127          1           0       18.051332   -0.510539   -0.567969
    128          1           0       17.662411    0.885888   -1.226750
    129          1           0       18.347361    2.303771    0.742902
    130          1           0       18.635640    0.822427    1.831408
    131          1           0       20.692560    0.052227    0.311485
    132          1           0       19.822881    3.099545   -0.710896
    133          1           0       21.412363    2.229858   -1.346993
    134          1           0       19.917861    1.842017   -1.751193
    135          1           0       21.251553    0.907008    2.075972
    136          1           0       22.183801    2.043487    1.005742
    137          1           0       20.834704    2.716023    1.852557
 ---------------------------------------------------------------------

 SCF Done:  E(RCAM-B3LYP) =  -2932.54226047     A.U. after   17 cycles

 Excitation energies and oscillator strengths:

 Excited State   1:      Singlet-A      2.2003 eV  563.48 nm  f=0.2626  <S**2>=0.000
     240 -> 242       -0.16173
     240 -> 243       -0.17890
     241 -> 242        0.64808
     241 -> 243       -0.12477
 This state for optimization and/or second-order correction.
 Total Energy, E(TD-HF/TD-KS) =  -2932.46140038
 Copying the excited state density for this state as the 1-particle RhoCI density.

 The electronic state is 1-A.
 Alpha  occ. eigenvalues --  -46.84588 -19.26279 -19.25911 -19.20523 -19.19562
 Alpha  occ. eigenvalues --  -19.18730 -14.41795 -14.40654 -14.39424 -14.39026
 Alpha  occ. eigenvalues --  -10.38600 -10.37611 -10.34172 -10.31690 -10.31659
 Alpha  occ. eigenvalues --  -10.31308 -10.31257 -10.31046 -10.29898 -10.29427
 Alpha  occ. eigenvalues --  -10.29377 -10.28927 -10.28911 -10.28882 -10.28324
 Alpha  occ. eigenvalues --  -10.28166 -10.28148 -10.28008 -10.27836 -10.27740
 Alpha  occ. eigenvalues --  -10.27668 -10.27565 -10.27564 -10.27535 -10.27490
 Alpha  occ. eigenvalues --  -10.27484 -10.27430 -10.27357 -10.27345 -10.27299
 Alpha  occ. eigenvalues --  -10.27095 -10.27029 -10.26951 -10.26865 -10.26856
 Alpha  occ. eigenvalues --  -10.26855 -10.26805 -10.26665 -10.26547 -10.26537
 Alpha  occ. eigenvalues --  -10.26433 -10.26194 -10.25764 -10.25402 -10.25395
 Alpha  occ. eigenvalues --  -10.25102 -10.25040 -10.24773 -10.24436 -10.24396
 Alpha  occ. eigenvalues --  -10.24347 -10.24162 -10.24019 -10.23625 -10.23436
 Alpha  occ. eigenvalues --   -3.13678  -1.88378  -1.87928  -1.87859  -1.19232
 Alpha  occ. eigenvalues --   -1.18801  -1.09498  -1.09415  -1.07476  -1.04926
 Alpha  occ. eigenvalues --   -1.04150  -1.03873  -1.02940  -0.91713  -0.91422
 Alpha  occ. eigenvalues --   -0.90638  -0.90293  -0.89804  -0.89346  -0.88790
 Alpha  occ. eigenvalues --   -0.88154  -0.87843  -0.86892  -0.86558  -0.85526
 Alpha  occ. eigenvalues --   -0.85193  -0.83936  -0.83367  -0.83151  -0.81855
 Alpha  occ. eigenvalues --   -0.81716  -0.80789  -0.80313  -0.80074  -0.77557
 Alpha  occ. eigenvalues --   -0.76955  -0.76933  -0.76610  -0.76352  -0.76196
 Alpha  occ. eigenvalues --   -0.75396  -0.73868  -0.73610  -0.73049  -0.71586
 Alpha  occ. eigenvalues --   -0.70828  -0.70548  -0.69952  -0.69078  -0.68334
 Alpha  occ. eigenvalues --   -0.67402  -0.67324  -0.66180  -0.64576  -0.64132
 Alpha  occ. eigenvalues --   -0.63519  -0.63109  -0.62881  -0.62151  -0.61635
 Alpha  occ. eigenvalues --   -0.61315  -0.60690  -0.60440  -0.60012  -0.59320
 Alpha  occ. eigenvalues --   -0.58414  -0.57937  -0.57267  -0.56873  -0.56837
 Alpha  occ. eigenvalues --   -0.56137  -0.55631  -0.55387  -0.54794  -0.54420
 Alpha  occ. eigenvalues --   -0.54298  -0.54050  -0.53603  -0.53493  -0.53214
 Alpha  occ. eigenvalues --   -0.53021  -0.52868  -0.52450  -0.51882  -0.51124
 Alpha  occ. eigenvalues --   -0.50997  -0.50972  -0.50581  -0.50542  -0.50254
 Alpha  occ. eigenvalues --   -0.50019  -0.49932  -0.49709  -0.49325  -0.49261
 Alpha  occ. eigenvalues --   -0.49124  -0.48916  -0.48633  -0.48338  -0.47917
 Alpha  occ. eigenvalues --   -0.47866  -0.47669  -0.47376  -0.47341  -0.47065
 Alpha  occ. eigenvalues --   -0.46850  -0.46645  -0.46512  -0.46351  -0.45918
 Alpha  occ. eigenvalues --   -0.45604  -0.45413  -0.45373  -0.45225  -0.45009
 Alpha  occ. eigenvalues --   -0.44722  -0.44606  -0.44411  -0.44115  -0.43901
 Alpha  occ. eigenvalues --   -0.43807  -0.43609  -0.43364  -0.43119  -0.42991
 Alpha  occ. eigenvalues --   -0.42904  -0.42770  -0.42625  -0.42380  -0.42260
 Alpha  occ. eigenvalues --   -0.42185  -0.41914  -0.41796  -0.41635  -0.41465
 Alpha  occ. eigenvalues --   -0.41414  -0.41070  -0.40962  -0.40841  -0.40515
 Alpha  occ. eigenvalues --   -0.40425  -0.40102  -0.39858  -0.39692  -0.39202
 Alpha  occ. eigenvalues --   -0.38824  -0.38662  -0.38457  -0.38102  -0.37789
 Alpha  occ. eigenvalues --   -0.37459  -0.37033  -0.36989  -0.36451  -0.36377
 Alpha  occ. eigenvalues --   -0.36356  -0.36073  -0.35926  -0.35570  -0.35262
 Alpha  occ. eigenvalues --   -0.34249  -0.33988  -0.33850  -0.33615  -0.33361
 Alpha  occ. eigenvalues --   -0.32670  -0.31787  -0.31132  -0.30605  -0.29487
 Alpha  occ. eigenvalues --   -0.29086  -0.28839  -0.28569  -0.28373  -0.23018
 Alpha  occ. eigenvalues --   -0.20588
 Alpha virt. eigenvalues --   -0.05564  -0.01969   0.02006   0.03197   0.04721
 Alpha virt. eigenvalues --    0.05695   0.06374   0.07096   0.07657   0.07996
 Alpha virt. eigenvalues --    0.08556   0.09724   0.11078   0.11268   0.11593

 Mulliken charges:
               1
     1  Mg   0.826754
     2  C    0.101977
     3  C   -0.220283
     4  C   -0.217201
     5  C   -0.152213
     6  N   -0.618822
     7  C    0.220470
     8  C   -0.055929
     9  C   -0.165054
    10  C    0.370753
    11  C   -0.318852
    12  C   -0.162429
    13  C   -0.266281
    14  C    0.597149
    15  O   -0.475371
    16  O   -0.470512
    17  N   -0.733179
    18  C    0.315083
    19  C    0.089493
    20  C   -0.032513
    21  C    0.357164
    22  C   -0.364768
    23  C   -0.107551
    24  C   -0.241632
    25  N   -0.643366
    26  C    0.268743
    27  C    0.080470
    28  C   -0.004179
    29  C    0.271326
    30  C   -0.390921
    31  C   -0.206402
    32  C   -0.313691
    33  N   -0.668825
    34  C    0.245164
    35  C    0.025558
    36  C    0.053081
    37  C    0.180795
    38  C   -0.381066
    39  C    0.344856
    40  O   -0.489220
    41  C   -0.318961
    42  C    0.619304
    43  O   -0.472946
    44  O   -0.436953
    45  C   -0.093505
    46  C    0.003669
    47  C   -0.118996
    48  C    0.107417
    49  C   -0.363381
    50  C   -0.211520
    51  C   -0.169917
    52  C   -0.167692
    53  C   -0.060854
    54  C   -0.317083
    55  C   -0.133517
    56  C   -0.168722
    57  C   -0.180892
    58  C   -0.066974
    59  C   -0.314150
    60  C   -0.181164
    61  C   -0.183969
    62  C   -0.178238
    63  C   -0.065112
    64  C   -0.310760
    65  C   -0.275740
    66  H    0.055660
    67  H    0.095069
    68  H    0.095067
    69  H    0.091687
    70  H    0.103120
    71  H    0.119757
    72  H    0.097535
    73  H    0.128111
    74  H    0.126941
    75  H    0.113013
    76  H    0.125669
    77  H    0.131706
    78  H    0.124181
    79  H    0.110282
    80  H    0.118452
    81  H    0.116570
    82  H    0.106370
    83  H    0.109792
    84  H    0.119629
    85  H    0.121218
    86  H    0.117050
    87  H    0.111883
    88  H    0.103368
    89  H    0.083142
    90  H    0.105586
    91  H    0.115386
    92  H    0.124164
    93  H    0.134754
    94  H    0.085481
    95  H    0.153723
    96  H    0.127065
    97  H    0.143069
    98  H    0.123781
    99  H    0.127197
   100  H    0.117857
   101  H    0.087231
   102  H    0.113047
   103  H    0.097092
   104  H    0.140626
   105  H    0.109411
   106  H    0.101113
   107  H    0.081493
   108  H    0.101944
   109  H    0.084680
   110  H    0.083889
   111  H    0.064822
   112  H    0.084087
   113  H    0.095670
   114  H    0.122615
   115  H    0.046980
   116  H    0.066825
   117  H    0.080309
   118  H    0.094463
   119  H    0.081069
   120  H    0.097945
   121  H    0.088697
   122  H    0.103686
   123  H    0.110231
   124  H    0.094484
   125  H    0.062486
   126  H    0.099096
   127  H    0.110848
   128  H    0.096691
   129  H    0.080737
   130  H    0.074219
   131  H    0.065360
   132  H    0.112589
   133  H    0.110681
   134  H    0.117469
   135  H    0.077034
   136  H    0.082497
   137  H    0.106630
 Sum of Mulliken charges =   0.00000

 Dipole moment (field-independent basis, Debye):
    X=              1.4110    Y=              6.5829    Z=             -0.0530  Tot=              6.7326
 Quadrupole moment (field-independent basis, Debye-Ang):
   XX=           -330.5371   YY=           -394.0262   ZZ=           -395.5362
   XY=            -43.0702   XZ=              9.4661   YZ=             -2.7770

 Normal termination of Gaussian 09 at Tue Jul  2 19:15:16 2019.
