 Gaussian 16, Revision A.03,
 Gaussian 16:  ES64L-G16RevA.03 25-Dec-2016

 ----------------------------------------------------------------------
 # td=(NStates=1) iop(3/107=0140000000,3/108=0140000000) CAM-B3LYP/6-31
 G(d,p)
 ----------------------------------------------------------------------

 --
 TD
 --
 Symbolic Z-matrix:
 Charge =  0 Multiplicity = 1

                         Standard orientation:
 ---------------------------------------------------------------------
 Center     Atomic      Atomic             Coordinates (Angstroms)
 Number     Number       Type             X           Y           Z
 ---------------------------------------------------------------------
      1         12           0       -7.179607    0.587739    0.029772
      2          6           0       -4.943651   -2.053783    0.537002
      3          6           0       -4.690367    2.813418    1.299151
      4          6           0       -9.295501    3.142413   -0.425310
      5          6           0       -9.576845   -1.660390   -0.977964
      6          7           0       -5.164334    0.321290    0.718942
      7          6           0       -4.421358   -0.765007    0.772717
      8          6           0       -2.978994   -0.548968    1.166599
      9          6           0       -3.095978    0.922499    1.716283
     10          6           0       -4.459672    1.434393    1.178253
     11          6           0       -3.200790    0.905332    3.298670
     12          6           0       -1.980171   -0.661584    0.017334
     13          6           0       -0.526777   -0.505005    0.522958
     14          6           0        0.550335   -0.700984   -0.579351
     15          8           0        0.356140   -0.895266   -1.777520
     16          8           0        1.796146   -0.484815   -0.032514
     17          7           0       -6.997294    2.654162    0.415142
     18          6           0       -5.996350    3.373662    0.768611
     19          6           0       -6.399630    4.811591    0.952955
     20          6           0       -7.732456    4.896897    0.501025
     21          6           0       -8.048834    3.499111    0.136050
     22          6           0       -5.456330    5.880644    1.435167
     23          6           0       -8.479580    6.145489    0.174901
     24          6           0       -8.311481    7.321509    0.843779
     25          7           0       -9.006962    0.761568   -0.580253
     26          6           0       -9.798206    1.891158   -0.693707
     27          6           0      -11.138616    1.665110   -1.197206
     28          6           0      -11.181869    0.276506   -1.299231
     29          6           0       -9.917356   -0.215879   -0.878858
     30          6           0      -12.214128    2.681218   -1.443538
     31          6           0      -12.354383   -0.557103   -1.756773
     32          6           0      -12.227030   -0.853904   -3.330242
     33          7           0       -7.266777   -1.404296   -0.206723
     34          6           0       -8.328307   -2.197367   -0.582463
     35          6           0       -7.908463   -3.604593   -0.609436
     36          6           0       -6.571369   -3.569781   -0.212595
     37          6           0       -6.285813   -2.274924    0.046563
     38          6           0       -8.713958   -4.836617   -1.004930
     39          6           0       -5.456584   -4.424952    0.112284
     40          8           0       -5.220564   -5.626962   -0.016336
     41          6           0       -4.337315   -3.416522    0.609389
     42          6           0       -3.599982   -3.929248    1.868074
     43          8           0       -3.730802   -3.261375    2.955955
     44          8           0       -2.868612   -4.924491    1.758822
     45          6           0       -2.274885   -5.399674    3.043386
     46          6           0        2.802940   -0.786242   -1.144116
     47          6           0        4.125641   -0.538859   -0.513437
     48          6           0        4.985781    0.362163   -0.829725
     49          6           0        4.979892    1.151687   -2.175964
     50          6           0        6.387218    0.355706   -0.161386
     51          6           0        7.624692   -0.160871   -0.969834
     52          6           0        8.891979   -0.013341   -0.057372
     53          6           0       10.204405   -0.448961   -0.802321
     54          6           0       10.101857   -1.860080   -1.345224
     55          6           0       11.427103   -0.247637   -0.009214
     56          6           0       12.844128   -0.397707   -0.694651
     57          6           0       14.000118    0.022543    0.201860
     58          6           0       15.351132   -0.110905   -0.507146
     59          6           0       15.674689   -1.592870   -0.779357
     60          6           0       16.519159    0.325210    0.454565
     61          6           0       17.887580    0.487807   -0.294423
     62          6           0       18.881880    1.320345    0.606567
     63          6           0       20.307728    1.246543    0.196734
     64          6           0       20.530583    2.170066   -1.088722
     65          6           0       21.196449    1.817344    1.231443
     66          1           0       -4.083797    3.628286    1.550472
     67          1           0      -10.119155    3.921232   -0.581070
     68          1           0      -10.182411   -2.265154   -1.511145
     69          1           0       -2.799588   -1.208687    1.964079
     70          1           0       -2.302998    1.425242    1.518097
     71          1           0       -2.223547    0.450316    3.564891
     72          1           0       -3.444746    1.809110    3.597632
     73          1           0       -4.097615    0.199561    3.743271
     74          1           0       -2.119011   -1.801395   -0.190627
     75          1           0       -2.114463    0.068120   -0.831666
     76          1           0       -0.394280    0.483028    0.864718
     77          1           0       -0.375282   -1.174520    1.408728
     78          1           0       -5.718220    6.874377    0.899283
     79          1           0       -5.616545    6.073509    2.366675
     80          1           0       -4.331417    5.571888    1.207546
     81          1           0       -9.178284    6.055961   -0.685754
     82          1           0       -8.928327    8.204611    0.534549
     83          1           0       -7.518247    7.180557    1.672342
     84          1           0      -11.879052    3.544847   -2.060480
     85          1           0      -12.990847    2.264802   -1.985212
     86          1           0      -12.695999    2.954143   -0.408467
     87          1           0      -12.332617   -1.533380   -1.130250
     88          1           0      -13.087888    0.105312   -1.602890
     89          1           0      -13.178569   -1.337978   -3.736799
     90          1           0      -12.119305    0.058347   -3.790508
     91          1           0      -11.312663   -1.474073   -3.661611
     92          1           0       -9.160270   -4.773840   -2.064998
     93          1           0       -7.889408   -5.626477   -0.884346
     94          1           0       -9.633640   -5.038722   -0.292729
     95          1           0       -3.449426   -3.543914   -0.285014
     96          1           0       -1.751887   -4.594404    3.661799
     97          1           0       -3.165309   -5.798530    3.635957
     98          1           0       -1.660740   -6.301259    2.718837
     99          1           0        2.813206   -1.889524   -1.398914
    100          1           0        2.545535   -0.143474   -2.239668
    101          1           0        4.450835   -0.876647    0.480776
    102          1           0        4.032959    1.171184   -2.816074
    103          1           0        5.348219    2.267335   -1.960596
    104          1           0        5.803412    0.728527   -2.967021
    105          1           0        6.549782    1.426437    0.100202
    106          1           0        6.118607   -0.204534    0.812744
    107          1           0        7.433276   -1.098677   -1.268060
    108          1           0        7.755503    0.522718   -1.940572
    109          1           0        9.048531    1.144908    0.070211
    110          1           0        8.814895   -0.473788    0.886786
    111          1           0       10.168707    0.244427   -1.658503
    112          1           0        9.215348   -2.077735   -1.958389
    113          1           0       11.009803   -2.138518   -2.079801
    114          1           0        9.936558   -2.730569   -0.446530
    115          1           0       11.455380    0.818777    0.364979
    116          1           0       11.488037   -0.993551    0.754129
    117          1           0       12.931585   -1.416911   -1.029175
    118          1           0       12.833165    0.229966   -1.581795
    119          1           0       14.022325    1.093299    0.574606
    120          1           0       14.036226   -0.713290    1.127022
    121          1           0       15.288671    0.499017   -1.243743
    122          1           0       15.875754   -2.064798    0.171416
    123          1           0       15.075289   -1.906007   -1.423452
    124          1           0       16.697271   -1.637570   -1.280617
    125          1           0       16.087171    1.363980    0.961797
    126          1           0       16.702295   -0.201719    1.332430
    127          1           0       18.308199   -0.436437   -0.758726
    128          1           0       17.785741    0.962553   -1.398768
    129          1           0       18.306472    2.348975    0.751485
    130          1           0       18.840763    0.902925    1.719663
    131          1           0       20.803200    0.311326   -0.137200
    132          1           0       20.264564    3.192300   -0.689372
    133          1           0       21.656125    2.285259   -1.265051
    134          1           0       20.149571    1.849819   -2.082214
    135          1           0       21.382577    1.037706    2.125246
    136          1           0       22.139459    1.909408    0.824774
    137          1           0       20.991347    2.933685    1.499454
 ---------------------------------------------------------------------

 SCF Done:  E(RCAM-B3LYP) =  -2933.50906874     A.U. after   16 cycles

 Excitation energies and oscillator strengths:

 Excited State   1:      Singlet-A      2.0247 eV  612.35 nm  f=0.2320  <S**2>=0.000
     240 -> 243       -0.25068
     241 -> 242        0.65605
 This state for optimization and/or second-order correction.
 Total Energy, E(TD-HF/TD-DFT) =  -2933.43466159
 Copying the excited state density for this state as the 1-particle RhoCI density.

 The electronic state is 1-A.
 Alpha  occ. eigenvalues --  -46.79737 -19.24156 -19.22396 -19.16982 -19.16183
 Alpha  occ. eigenvalues --  -19.14117 -14.37271 -14.35657 -14.35332 -14.34767
 Alpha  occ. eigenvalues --  -10.34715 -10.34099 -10.30555 -10.29432 -10.29429
 Alpha  occ. eigenvalues --  -10.26480 -10.25741 -10.25158 -10.25015 -10.25001
 Alpha  occ. eigenvalues --  -10.24819 -10.24817 -10.24352 -10.23953 -10.23868
 Alpha  occ. eigenvalues --  -10.23616 -10.23568 -10.23361 -10.23182 -10.22969
 Alpha  occ. eigenvalues --  -10.22896 -10.22831 -10.22819 -10.22683 -10.22670
 Alpha  occ. eigenvalues --  -10.22539 -10.22511 -10.22464 -10.22370 -10.22355
 Alpha  occ. eigenvalues --  -10.22354 -10.22311 -10.22211 -10.22047 -10.22035
 Alpha  occ. eigenvalues --  -10.21953 -10.21927 -10.21763 -10.21753 -10.21717
 Alpha  occ. eigenvalues --  -10.21499 -10.21484 -10.21372 -10.21327 -10.21240
 Alpha  occ. eigenvalues --  -10.20809 -10.20793 -10.20620 -10.20606 -10.20593
 Alpha  occ. eigenvalues --  -10.20488 -10.20434 -10.20286 -10.19723 -10.18369
 Alpha  occ. eigenvalues --   -3.08479  -1.83406  -1.82952  -1.82904  -1.16355
 Alpha  occ. eigenvalues --   -1.11311  -1.05234  -1.03022  -1.00122  -0.99867
 Alpha  occ. eigenvalues --   -0.99507  -0.98390  -0.97874  -0.87106  -0.85920
 Alpha  occ. eigenvalues --   -0.85323  -0.84504  -0.84324  -0.84022  -0.83661
 Alpha  occ. eigenvalues --   -0.83655  -0.82867  -0.82242  -0.81276  -0.80066
 Alpha  occ. eigenvalues --   -0.79508  -0.78672  -0.78404  -0.77722  -0.77498
 Alpha  occ. eigenvalues --   -0.76781  -0.75655  -0.75257  -0.74097  -0.73286
 Alpha  occ. eigenvalues --   -0.72890  -0.72512  -0.71236  -0.70644  -0.70203
 Alpha  occ. eigenvalues --   -0.69946  -0.69567  -0.69168  -0.68209  -0.67566
 Alpha  occ. eigenvalues --   -0.66765  -0.65814  -0.65410  -0.64471  -0.63878
 Alpha  occ. eigenvalues --   -0.62432  -0.62170  -0.61170  -0.60872  -0.60360
 Alpha  occ. eigenvalues --   -0.59650  -0.59409  -0.58462  -0.58147  -0.57917
 Alpha  occ. eigenvalues --   -0.57719  -0.56571  -0.55819  -0.55292  -0.54985
 Alpha  occ. eigenvalues --   -0.54161  -0.53667  -0.53457  -0.52457  -0.52194
 Alpha  occ. eigenvalues --   -0.51630  -0.51315  -0.51188  -0.50978  -0.50618
 Alpha  occ. eigenvalues --   -0.50313  -0.50019  -0.49882  -0.49230  -0.49072
 Alpha  occ. eigenvalues --   -0.48888  -0.48547  -0.48449  -0.48169  -0.47537
 Alpha  occ. eigenvalues --   -0.47117  -0.46989  -0.46809  -0.46690  -0.46507
 Alpha  occ. eigenvalues --   -0.46462  -0.46246  -0.45961  -0.45667  -0.45477
 Alpha  occ. eigenvalues --   -0.45253  -0.45049  -0.44919  -0.44641  -0.44471
 Alpha  occ. eigenvalues --   -0.44052  -0.43969  -0.43569  -0.43399  -0.43367
 Alpha  occ. eigenvalues --   -0.43163  -0.43029  -0.42953  -0.42536  -0.42301
 Alpha  occ. eigenvalues --   -0.42111  -0.41880  -0.41769  -0.41585  -0.41369
 Alpha  occ. eigenvalues --   -0.41135  -0.41036  -0.40817  -0.40469  -0.40316
 Alpha  occ. eigenvalues --   -0.40136  -0.40015  -0.39947  -0.39815  -0.39605
 Alpha  occ. eigenvalues --   -0.39576  -0.39334  -0.38894  -0.38874  -0.38797
 Alpha  occ. eigenvalues --   -0.38629  -0.38498  -0.38299  -0.38132  -0.37934
 Alpha  occ. eigenvalues --   -0.37847  -0.37832  -0.37591  -0.37401  -0.37028
 Alpha  occ. eigenvalues --   -0.36727  -0.36682  -0.36595  -0.36195  -0.36051
 Alpha  occ. eigenvalues --   -0.35880  -0.35807  -0.35565  -0.35083  -0.34753
 Alpha  occ. eigenvalues --   -0.34451  -0.34076  -0.33999  -0.33740  -0.33348
 Alpha  occ. eigenvalues --   -0.33183  -0.33037  -0.32724  -0.32492  -0.32198
 Alpha  occ. eigenvalues --   -0.32011  -0.31934  -0.31051  -0.30258  -0.30213
 Alpha  occ. eigenvalues --   -0.29852  -0.29370  -0.28246  -0.27935  -0.27672
 Alpha  occ. eigenvalues --   -0.27092  -0.26659  -0.26213  -0.24815  -0.20950
 Alpha  occ. eigenvalues --   -0.19946
 Alpha virt. eigenvalues --   -0.07026  -0.03664   0.00146   0.02471   0.03796
 Alpha virt. eigenvalues --    0.03959   0.04461   0.04755   0.05004   0.05745
 Alpha virt. eigenvalues --    0.06877   0.08705   0.08997   0.09344   0.09917

 Mulliken charges:
               1
     1  Mg   0.830724
     2  C    0.119728
     3  C   -0.155927
     4  C   -0.184296
     5  C   -0.169244
     6  N   -0.631805
     7  C    0.318372
     8  C   -0.154333
     9  C   -0.139559
    10  C    0.323596
    11  C   -0.299214
    12  C   -0.155107
    13  C   -0.272189
    14  C    0.613550
    15  O   -0.471949
    16  O   -0.472998
    17  N   -0.639158
    18  C    0.270003
    19  C   -0.019179
    20  C    0.020622
    21  C    0.260355
    22  C   -0.385942
    23  C   -0.051822
    24  C   -0.255960
    25  N   -0.699222
    26  C    0.284723
    27  C    0.051803
    28  C   -0.002500
    29  C    0.284850
    30  C   -0.380700
    31  C   -0.221871
    32  C   -0.316189
    33  N   -0.726476
    34  C    0.268497
    35  C    0.006032
    36  C    0.073885
    37  C    0.275732
    38  C   -0.383755
    39  C    0.355722
    40  O   -0.474601
    41  C   -0.345898
    42  C    0.606267
    43  O   -0.540057
    44  O   -0.376871
    45  C   -0.102621
    46  C    0.001260
    47  C   -0.104411
    48  C    0.118151
    49  C   -0.350844
    50  C   -0.220738
    51  C   -0.162441
    52  C   -0.169262
    53  C   -0.043115
    54  C   -0.301532
    55  C   -0.157166
    56  C   -0.196867
    57  C   -0.160530
    58  C   -0.044816
    59  C   -0.284808
    60  C   -0.172489
    61  C   -0.179273
    62  C   -0.138018
    63  C   -0.055032
    64  C   -0.314977
    65  C   -0.300432
    66  H    0.074396
    67  H    0.081170
    68  H    0.082234
    69  H    0.131036
    70  H    0.081239
    71  H    0.100494
    72  H    0.117421
    73  H    0.104303
    74  H    0.098478
    75  H    0.118601
    76  H    0.141880
    77  H    0.129137
    78  H    0.113534
    79  H    0.148782
    80  H    0.101257
    81  H    0.090332
    82  H    0.110308
    83  H    0.096348
    84  H    0.123856
    85  H    0.123737
    86  H    0.122564
    87  H    0.101923
    88  H    0.107315
    89  H    0.097153
    90  H    0.122476
    91  H    0.104350
    92  H    0.121545
    93  H    0.147212
    94  H    0.119268
    95  H    0.123192
    96  H    0.155046
    97  H    0.146303
    98  H    0.131356
    99  H    0.131501
   100  H    0.120823
   101  H    0.081165
   102  H    0.103327
   103  H    0.093743
   104  H    0.097448
   105  H    0.094982
   106  H    0.079341
   107  H    0.116090
   108  H    0.082811
   109  H    0.079688
   110  H    0.101865
   111  H    0.080128
   112  H    0.106258
   113  H    0.087182
   114  H    0.064037
   115  H    0.078938
   116  H    0.093105
   117  H    0.104004
   118  H    0.085068
   119  H    0.080218
   120  H    0.065695
   121  H    0.088186
   122  H    0.108387
   123  H    0.100806
   124  H    0.079503
   125  H    0.041495
   126  H    0.106574
   127  H    0.096114
   128  H    0.065964
   129  H    0.092709
   130  H    0.068388
   131  H    0.097881
   132  H    0.096795
   133  H    0.082062
   134  H    0.103340
   135  H    0.080553
   136  H    0.108239
   137  H    0.089667
 Sum of Mulliken charges =  -0.00000

 Dipole moment (field-independent basis, Debye):
    X=              0.6210    Y=              2.8010    Z=             -0.4820  Tot=              2.9092
 Quadrupole moment (field-independent basis, Debye-Ang):
   XX=           -327.1468   YY=           -391.8107   ZZ=           -397.2963
   XY=            -27.5159   XZ=             10.9608   YZ=             -7.5305

 Normal termination of Gaussian 16 at Fri Sep  6 18:41:36 2019.
