 Gaussian 09, Revision D.01,
 Gaussian 09:  ES64L-G09RevD.01 24-Apr-2013

 -------------------------------------
 # td=(NStates=1) CAM-B3LYP/6-31G(d,p)
 -------------------------------------

 --
 TD
 --
 Symbolic Z-matrix:
 Charge =  0 Multiplicity = 1

                         Standard orientation:
 ---------------------------------------------------------------------
 Center     Atomic      Atomic             Coordinates (Angstroms)
 Number     Number       Type             X           Y           Z
 ---------------------------------------------------------------------
      1         12           0       -7.121821    0.601756   -0.026572
      2          6           0       -4.891901   -1.899752    0.460528
      3          6           0       -4.718577    2.879461    1.098132
      4          6           0       -9.348023    3.086501   -0.425292
      5          6           0       -9.565504   -1.793456   -0.887499
      6          7           0       -5.115510    0.482304    0.673000
      7          6           0       -4.393636   -0.725240    0.766060
      8          6           0       -2.918034   -0.363165    1.210045
      9          6           0       -3.014465    1.125635    1.704324
     10          6           0       -4.418376    1.528828    1.130706
     11          6           0       -2.919538    1.219029    3.147508
     12          6           0       -1.880195   -0.563206    0.147519
     13          6           0       -0.430128   -0.426510    0.628982
     14          6           0        0.496572   -0.751331   -0.517475
     15          8           0        0.168854   -1.092637   -1.578892
     16          8           0        1.725937   -0.549081   -0.230732
     17          7           0       -7.056984    2.684454    0.347340
     18          6           0       -5.992897    3.407297    0.593574
     19          6           0       -6.345996    4.773732    0.736004
     20          6           0       -7.684797    4.870253    0.385338
     21          6           0       -8.142878    3.491086    0.055401
     22          6           0       -5.475595    5.873890    1.076169
     23          6           0       -8.615543    6.107646    0.325598
     24          6           0       -8.434505    7.269346    0.834088
     25          7           0       -9.078941    0.690848   -0.592394
     26          6           0       -9.822362    1.812893   -0.729285
     27          6           0      -11.202537    1.457040   -1.122227
     28          6           0      -11.263353    0.041763   -1.241090
     29          6           0       -9.944867   -0.402377   -0.883314
     30          6           0      -12.288224    2.384118   -1.372563
     31          6           0      -12.477052   -0.716326   -1.773147
     32          6           0      -12.173092   -1.115538   -3.139736
     33          7           0       -7.196090   -1.360130   -0.217171
     34          6           0       -8.281361   -2.220123   -0.628416
     35          6           0       -7.849893   -3.660561   -0.472365
     36          6           0       -6.479559   -3.507024   -0.120573
     37          6           0       -6.189483   -2.166152    0.007610
     38          6           0       -8.631527   -4.817888   -0.788924
     39          6           0       -5.208304   -4.357623    0.237139
     40          8           0       -5.224080   -5.565892    0.302984
     41          6           0       -4.085269   -3.209068    0.601230
     42          6           0       -3.560012   -3.631929    1.857800
     43          8           0       -3.813215   -3.042395    2.951716
     44          8           0       -2.737420   -4.729684    1.838820
     45          6           0       -2.221852   -5.179112    3.125669
     46          6           0        2.773851   -0.969274   -1.093139
     47          6           0        4.205211   -0.690545   -0.574272
     48          6           0        5.095730    0.248769   -1.046218
     49          6           0        4.938230    1.084355   -2.188909
     50          6           0        6.421792    0.332127   -0.271520
     51          6           0        7.626417   -0.219581   -1.044639
     52          6           0        8.960582   -0.065370   -0.275748
     53          6           0       10.212970   -0.608715   -0.934718
     54          6           0       10.111400   -2.057106   -1.289904
     55          6           0       11.402911   -0.358868   -0.033782
     56          6           0       12.677121   -0.478192   -0.788478
     57          6           0       13.984048    0.108302   -0.043108
     58          6           0       15.378015   -0.097102   -0.545954
     59          6           0       15.721946   -1.493232   -0.771363
     60          6           0       16.384942    0.547142    0.369233
     61          6           0       17.785089    0.633329   -0.200119
     62          6           0       18.752403    1.266474    0.784380
     63          6           0       20.210697    1.311849    0.327982
     64          6           0       20.481239    2.083591   -1.013942
     65          6           0       21.132471    1.772153    1.417022
     66          1           0       -4.127902    3.723745    1.437850
     67          1           0       -9.957841    3.969628   -0.600977
     68          1           0      -10.311503   -2.543307   -1.133330
     69          1           0       -2.598226   -1.022238    2.081842
     70          1           0       -2.109745    1.586054    1.139696
     71          1           0       -1.859468    0.914652    3.661903
     72          1           0       -3.342048    2.076903    3.621453
     73          1           0       -3.639356    0.243472    3.449173
     74          1           0       -2.060487   -1.370727   -0.470765
     75          1           0       -2.026532    0.226354   -0.665437
     76          1           0       -0.312987    0.438833    1.045900
     77          1           0       -0.350221   -0.960535    1.553712
     78          1           0       -5.775751    6.850579    0.726312
     79          1           0       -5.471046    5.925331    2.156949
     80          1           0       -4.442235    5.754857    0.655971
     81          1           0       -9.574213    5.959086   -0.381154
     82          1           0       -9.358948    8.088325    0.911297
     83          1           0       -7.527523    7.690363    1.571212
     84          1           0      -12.052880    3.115487   -2.159420
     85          1           0      -13.220568    1.953249   -1.377071
     86          1           0      -12.354748    3.414830   -0.567046
     87          1           0      -12.557481   -1.592209   -1.093934
     88          1           0      -13.402248   -0.160062   -1.682141
     89          1           0      -12.945246   -1.766640   -3.585843
     90          1           0      -12.165178   -0.359133   -3.953047
     91          1           0      -11.315213   -1.885355   -3.290293
     92          1           0       -8.891537   -4.845658   -1.750249
     93          1           0       -8.036248   -5.703595   -0.627642
     94          1           0       -9.525133   -5.075371   -0.142537
     95          1           0       -3.445160   -3.517874   -0.208325
     96          1           0       -1.447280   -4.482753    3.424980
     97          1           0       -3.062585   -5.176402    3.752180
     98          1           0       -1.755036   -6.257735    3.095664
     99          1           0        2.696154   -2.136217   -1.201021
    100          1           0        2.625429   -0.495445   -2.242828
    101          1           0        4.399758   -1.223430    0.276670
    102          1           0        4.029605    1.332748   -2.479459
    103          1           0        5.507739    1.982887   -2.144815
    104          1           0        5.480985    0.737496   -3.090668
    105          1           0        6.651482    1.518565   -0.050099
    106          1           0        6.265430    0.081204    0.876342
    107          1           0        7.454598   -1.244695   -1.144139
    108          1           0        7.777397    0.514356   -1.944070
    109          1           0        9.107434    1.162838   -0.355754
    110          1           0        9.112966   -0.684748    0.800667
    111          1           0       10.207433    0.080577   -1.938626
    112          1           0        9.197918   -2.228751   -1.822703
    113          1           0       10.975999   -2.311283   -1.927870
    114          1           0        9.925122   -2.642117   -0.246285
    115          1           0       11.152739    0.559805    0.387008
    116          1           0       11.423364   -0.963328    0.987739
    117          1           0       12.827252   -1.542188   -1.154385
    118          1           0       12.425841    0.138294   -1.790886
    119          1           0       13.753958    1.149639    0.259566
    120          1           0       13.918857   -0.405746    0.992570
    121          1           0       15.400731    0.309417   -1.637520
    122          1           0       15.580746   -2.088292    0.083094
    123          1           0       14.849422   -1.811446   -1.213121
    124          1           0       16.679763   -1.882233   -1.537630
    125          1           0       16.220981    1.716450    0.427980
    126          1           0       16.498505   -0.007818    1.222291
    127          1           0       18.082396   -0.314346   -0.209922
    128          1           0       17.890594    1.168815   -1.211054
    129          1           0       18.317874    2.423554    1.016031
    130          1           0       18.831844    0.727420    1.699883
    131          1           0       20.436881    0.337442    0.271218
    132          1           0       20.170828    3.107893   -0.621915
    133          1           0       21.400870    2.316060   -1.243199
    134          1           0       19.929224    1.820535   -1.725135
    135          1           0       21.136642    1.049101    2.251918
    136          1           0       22.216917    1.928078    0.978396
    137          1           0       20.789004    2.707387    1.515188
 ---------------------------------------------------------------------

 SCF Done:  E(RCAM-B3LYP) =  -2932.59473737     A.U. after   15 cycles

 Excitation energies and oscillator strengths:

 Excited State   1:      Singlet-A      2.1298 eV  582.15 nm  f=0.2214  <S**2>=0.000
     240 -> 243        0.25242
     241 -> 242        0.65186
 This state for optimization and/or second-order correction.
 Total Energy, E(TD-HF/TD-KS) =  -2932.51647031
 Copying the excited state density for this state as the 1-particle RhoCI density.

 The electronic state is 1-A.
 Alpha  occ. eigenvalues --  -46.83901 -19.25937 -19.25878 -19.22392 -19.19637
 Alpha  occ. eigenvalues --  -19.19623 -14.40883 -14.39673 -14.39580 -14.38770
 Alpha  occ. eigenvalues --  -10.39273 -10.38051 -10.37215 -10.33997 -10.31307
 Alpha  occ. eigenvalues --  -10.30671 -10.30272 -10.29445 -10.29418 -10.29265
 Alpha  occ. eigenvalues --  -10.29255 -10.29046 -10.28985 -10.28794 -10.28701
 Alpha  occ. eigenvalues --  -10.28606 -10.28420 -10.28261 -10.28212 -10.28210
 Alpha  occ. eigenvalues --  -10.28034 -10.27602 -10.27093 -10.27076 -10.27058
 Alpha  occ. eigenvalues --  -10.26973 -10.26873 -10.26749 -10.26618 -10.26592
 Alpha  occ. eigenvalues --  -10.26551 -10.26443 -10.26210 -10.26174 -10.26044
 Alpha  occ. eigenvalues --  -10.25997 -10.25939 -10.25830 -10.25762 -10.25635
 Alpha  occ. eigenvalues --  -10.25481 -10.25422 -10.25410 -10.25403 -10.25186
 Alpha  occ. eigenvalues --  -10.25174 -10.25127 -10.24939 -10.24551 -10.24332
 Alpha  occ. eigenvalues --  -10.24269 -10.24071 -10.23725 -10.23668 -10.21982
 Alpha  occ. eigenvalues --   -3.12975  -1.87684  -1.87221  -1.87147  -1.21308
 Alpha  occ. eigenvalues --   -1.16138  -1.12599  -1.10753  -1.06021  -1.04322
 Alpha  occ. eigenvalues --   -1.03902  -1.02134  -1.01454  -0.92636  -0.92121
 Alpha  occ. eigenvalues --   -0.91604  -0.90702  -0.90111  -0.89536  -0.89496
 Alpha  occ. eigenvalues --   -0.88587  -0.88450  -0.87936  -0.86878  -0.86156
 Alpha  occ. eigenvalues --   -0.85482  -0.84806  -0.84127  -0.83945  -0.83673
 Alpha  occ. eigenvalues --   -0.82607  -0.81585  -0.80990  -0.80738  -0.78781
 Alpha  occ. eigenvalues --   -0.77864  -0.77429  -0.77138  -0.76735  -0.76353
 Alpha  occ. eigenvalues --   -0.75872  -0.75142  -0.74746  -0.73413  -0.72548
 Alpha  occ. eigenvalues --   -0.70877  -0.70112  -0.70022  -0.68974  -0.66981
 Alpha  occ. eigenvalues --   -0.66843  -0.65520  -0.64667  -0.64502  -0.64325
 Alpha  occ. eigenvalues --   -0.63593  -0.62968  -0.62871  -0.62293  -0.61839
 Alpha  occ. eigenvalues --   -0.61006  -0.60535  -0.60180  -0.60009  -0.59439
 Alpha  occ. eigenvalues --   -0.58835  -0.58378  -0.57854  -0.57493  -0.57160
 Alpha  occ. eigenvalues --   -0.57005  -0.56047  -0.55993  -0.55423  -0.55293
 Alpha  occ. eigenvalues --   -0.54612  -0.54361  -0.54108  -0.53959  -0.53389
 Alpha  occ. eigenvalues --   -0.53238  -0.53119  -0.52906  -0.52615  -0.52415
 Alpha  occ. eigenvalues --   -0.51671  -0.51318  -0.51247  -0.51099  -0.50784
 Alpha  occ. eigenvalues --   -0.50643  -0.50609  -0.50325  -0.50123  -0.49708
 Alpha  occ. eigenvalues --   -0.49591  -0.49142  -0.48879  -0.48550  -0.48384
 Alpha  occ. eigenvalues --   -0.48348  -0.48143  -0.47985  -0.47775  -0.47395
 Alpha  occ. eigenvalues --   -0.47263  -0.47119  -0.46905  -0.46642  -0.46450
 Alpha  occ. eigenvalues --   -0.46107  -0.45943  -0.45791  -0.45738  -0.45483
 Alpha  occ. eigenvalues --   -0.45355  -0.45105  -0.45053  -0.44640  -0.44207
 Alpha  occ. eigenvalues --   -0.44091  -0.43934  -0.43722  -0.43558  -0.43317
 Alpha  occ. eigenvalues --   -0.43232  -0.42797  -0.42559  -0.42489  -0.42331
 Alpha  occ. eigenvalues --   -0.41836  -0.41679  -0.41592  -0.41105  -0.40738
 Alpha  occ. eigenvalues --   -0.40687  -0.40437  -0.40399  -0.40193  -0.39990
 Alpha  occ. eigenvalues --   -0.39734  -0.39550  -0.39094  -0.38822  -0.38071
 Alpha  occ. eigenvalues --   -0.37950  -0.37868  -0.37742  -0.37272  -0.37247
 Alpha  occ. eigenvalues --   -0.37081  -0.37049  -0.36718  -0.36381  -0.36030
 Alpha  occ. eigenvalues --   -0.35975  -0.35853  -0.35818  -0.35673  -0.35473
 Alpha  occ. eigenvalues --   -0.34988  -0.34764  -0.34724  -0.34354  -0.33780
 Alpha  occ. eigenvalues --   -0.32644  -0.32630  -0.32408  -0.31349  -0.30150
 Alpha  occ. eigenvalues --   -0.29660  -0.29644  -0.27663  -0.27079  -0.23284
 Alpha  occ. eigenvalues --   -0.21409
 Alpha virt. eigenvalues --   -0.06101  -0.02968   0.02001   0.04603   0.04793
 Alpha virt. eigenvalues --    0.05721   0.06044   0.07511   0.07569   0.08284
 Alpha virt. eigenvalues --    0.08953   0.09791   0.10318   0.11221   0.11625

 Mulliken charges:
               1
     1  Mg   0.820190
     2  C    0.056304
     3  C   -0.193293
     4  C   -0.151666
     5  C   -0.156668
     6  N   -0.655657
     7  C    0.299254
     8  C   -0.167540
     9  C   -0.121488
    10  C    0.350734
    11  C   -0.294522
    12  C   -0.182539
    13  C   -0.273081
    14  C    0.597064
    15  O   -0.450167
    16  O   -0.432302
    17  N   -0.684156
    18  C    0.297338
    19  C    0.014961
    20  C   -0.002823
    21  C    0.291323
    22  C   -0.392684
    23  C   -0.031484
    24  C   -0.260224
    25  N   -0.701150
    26  C    0.324102
    27  C    0.040593
    28  C    0.018934
    29  C    0.248049
    30  C   -0.376739
    31  C   -0.220669
    32  C   -0.308122
    33  N   -0.753262
    34  C    0.233591
    35  C    0.031735
    36  C   -0.039227
    37  C    0.394672
    38  C   -0.408869
    39  C    0.366675
    40  O   -0.427757
    41  C   -0.323729
    42  C    0.659339
    43  O   -0.519720
    44  O   -0.481906
    45  C   -0.070724
    46  C    0.014210
    47  C   -0.137708
    48  C    0.149777
    49  C   -0.381254
    50  C   -0.235225
    51  C   -0.158698
    52  C   -0.160787
    53  C   -0.058831
    54  C   -0.289172
    55  C   -0.150218
    56  C   -0.182456
    57  C   -0.181746
    58  C   -0.048394
    59  C   -0.304879
    60  C   -0.147823
    61  C   -0.176689
    62  C   -0.155962
    63  C   -0.077684
    64  C   -0.297072
    65  C   -0.300874
    66  H    0.084132
    67  H    0.075962
    68  H    0.103823
    69  H    0.117266
    70  H    0.094732
    71  H    0.086784
    72  H    0.118261
    73  H    0.103103
    74  H    0.124975
    75  H    0.096529
    76  H    0.136243
    77  H    0.127018
    78  H    0.126564
    79  H    0.131014
    80  H    0.114775
    81  H    0.093164
    82  H    0.087569
    83  H    0.094723
    84  H    0.129977
    85  H    0.117233
    86  H    0.061165
    87  H    0.108721
    88  H    0.112013
    89  H    0.093915
    90  H    0.118334
    91  H    0.100403
    92  H    0.143931
    93  H    0.150467
    94  H    0.123194
    95  H    0.180796
    96  H    0.126568
    97  H    0.149997
    98  H    0.116462
    99  H    0.106344
   100  H    0.094913
   101  H    0.092030
   102  H    0.132110
   103  H    0.118873
   104  H    0.123524
   105  H    0.065495
   106  H    0.100420
   107  H    0.117859
   108  H    0.095501
   109  H    0.066881
   110  H    0.063924
   111  H    0.055643
   112  H    0.104675
   113  H    0.110738
   114  H    0.077194
   115  H    0.103416
   116  H    0.073372
   117  H    0.099174
   118  H    0.073239
   119  H    0.101619
   120  H    0.070309
   121  H    0.073502
   122  H    0.097731
   123  H    0.104935
   124  H    0.083608
   125  H    0.072897
   126  H    0.095049
   127  H    0.103142
   128  H    0.086970
   129  H    0.037778
   130  H    0.088093
   131  H    0.091225
   132  H    0.078848
   133  H    0.109500
   134  H    0.107162
   135  H    0.098729
   136  H    0.078622
   137  H    0.113938
 Sum of Mulliken charges =   0.00000

 Dipole moment (field-independent basis, Debye):
    X=              1.2246    Y=              2.2730    Z=             -1.1052  Tot=              2.8085
 Quadrupole moment (field-independent basis, Debye-Ang):
   XX=           -349.1431   YY=           -387.5216   ZZ=           -397.6169
   XY=            -16.7393   XZ=             13.9750   YZ=             -2.2398

 Normal termination of Gaussian 09 at Tue Jul  2 12:47:13 2019.
