 Gaussian 16, Revision A.03,
 Gaussian 16:  ES64L-G16RevA.03 25-Dec-2016

 ----------------------------------------------------------------------
 # td=(NStates=1) iop(3/107=0140000000,3/108=0140000000) CAM-B3LYP/6-31
 G(d,p)
 ----------------------------------------------------------------------

 --
 TD
 --
 Symbolic Z-matrix:
 Charge =  0 Multiplicity = 1

                         Standard orientation:
 ---------------------------------------------------------------------
 Center     Atomic      Atomic             Coordinates (Angstroms)
 Number     Number       Type             X           Y           Z
 ---------------------------------------------------------------------
      1         12           0       -7.203644    0.549709    0.126208
      2          6           0       -4.809801   -1.917745    0.402704
      3          6           0       -4.760572    2.800889    1.357214
      4          6           0       -9.320427    3.122559   -0.505904
      5          6           0       -9.559134   -1.739594   -0.945013
      6          7           0       -5.007602    0.426820    0.581055
      7          6           0       -4.357699   -0.631937    0.798206
      8          6           0       -2.936768   -0.400356    1.270631
      9          6           0       -3.021898    1.012882    1.707766
     10          6           0       -4.378469    1.427242    1.189102
     11          6           0       -2.931351    1.175363    3.316776
     12          6           0       -1.880544   -0.641325    0.089341
     13          6           0       -0.428124   -0.419911    0.542696
     14          6           0        0.506640   -0.792993   -0.555867
     15          8           0        0.169023   -1.290729   -1.633082
     16          8           0        1.739738   -0.426646   -0.149372
     17          7           0       -7.124046    2.591948    0.213491
     18          6           0       -6.027050    3.291786    0.873292
     19          6           0       -6.403475    4.687535    0.957863
     20          6           0       -7.668206    4.897603    0.322557
     21          6           0       -8.108945    3.528410    0.012338
     22          6           0       -5.481548    5.875763    1.387998
     23          6           0       -8.486596    6.038621    0.157805
     24          6           0       -8.327729    7.250859    0.578380
     25          7           0       -9.167207    0.569801   -0.586577
     26          6           0       -9.828293    1.791063   -0.667451
     27          6           0      -11.167519    1.490363   -1.207097
     28          6           0      -11.268026    0.128893   -1.389310
     29          6           0       -9.945993   -0.464480   -1.021456
     30          6           0      -12.332558    2.485323   -1.427384
     31          6           0      -12.419147   -0.712928   -1.792430
     32          6           0      -12.151779   -1.140134   -3.228065
     33          7           0       -7.244179   -1.314025   -0.189883
     34          6           0       -8.277643   -2.177935   -0.493212
     35          6           0       -7.767426   -3.501300   -0.516023
     36          6           0       -6.458383   -3.484169   -0.112185
     37          6           0       -6.114112   -2.126048    0.037474
     38          6           0       -8.739192   -4.632712   -0.893864
     39          6           0       -5.350488   -4.354548    0.151999
     40          8           0       -5.215730   -5.564026    0.141019
     41          6           0       -4.136720   -3.286243    0.514798
     42          6           0       -3.557420   -3.644082    1.909746
     43          8           0       -3.702026   -3.021976    2.897182
     44          8           0       -2.809362   -4.802272    1.745442
     45          6           0       -2.303301   -5.350164    2.948411
     46          6           0        2.794365   -0.716911   -1.104205
     47          6           0        4.139405   -0.553405   -0.449909
     48          6           0        5.176046    0.282721   -0.859470
     49          6           0        5.065388    1.352796   -1.998095
     50          6           0        6.440040    0.482932   -0.024994
     51          6           0        7.660389    0.039051   -0.869149
     52          6           0        8.927003   -0.147154   -0.018169
     53          6           0       10.165211   -0.634218   -0.801237
     54          6           0       10.022212   -2.071505   -1.137142
     55          6           0       11.364181   -0.212020    0.032084
     56          6           0       12.750516   -0.406943   -0.663795
     57          6           0       14.061093   -0.086474    0.203105
     58          6           0       15.337785   -0.084599   -0.545152
     59          6           0       15.679676   -1.601510   -0.838107
     60          6           0       16.379109    0.446481    0.346668
     61          6           0       17.836895    0.443237   -0.302228
     62          6           0       18.789754    1.299188    0.571379
     63          6           0       20.210517    1.313276    0.039589
     64          6           0       20.402866    2.086804   -1.254162
     65          6           0       21.200079    1.906723    1.207773
     66          1           0       -4.093302    3.502911    1.486213
     67          1           0      -10.053862    4.037820   -0.447411
     68          1           0      -10.362392   -2.345792   -1.456405
     69          1           0       -2.888832   -1.018734    2.009626
     70          1           0       -2.266777    1.654938    1.324905
     71          1           0       -1.840439    1.096519    3.567416
     72          1           0       -3.319426    2.170754    3.601537
     73          1           0       -3.659706    0.451759    3.716952
     74          1           0       -2.043347   -1.693784   -0.267256
     75          1           0       -2.191307    0.143251   -0.788067
     76          1           0       -0.342219    0.643118    0.899692
     77          1           0       -0.007167   -0.999148    1.329035
     78          1           0       -5.669040    6.571489    0.683637
     79          1           0       -5.993832    6.159155    2.374848
     80          1           0       -4.384802    5.620820    1.365666
     81          1           0       -9.336404    5.893030   -0.480071
     82          1           0       -8.978513    8.002639    0.204529
     83          1           0       -7.679926    7.614619    1.279456
     84          1           0      -12.059689    3.338814   -2.222429
     85          1           0      -13.026794    1.970254   -1.966574
     86          1           0      -12.842566    2.976355   -0.475319
     87          1           0      -12.664653   -1.628753   -1.039829
     88          1           0      -13.302860   -0.144971   -1.728460
     89          1           0      -12.936139   -1.754510   -3.624065
     90          1           0      -12.288782   -0.360050   -3.907901
     91          1           0      -11.181194   -1.490407   -3.470187
     92          1           0       -9.441648   -4.431434   -1.890657
     93          1           0       -8.427812   -5.754538   -0.997821
     94          1           0       -9.592024   -4.592140   -0.005814
     95          1           0       -3.194178   -3.640268   -0.299629
     96          1           0       -1.470645   -4.550854    3.403931
     97          1           0       -3.128013   -5.594119    3.597189
     98          1           0       -1.854286   -6.312784    2.650977
     99          1           0        2.645372   -1.840469   -1.416605
    100          1           0        2.714412   -0.071869   -1.993762
    101          1           0        4.225475   -1.341787    0.584068
    102          1           0        4.092465    1.245010   -2.361358
    103          1           0        5.218471    2.352237   -1.727662
    104          1           0        5.750126    1.152249   -2.893837
    105          1           0        6.658455    1.583037    0.136812
    106          1           0        6.271136   -0.222686    0.830118
    107          1           0        7.551011   -1.014080   -1.220538
    108          1           0        7.926695    0.740619   -1.700352
    109          1           0        9.195678    0.883242    0.401941
    110          1           0        8.734104   -0.877196    0.837398
    111          1           0       10.217713   -0.005712   -1.619729
    112          1           0        9.350257   -2.202817   -2.081608
    113          1           0       11.039934   -2.197555   -1.398787
    114          1           0        9.757098   -2.786574   -0.172586
    115          1           0       11.254039    0.721272    0.473034
    116          1           0       11.430208   -0.962264    0.963001
    117          1           0       12.827412   -1.335464   -1.035537
    118          1           0       12.771115    0.375632   -1.459652
    119          1           0       13.774967    0.927955    0.749458
    120          1           0       14.069993   -1.052351    0.974208
    121          1           0       15.216512    0.390887   -1.561719
    122          1           0       15.965359   -2.004578    0.120162
    123          1           0       15.097733   -2.196814   -1.501893
    124          1           0       16.786937   -1.410865   -1.453863
    125          1           0       16.045552    1.470506    0.532928
    126          1           0       16.408226   -0.218945    1.363413
    127          1           0       18.036009   -0.543978   -0.524464
    128          1           0       17.445604    0.801973   -1.291096
    129          1           0       18.631859    2.225396    0.711552
    130          1           0       18.773376    0.797183    1.609763
    131          1           0       20.707419    0.316156   -0.160622
    132          1           0       19.887171    3.007219   -1.175951
    133          1           0       21.405519    1.989045   -1.591599
    134          1           0       19.904322    1.569027   -2.127683
    135          1           0       20.945304    1.463773    2.278580
    136          1           0       22.320214    1.645236    0.839469
    137          1           0       21.044143    3.069146    1.146960
 ---------------------------------------------------------------------

 SCF Done:  E(RCAM-B3LYP) =  -2933.50162570     A.U. after   16 cycles

 Excitation energies and oscillator strengths:

 Excited State   1:      Singlet-A      1.9485 eV  636.30 nm  f=0.2745  <S**2>=0.000
     240 -> 243        0.23467
     241 -> 242        0.66270
 This state for optimization and/or second-order correction.
 Total Energy, E(TD-HF/TD-DFT) =  -2933.43001933
 Copying the excited state density for this state as the 1-particle RhoCI density.

 The electronic state is 1-A.
 Alpha  occ. eigenvalues --  -46.79466 -19.22599 -19.21237 -19.17690 -19.16823
 Alpha  occ. eigenvalues --  -19.16105 -14.37907 -14.35352 -14.35100 -14.34567
 Alpha  occ. eigenvalues --  -10.34533 -10.34445 -10.30379 -10.28441 -10.27358
 Alpha  occ. eigenvalues --  -10.26329 -10.25897 -10.25516 -10.25381 -10.25376
 Alpha  occ. eigenvalues --  -10.24831 -10.24777 -10.24562 -10.24471 -10.24437
 Alpha  occ. eigenvalues --  -10.24331 -10.23805 -10.23728 -10.23602 -10.23221
 Alpha  occ. eigenvalues --  -10.23114 -10.22935 -10.22830 -10.22612 -10.22585
 Alpha  occ. eigenvalues --  -10.22585 -10.22578 -10.22558 -10.22554 -10.22479
 Alpha  occ. eigenvalues --  -10.22227 -10.22187 -10.22157 -10.22038 -10.21790
 Alpha  occ. eigenvalues --  -10.21775 -10.21719 -10.21703 -10.21696 -10.21680
 Alpha  occ. eigenvalues --  -10.21630 -10.21550 -10.21416 -10.21412 -10.20845
 Alpha  occ. eigenvalues --  -10.20799 -10.20647 -10.20625 -10.20624 -10.20514
 Alpha  occ. eigenvalues --  -10.20321 -10.20267 -10.20024 -10.19674 -10.19642
 Alpha  occ. eigenvalues --   -3.08225  -1.83135  -1.82707  -1.82641  -1.13097
 Alpha  occ. eigenvalues --   -1.12852  -1.06017  -1.05578  -1.03996  -1.03091
 Alpha  occ. eigenvalues --   -0.98198  -0.96722  -0.95683  -0.87167  -0.86328
 Alpha  occ. eigenvalues --   -0.85705  -0.85171  -0.84383  -0.84356  -0.83752
 Alpha  occ. eigenvalues --   -0.83301  -0.83121  -0.82408  -0.81516  -0.81387
 Alpha  occ. eigenvalues --   -0.79577  -0.79056  -0.77882  -0.77769  -0.77499
 Alpha  occ. eigenvalues --   -0.76288  -0.75941  -0.75530  -0.74971  -0.73124
 Alpha  occ. eigenvalues --   -0.72911  -0.71758  -0.71523  -0.70890  -0.70634
 Alpha  occ. eigenvalues --   -0.70059  -0.69745  -0.69069  -0.68321  -0.67594
 Alpha  occ. eigenvalues --   -0.66950  -0.66294  -0.65893  -0.64743  -0.64217
 Alpha  occ. eigenvalues --   -0.63235  -0.62367  -0.61703  -0.61024  -0.59439
 Alpha  occ. eigenvalues --   -0.59264  -0.58660  -0.58627  -0.58126  -0.57493
 Alpha  occ. eigenvalues --   -0.57320  -0.56338  -0.56171  -0.55227  -0.54998
 Alpha  occ. eigenvalues --   -0.54606  -0.53710  -0.53513  -0.52555  -0.52139
 Alpha  occ. eigenvalues --   -0.52017  -0.51505  -0.51382  -0.51116  -0.50944
 Alpha  occ. eigenvalues --   -0.50854  -0.50483  -0.50114  -0.49978  -0.49909
 Alpha  occ. eigenvalues --   -0.49557  -0.48766  -0.48376  -0.48062  -0.47875
 Alpha  occ. eigenvalues --   -0.47324  -0.47007  -0.46882  -0.46865  -0.46556
 Alpha  occ. eigenvalues --   -0.46378  -0.46206  -0.45931  -0.45811  -0.45732
 Alpha  occ. eigenvalues --   -0.45441  -0.45327  -0.45175  -0.44815  -0.44642
 Alpha  occ. eigenvalues --   -0.44411  -0.44365  -0.43999  -0.43844  -0.43521
 Alpha  occ. eigenvalues --   -0.43374  -0.43282  -0.42748  -0.42510  -0.42448
 Alpha  occ. eigenvalues --   -0.42225  -0.41963  -0.41711  -0.41664  -0.41474
 Alpha  occ. eigenvalues --   -0.41381  -0.41165  -0.40910  -0.40652  -0.40598
 Alpha  occ. eigenvalues --   -0.40505  -0.40387  -0.40346  -0.40117  -0.39930
 Alpha  occ. eigenvalues --   -0.39462  -0.39352  -0.39272  -0.38997  -0.38804
 Alpha  occ. eigenvalues --   -0.38635  -0.38565  -0.38306  -0.38022  -0.37829
 Alpha  occ. eigenvalues --   -0.37686  -0.37581  -0.37412  -0.37249  -0.37045
 Alpha  occ. eigenvalues --   -0.36999  -0.36447  -0.36444  -0.36315  -0.36166
 Alpha  occ. eigenvalues --   -0.35878  -0.35736  -0.35529  -0.35471  -0.35156
 Alpha  occ. eigenvalues --   -0.34652  -0.33970  -0.33747  -0.33708  -0.33353
 Alpha  occ. eigenvalues --   -0.33246  -0.33175  -0.32806  -0.32636  -0.32418
 Alpha  occ. eigenvalues --   -0.32379  -0.32023  -0.31714  -0.30981  -0.30455
 Alpha  occ. eigenvalues --   -0.30048  -0.29945  -0.29623  -0.28127  -0.27080
 Alpha  occ. eigenvalues --   -0.26755  -0.26432  -0.25447  -0.24444  -0.21770
 Alpha  occ. eigenvalues --   -0.19587
 Alpha virt. eigenvalues --   -0.07151  -0.03993  -0.00457   0.02152   0.02779
 Alpha virt. eigenvalues --    0.03855   0.03954   0.04339   0.05465   0.05909
 Alpha virt. eigenvalues --    0.06814   0.09008   0.09350   0.09705   0.10028

 Mulliken charges:
               1
     1  Mg   0.831482
     2  C    0.067999
     3  C   -0.158444
     4  C   -0.167629
     5  C   -0.156989
     6  N   -0.570372
     7  C    0.270747
     8  C   -0.095925
     9  C   -0.176756
    10  C    0.317773
    11  C   -0.312445
    12  C   -0.161673
    13  C   -0.261965
    14  C    0.618238
    15  O   -0.481978
    16  O   -0.462239
    17  N   -0.699953
    18  C    0.286013
    19  C   -0.065770
    20  C    0.077559
    21  C    0.293257
    22  C   -0.359796
    23  C   -0.067878
    24  C   -0.251844
    25  N   -0.707286
    26  C    0.294626
    27  C    0.006318
    28  C    0.042158
    29  C    0.315222
    30  C   -0.368036
    31  C   -0.245423
    32  C   -0.326331
    33  N   -0.776906
    34  C    0.281802
    35  C    0.035840
    36  C    0.054091
    37  C    0.291462
    38  C   -0.369751
    39  C    0.346458
    40  O   -0.451418
    41  C   -0.349618
    42  C    0.626599
    43  O   -0.440570
    44  O   -0.448188
    45  C   -0.075703
    46  C    0.005928
    47  C   -0.124916
    48  C    0.112731
    49  C   -0.365599
    50  C   -0.209643
    51  C   -0.180617
    52  C   -0.167379
    53  C   -0.042255
    54  C   -0.295253
    55  C   -0.175298
    56  C   -0.190061
    57  C   -0.146955
    58  C   -0.061620
    59  C   -0.298526
    60  C   -0.160681
    61  C   -0.189103
    62  C   -0.132261
    63  C   -0.070508
    64  C   -0.306393
    65  C   -0.301613
    66  H    0.073347
    67  H    0.082127
    68  H    0.092539
    69  H    0.115497
    70  H    0.100775
    71  H    0.108003
    72  H    0.108954
    73  H    0.126975
    74  H    0.120900
    75  H    0.097644
    76  H    0.130410
    77  H    0.143056
    78  H    0.144068
    79  H    0.126886
    80  H    0.108728
    81  H    0.085863
    82  H    0.094130
    83  H    0.096272
    84  H    0.097488
    85  H    0.121999
    86  H    0.110856
    87  H    0.091634
    88  H    0.107959
    89  H    0.100598
    90  H    0.117902
    91  H    0.122622
    92  H    0.100093
    93  H    0.131956
    94  H    0.104714
    95  H    0.136747
    96  H    0.094361
    97  H    0.133030
    98  H    0.127636
    99  H    0.121625
   100  H    0.121692
   101  H    0.065081
   102  H    0.111379
   103  H    0.129474
   104  H    0.115041
   105  H    0.105089
   106  H    0.099303
   107  H    0.096989
   108  H    0.089845
   109  H    0.061875
   110  H    0.078572
   111  H    0.090344
   112  H    0.101795
   113  H    0.106411
   114  H    0.086336
   115  H    0.097942
   116  H    0.058112
   117  H    0.105130
   118  H    0.078375
   119  H    0.066766
   120  H    0.060473
   121  H    0.086487
   122  H    0.113318
   123  H    0.113237
   124  H    0.050820
   125  H    0.092038
   126  H    0.067709
   127  H    0.113027
   128  H    0.086948
   129  H    0.098618
   130  H    0.081826
   131  H    0.075564
   132  H    0.103524
   133  H    0.109973
   134  H    0.094002
   135  H    0.092628
   136  H    0.082734
   137  H    0.087393
 Sum of Mulliken charges =  -0.00000

 Dipole moment (field-independent basis, Debye):
    X=              1.9185    Y=              4.7455    Z=              0.3674  Tot=              5.1318
 Quadrupole moment (field-independent basis, Debye-Ang):
   XX=           -349.4913   YY=           -394.9146   ZZ=           -397.5270
   XY=            -17.7412   XZ=             -2.6018   YZ=             -4.5863

 Normal termination of Gaussian 16 at Tue Sep 17 23:09:46 2019.
