 Gaussian 16, Revision A.03,
 Gaussian 16:  ES64L-G16RevA.03 25-Dec-2016

 -------------------------------------
 # td=(NStates=1) CAM-B3LYP/6-31G(d,p)
 -------------------------------------

 --
 TD
 --
 Symbolic Z-matrix:
 Charge =  0 Multiplicity = 1

                         Standard orientation:
 ---------------------------------------------------------------------
 Center     Atomic      Atomic             Coordinates (Angstroms)
 Number     Number       Type             X           Y           Z
 ---------------------------------------------------------------------
      1         12           0       -7.153627    0.606476    0.026724
      2          6           0       -4.818422   -1.951571    0.493414
      3          6           0       -4.748235    2.857151    1.101302
      4          6           0       -9.322923    3.034240   -0.416224
      5          6           0       -9.493885   -1.738831   -0.785303
      6          7           0       -5.068903    0.486411    0.686249
      7          6           0       -4.300634   -0.710689    0.792504
      8          6           0       -2.833715   -0.398993    1.134602
      9          6           0       -2.958555    1.081245    1.598750
     10          6           0       -4.283899    1.560147    1.085229
     11          6           0       -2.827441    1.226359    3.126901
     12          6           0       -1.965181   -0.678486   -0.076676
     13          6           0       -0.505724   -0.355968    0.373443
     14          6           0        0.478868   -0.651950   -0.759496
     15          8           0        0.227583   -1.068796   -1.836573
     16          8           0        1.750929   -0.365130   -0.309249
     17          7           0       -7.084462    2.560293    0.185820
     18          6           0       -6.088771    3.350874    0.796701
     19          6           0       -6.529225    4.778202    0.876088
     20          6           0       -7.785320    4.754824    0.376654
     21          6           0       -8.049234    3.449512    0.025035
     22          6           0       -5.617083    5.852593    1.241345
     23          6           0       -8.676001    5.892472    0.269771
     24          6           0       -8.449158    7.166928    0.900605
     25          7           0       -9.101004    0.670860   -0.564181
     26          6           0       -9.870720    1.762475   -0.705766
     27          6           0      -11.229598    1.407943   -1.215053
     28          6           0      -11.169819    0.006009   -1.332439
     29          6           0       -9.879703   -0.378221   -0.912484
     30          6           0      -12.350066    2.339209   -1.348410
     31          6           0      -12.370042   -0.791520   -1.697902
     32          6           0      -12.319796   -1.102416   -3.205559
     33          7           0       -7.246379   -1.390662   -0.142094
     34          6           0       -8.300100   -2.281057   -0.514751
     35          6           0       -7.864336   -3.633311   -0.419708
     36          6           0       -6.577397   -3.594012    0.017355
     37          6           0       -6.170903   -2.203625    0.126100
     38          6           0       -8.654396   -4.843534   -0.740181
     39          6           0       -5.399247   -4.396279    0.272740
     40          8           0       -5.258103   -5.629660    0.470539
     41          6           0       -4.178591   -3.407582    0.642635
     42          6           0       -3.557286   -3.628782    1.959852
     43          8           0       -3.768153   -2.998975    2.959384
     44          8           0       -2.698191   -4.571362    1.726783
     45          6           0       -1.975729   -4.998924    2.862247
     46          6           0        2.831387   -0.453154   -1.331027
     47          6           0        4.143722   -0.352890   -0.626550
     48          6           0        5.138525    0.451008   -1.046366
     49          6           0        5.035758    1.456222   -2.238110
     50          6           0        6.451242    0.544699   -0.189468
     51          6           0        7.666187   -0.174810   -0.888344
     52          6           0        8.982798   -0.051996   -0.075610
     53          6           0       10.189034   -0.596410   -0.960159
     54          6           0       10.029442   -2.047796   -1.326071
     55          6           0       11.414721   -0.346779    0.069591
     56          6           0       12.860857   -0.498753   -0.592026
     57          6           0       13.972735   -0.168111    0.280236
     58          6           0       15.330892   -0.167746   -0.461990
     59          6           0       15.638385   -1.543013   -0.914967
     60          6           0       16.375526    0.478025    0.593656
     61          6           0       17.708686    0.530368   -0.066740
     62          6           0       18.792553    1.297545    0.753395
     63          6           0       20.201276    1.179040    0.228979
     64          6           0       20.244453    1.887986   -1.177686
     65          6           0       21.287132    1.846242    1.224191
     66          1           0       -3.972225    3.366821    1.528647
     67          1           0       -9.938145    3.955186   -0.646859
     68          1           0      -10.169338   -2.350803   -1.137445
     69          1           0       -2.614900   -1.189364    1.872494
     70          1           0       -2.138012    1.694076    1.214899
     71          1           0       -1.828044    0.828108    3.555456
     72          1           0       -2.927388    2.297093    3.319239
     73          1           0       -3.609679    0.655015    3.643052
     74          1           0       -2.174726   -1.712438   -0.353544
     75          1           0       -2.273811    0.140855   -0.842638
     76          1           0       -0.345517    0.500162    1.026788
     77          1           0        0.062468   -1.064159    1.095784
     78          1           0       -5.967463    6.709203    0.675994
     79          1           0       -5.749810    6.111618    2.205423
     80          1           0       -4.570505    5.555191    1.098426
     81          1           0       -9.438977    5.652724   -0.416339
     82          1           0       -9.200368    7.850154    0.720829
     83          1           0       -7.489692    7.155434    1.657891
     84          1           0      -12.363847    2.898155   -2.264548
     85          1           0      -13.341913    1.824539   -1.494120
     86          1           0      -12.194759    3.036000   -0.494996
     87          1           0      -12.336968   -1.756036   -1.030678
     88          1           0      -13.310361   -0.261920   -1.387723
     89          1           0      -13.393367   -1.526260   -3.678497
     90          1           0      -12.200404   -0.147680   -3.710548
     91          1           0      -11.594858   -1.917419   -3.318589
     92          1           0       -9.135231   -4.971320   -1.687732
     93          1           0       -8.034179   -5.619522   -0.600739
     94          1           0       -9.562614   -4.840016   -0.226198
     95          1           0       -3.439324   -3.487549   -0.025248
     96          1           0       -1.563567   -4.095970    3.265112
     97          1           0       -2.694839   -5.571561    3.765954
     98          1           0       -1.193579   -5.751652    2.533850
     99          1           0        2.754580   -1.264762   -1.635678
    100          1           0        2.555671    0.075652   -2.180707
    101          1           0        4.345687   -0.908649    0.275580
    102          1           0        4.004792    1.530345   -2.560594
    103          1           0        5.740053    2.416825   -1.946716
    104          1           0        5.382202    0.827634   -3.226326
    105          1           0        6.828557    1.717304   -0.212590
    106          1           0        6.327792    0.255001    0.853723
    107          1           0        7.508853   -1.504130   -0.791322
    108          1           0        7.858848    0.222819   -1.964735
    109          1           0        9.120866    1.111937    0.368967
    110          1           0        8.796114   -0.532543    0.764577
    111          1           0       10.371593    0.081032   -1.929286
    112          1           0        9.250837   -2.062537   -1.978457
    113          1           0       10.990056   -2.253414   -1.792356
    114          1           0        9.684629   -2.746608   -0.485230
    115          1           0       11.285017    0.614576    0.644477
    116          1           0       11.302931   -0.959718    0.708460
    117          1           0       12.921141   -1.623376   -0.800391
    118          1           0       13.015817    0.087788   -1.458750
    119          1           0       13.811154    0.786889    0.716227
    120          1           0       14.175583   -0.833419    1.039132
    121          1           0       15.104810    0.326341   -1.295606
    122          1           0       15.658452   -2.115334    0.083226
    123          1           0       14.785955   -1.885060   -1.683871
    124          1           0       16.776932   -1.663017   -1.128135
    125          1           0       16.064443    1.445674    0.907518
    126          1           0       16.468768   -0.040483    1.486030
    127          1           0       18.218392   -0.324520   -0.418635
    128          1           0       17.612231    1.160122   -1.001234
    129          1           0       18.722566    2.383352    0.790227
    130          1           0       18.706687    0.831202    1.883581
    131          1           0       20.585709    0.073707    0.063881
    132          1           0       19.969442    2.881840   -1.033399
    133          1           0       21.183575    1.701478   -1.591373
    134          1           0       19.450232    1.398119   -1.866467
    135          1           0       21.283895    1.300369    2.155171
    136          1           0       22.230050    1.713113    0.616942
    137          1           0       21.248997    3.048491    1.002909
 ---------------------------------------------------------------------

 SCF Done:  E(RCAM-B3LYP) =  -2932.58821677     A.U. after   18 cycles

 Excitation energies and oscillator strengths:

 Excited State   1:      Singlet-A      2.0279 eV  611.38 nm  f=0.2397  <S**2>=0.000
     240 -> 243       -0.24314
     241 -> 242        0.65017
 This state for optimization and/or second-order correction.
 Total Energy, E(TD-HF/TD-DFT) =  -2932.51369117
 Copying the excited state density for this state as the 1-particle RhoCI density.

 The electronic state is 1-A.
 Alpha  occ. eigenvalues --  -46.83558 -19.27695 -19.24646 -19.21215 -19.21091
 Alpha  occ. eigenvalues --  -19.20455 -14.40925 -14.39630 -14.39244 -14.39001
 Alpha  occ. eigenvalues --  -10.38853 -10.38828 -10.35814 -10.33268 -10.30880
 Alpha  occ. eigenvalues --  -10.30546 -10.30230 -10.29574 -10.29093 -10.28809
 Alpha  occ. eigenvalues --  -10.28689 -10.28613 -10.28559 -10.28456 -10.28341
 Alpha  occ. eigenvalues --  -10.28260 -10.28253 -10.28046 -10.28040 -10.27979
 Alpha  occ. eigenvalues --  -10.27876 -10.27812 -10.27759 -10.27507 -10.27316
 Alpha  occ. eigenvalues --  -10.27230 -10.27142 -10.27043 -10.26693 -10.26687
 Alpha  occ. eigenvalues --  -10.26574 -10.26514 -10.26355 -10.26274 -10.26200
 Alpha  occ. eigenvalues --  -10.26090 -10.25933 -10.25892 -10.25862 -10.25858
 Alpha  occ. eigenvalues --  -10.25699 -10.25658 -10.25551 -10.25421 -10.25136
 Alpha  occ. eigenvalues --  -10.24983 -10.24567 -10.24500 -10.24444 -10.24417
 Alpha  occ. eigenvalues --  -10.24341 -10.24119 -10.24071 -10.23337 -10.22332
 Alpha  occ. eigenvalues --   -3.12752  -1.87444  -1.86998  -1.86946  -1.21364
 Alpha  occ. eigenvalues --   -1.17302  -1.11017  -1.09176  -1.08862  -1.04821
 Alpha  occ. eigenvalues --   -1.03680  -1.02578  -1.01273  -0.91781  -0.91272
 Alpha  occ. eigenvalues --   -0.90393  -0.90216  -0.89689  -0.89154  -0.89058
 Alpha  occ. eigenvalues --   -0.88501  -0.88235  -0.87951  -0.87456  -0.86028
 Alpha  occ. eigenvalues --   -0.85223  -0.84446  -0.84117  -0.83094  -0.82644
 Alpha  occ. eigenvalues --   -0.81851  -0.81296  -0.80567  -0.80119  -0.79379
 Alpha  occ. eigenvalues --   -0.78547  -0.77534  -0.76158  -0.76068  -0.75477
 Alpha  occ. eigenvalues --   -0.75244  -0.75072  -0.74682  -0.73368  -0.72973
 Alpha  occ. eigenvalues --   -0.71630  -0.70376  -0.69224  -0.69059  -0.68765
 Alpha  occ. eigenvalues --   -0.67745  -0.65937  -0.65707  -0.64769  -0.64577
 Alpha  occ. eigenvalues --   -0.64093  -0.64085  -0.63296  -0.62937  -0.62358
 Alpha  occ. eigenvalues --   -0.61058  -0.60958  -0.60322  -0.59808  -0.59327
 Alpha  occ. eigenvalues --   -0.58995  -0.58579  -0.58135  -0.57668  -0.56633
 Alpha  occ. eigenvalues --   -0.56305  -0.56114  -0.55578  -0.55127  -0.54986
 Alpha  occ. eigenvalues --   -0.54696  -0.54193  -0.53729  -0.53623  -0.53430
 Alpha  occ. eigenvalues --   -0.52718  -0.52603  -0.52161  -0.51875  -0.51682
 Alpha  occ. eigenvalues --   -0.51362  -0.51290  -0.50927  -0.50866  -0.50605
 Alpha  occ. eigenvalues --   -0.50500  -0.50287  -0.50000  -0.49963  -0.49823
 Alpha  occ. eigenvalues --   -0.49591  -0.49528  -0.49075  -0.48856  -0.48650
 Alpha  occ. eigenvalues --   -0.48345  -0.48216  -0.47837  -0.47715  -0.47151
 Alpha  occ. eigenvalues --   -0.47088  -0.46929  -0.46857  -0.46208  -0.45904
 Alpha  occ. eigenvalues --   -0.45846  -0.45681  -0.45496  -0.45385  -0.45136
 Alpha  occ. eigenvalues --   -0.44873  -0.44718  -0.44693  -0.44523  -0.43980
 Alpha  occ. eigenvalues --   -0.43769  -0.43603  -0.43454  -0.43335  -0.43094
 Alpha  occ. eigenvalues --   -0.42972  -0.42834  -0.42652  -0.42634  -0.42468
 Alpha  occ. eigenvalues --   -0.42281  -0.42168  -0.42105  -0.41683  -0.41474
 Alpha  occ. eigenvalues --   -0.41140  -0.40992  -0.40776  -0.40396  -0.40246
 Alpha  occ. eigenvalues --   -0.40115  -0.39846  -0.39818  -0.39444  -0.39301
 Alpha  occ. eigenvalues --   -0.39232  -0.38874  -0.38533  -0.38319  -0.38274
 Alpha  occ. eigenvalues --   -0.37820  -0.37482  -0.37128  -0.37024  -0.36629
 Alpha  occ. eigenvalues --   -0.36409  -0.36131  -0.35997  -0.35877  -0.35737
 Alpha  occ. eigenvalues --   -0.35564  -0.35218  -0.34222  -0.34139  -0.33929
 Alpha  occ. eigenvalues --   -0.33380  -0.31880  -0.31726  -0.31070  -0.30229
 Alpha  occ. eigenvalues --   -0.29815  -0.29467  -0.27805  -0.27342  -0.22940
 Alpha  occ. eigenvalues --   -0.21043
 Alpha virt. eigenvalues --   -0.06422  -0.03087   0.01142   0.03246   0.06042
 Alpha virt. eigenvalues --    0.06381   0.06477   0.06991   0.07088   0.07825
 Alpha virt. eigenvalues --    0.08436   0.10978   0.11194   0.11455   0.11684

 Mulliken charges:
               1
     1  Mg   0.818076
     2  C    0.021025
     3  C   -0.185995
     4  C   -0.213139
     5  C   -0.152336
     6  N   -0.637140
     7  C    0.281155
     8  C   -0.153117
     9  C   -0.165704
    10  C    0.332379
    11  C   -0.298238
    12  C   -0.146247
    13  C   -0.282260
    14  C    0.613022
    15  O   -0.459566
    16  O   -0.529871
    17  N   -0.702497
    18  C    0.249574
    19  C    0.008838
    20  C    0.050279
    21  C    0.347213
    22  C   -0.394816
    23  C   -0.054817
    24  C   -0.260756
    25  N   -0.684809
    26  C    0.284353
    27  C    0.040108
    28  C    0.025285
    29  C    0.296025
    30  C   -0.380877
    31  C   -0.254170
    32  C   -0.283676
    33  N   -0.734247
    34  C    0.275381
    35  C    0.047680
    36  C    0.013464
    37  C    0.298688
    38  C   -0.369480
    39  C    0.349534
    40  O   -0.477636
    41  C   -0.298492
    42  C    0.637855
    43  O   -0.476514
    44  O   -0.406113
    45  C   -0.085455
    46  C    0.065691
    47  C   -0.149037
    48  C    0.123073
    49  C   -0.346191
    50  C   -0.225525
    51  C   -0.152799
    52  C   -0.155050
    53  C   -0.073977
    54  C   -0.304892
    55  C   -0.152215
    56  C   -0.200751
    57  C   -0.156367
    58  C   -0.071197
    59  C   -0.301073
    60  C   -0.178071
    61  C   -0.182369
    62  C   -0.142624
    63  C   -0.078701
    64  C   -0.312836
    65  C   -0.306924
    66  H    0.057768
    67  H    0.067163
    68  H    0.057033
    69  H    0.121244
    70  H    0.104134
    71  H    0.098319
    72  H    0.104808
    73  H    0.133411
    74  H    0.122856
    75  H    0.117873
    76  H    0.147027
    77  H    0.126553
    78  H    0.131689
    79  H    0.139726
    80  H    0.122106
    81  H    0.089463
    82  H    0.114715
    83  H    0.105075
    84  H    0.126542
    85  H    0.108667
    86  H    0.126189
    87  H    0.089025
    88  H    0.106672
    89  H    0.066721
    90  H    0.122098
    91  H    0.117938
    92  H    0.127983
    93  H    0.150539
    94  H    0.132106
    95  H    0.157231
    96  H    0.134699
    97  H    0.104261
    98  H    0.128087
    99  H    0.121609
   100  H    0.117769
   101  H    0.096164
   102  H    0.124987
   103  H    0.110470
   104  H    0.101205
   105  H    0.071558
   106  H    0.107130
   107  H    0.042518
   108  H    0.094983
   109  H    0.050163
   110  H    0.110085
   111  H    0.071205
   112  H    0.124045
   113  H    0.109026
   114  H    0.094805
   115  H    0.073593
   116  H    0.099984
   117  H    0.085464
   118  H    0.090759
   119  H    0.083794
   120  H    0.088953
   121  H    0.087579
   122  H    0.083012
   123  H    0.100262
   124  H    0.094452
   125  H    0.103299
   126  H    0.098709
   127  H    0.104627
   128  H    0.087667
   129  H    0.088825
   130  H    0.046904
   131  H    0.062688
   132  H    0.108826
   133  H    0.108265
   134  H    0.093219
   135  H    0.120012
   136  H    0.097110
   137  H    0.084423
 Sum of Mulliken charges =  -0.00000

 Dipole moment (field-independent basis, Debye):
    X=              1.7493    Y=              3.5200    Z=              0.1422  Tot=              3.9332
 Quadrupole moment (field-independent basis, Debye-Ang):
   XX=           -350.9852   YY=           -395.3666   ZZ=           -398.4219
   XY=            -18.7419   XZ=             13.8572   YZ=             -0.8089

 Normal termination of Gaussian 16 at Sat Jun 29 08:53:49 2019.
