 Gaussian 16, Revision A.03,
 Gaussian 16:  ES64L-G16RevA.03 25-Dec-2016

 ----------------------------------------------------------------------
 # td=(NStates=1) iop(3/107=0140000000,3/108=0140000000) CAM-B3LYP/6-31
 G(d,p)
 ----------------------------------------------------------------------

 --
 TD
 --
 Symbolic Z-matrix:
 Charge =  0 Multiplicity = 1

                         Standard orientation:
 ---------------------------------------------------------------------
 Center     Atomic      Atomic             Coordinates (Angstroms)
 Number     Number       Type             X           Y           Z
 ---------------------------------------------------------------------
      1         12           0       -7.127224    0.563664    0.167881
      2          6           0       -4.778627   -1.881798    0.545619
      3          6           0       -4.849640    2.894897    1.193569
      4          6           0       -9.496469    3.092800   -0.377877
      5          6           0       -9.355666   -1.758204   -0.978278
      6          7           0       -5.106809    0.444526    0.703696
      7          6           0       -4.304337   -0.625096    0.832522
      8          6           0       -2.986068   -0.299543    1.336848
      9          6           0       -3.123364    1.111707    1.880291
     10          6           0       -4.460228    1.550767    1.165198
     11          6           0       -3.051592    1.472504    3.348759
     12          6           0       -1.970991   -0.558142    0.286358
     13          6           0       -0.501488   -0.571964    0.706345
     14          6           0        0.400678   -0.934561   -0.472582
     15          8           0        0.150146   -1.204400   -1.630535
     16          8           0        1.671210   -0.585561   -0.164770
     17          7           0       -7.108609    2.584160    0.391444
     18          6           0       -6.055977    3.416962    0.769785
     19          6           0       -6.365106    4.814926    0.666409
     20          6           0       -7.757168    4.823916    0.300303
     21          6           0       -8.201739    3.452992    0.079308
     22          6           0       -5.495794    5.937118    1.032423
     23          6           0       -8.544812    6.065890    0.143923
     24          6           0       -8.461041    7.252679    0.619219
     25          7           0       -9.012946    0.619684   -0.571649
     26          6           0       -9.817779    1.805084   -0.752052
     27          6           0      -11.256775    1.351089   -1.298418
     28          6           0      -11.131856    0.059217   -1.364868
     29          6           0       -9.802769   -0.455615   -1.086453
     30          6           0      -12.290274    2.385230   -1.533771
     31          6           0      -12.243010   -0.844876   -1.863115
     32          6           0      -12.076242   -1.291276   -3.320647
     33          7           0       -7.192722   -1.333668   -0.139120
     34          6           0       -8.149067   -2.219813   -0.452645
     35          6           0       -7.705806   -3.637075   -0.394459
     36          6           0       -6.406814   -3.526331   -0.062368
     37          6           0       -6.088417   -2.098689    0.132040
     38          6           0       -8.548164   -4.728061   -0.862275
     39          6           0       -5.337721   -4.301382    0.313130
     40          8           0       -5.194670   -5.528825    0.223902
     41          6           0       -4.087876   -3.186099    0.606345
     42          6           0       -3.527486   -3.604490    1.945866
     43          8           0       -3.716925   -3.102028    3.042354
     44          8           0       -2.712054   -4.712502    1.897551
     45          6           0       -2.242705   -5.279511    3.045285
     46          6           0        2.801564   -0.576241   -1.195639
     47          6           0        4.076032   -0.452631   -0.498123
     48          6           0        5.112187    0.286949   -0.933780
     49          6           0        5.098612    1.150567   -2.141478
     50          6           0        6.392328    0.173487   -0.173101
     51          6           0        7.598024   -0.080816   -1.005481
     52          6           0        8.893698   -0.166933   -0.188409
     53          6           0       10.186249   -0.499163   -1.000458
     54          6           0       10.221102   -1.994660   -1.445158
     55          6           0       11.485352   -0.242956   -0.172460
     56          6           0       12.791446   -0.488226   -0.985554
     57          6           0       13.871164   -0.291368   -0.030977
     58          6           0       15.366731   -0.242312   -0.552658
     59          6           0       15.792372   -1.670232   -0.948091
     60          6           0       16.352131    0.486065    0.389245
     61          6           0       17.730738    0.546322   -0.156507
     62          6           0       18.631683    1.358182    0.822880
     63          6           0       20.161216    1.383618    0.398537
     64          6           0       20.411310    1.991423   -1.088050
     65          6           0       20.966391    2.226388    1.354304
     66          1           0       -4.022914    3.589829    1.661708
     67          1           0      -10.155376    3.774222   -0.518775
     68          1           0      -10.137500   -2.442975   -1.203925
     69          1           0       -2.630348   -0.990405    2.069802
     70          1           0       -2.266188    1.697582    1.386277
     71          1           0       -2.120078    1.114055    3.825401
     72          1           0       -2.976942    2.607108    3.519730
     73          1           0       -3.828193    1.008732    4.010731
     74          1           0       -2.459578   -1.551430   -0.206020
     75          1           0       -2.040828    0.355714   -0.506186
     76          1           0       -0.191029    0.303867    1.157876
     77          1           0       -0.279204   -1.408978    1.355082
     78          1           0       -5.764511    6.581425    0.096422
     79          1           0       -5.605611    6.475871    1.879897
     80          1           0       -4.448192    5.591161    0.879759
     81          1           0       -9.231255    6.083222   -0.576461
     82          1           0       -9.245271    7.994886    0.290434
     83          1           0       -7.737126    7.704526    1.293128
     84          1           0      -12.059030    3.038164   -2.124836
     85          1           0      -13.336310    1.804516   -1.739787
     86          1           0      -12.657470    3.004113   -0.757063
     87          1           0      -12.300189   -1.717495   -1.171105
     88          1           0      -13.139116   -0.529357   -1.897944
     89          1           0      -12.929604   -1.775120   -3.943136
     90          1           0      -11.708717   -0.350375   -3.957492
     91          1           0      -11.204038   -1.931069   -3.582392
     92          1           0       -9.026362   -4.432510   -1.986304
     93          1           0       -7.977055   -5.730762   -0.933552
     94          1           0       -9.596373   -4.917156   -0.433616
     95          1           0       -3.232607   -3.154894   -0.131492
     96          1           0       -2.023073   -4.492218    3.937318
     97          1           0       -3.051892   -6.070966    3.413194
     98          1           0       -1.180904   -5.771280    2.774170
     99          1           0        2.666240   -1.420525   -1.931474
    100          1           0        2.577099    0.260663   -1.921491
    101          1           0        4.127667   -0.942003    0.461715
    102          1           0        3.985758    1.471624   -2.478079
    103          1           0        5.717169    2.172527   -1.839269
    104          1           0        5.502948    0.611100   -3.010221
    105          1           0        6.485775    1.191777    0.477385
    106          1           0        6.118640   -0.475757    0.746036
    107          1           0        7.545384   -1.076729   -1.338666
    108          1           0        7.585653    0.671746   -1.812044
    109          1           0        8.936058    0.859229    0.347264
    110          1           0        8.882192   -0.719636    0.769853
    111          1           0       10.171897   -0.074838   -1.972924
    112          1           0        9.353322   -2.272733   -2.066826
    113          1           0       10.912481   -2.347480   -2.167131
    114          1           0        9.951125   -2.818792   -0.660395
    115          1           0       11.493564    0.876977    0.139406
    116          1           0       11.446083   -0.881366    0.748463
    117          1           0       13.054474   -1.548699   -1.193652
    118          1           0       12.768365    0.206590   -1.752149
    119          1           0       13.799019    0.805672    0.292148
    120          1           0       13.861119   -0.986239    0.940096
    121          1           0       15.453933    0.298370   -1.548906
    122          1           0       15.814924   -2.139127    0.028964
    123          1           0       15.170269   -2.181967   -1.612400
    124          1           0       16.754811   -1.681037   -1.524662
    125          1           0       15.935305    1.347002    0.841407
    126          1           0       16.307702   -0.120576    1.307101
    127          1           0       18.236758   -0.223608   -0.371525
    128          1           0       17.682891    1.079750   -1.005623
    129          1           0       18.173387    2.200561    0.919384
    130          1           0       18.465535    0.997445    1.713641
    131          1           0       20.307138    0.127908    0.593030
    132          1           0       20.085684    3.030671   -1.060949
    133          1           0       21.420642    1.958959   -1.394441
    134          1           0       19.913204    1.539907   -1.877343
    135          1           0       20.824296    1.837402    2.566437
    136          1           0       22.050889    2.157650    1.294793
    137          1           0       20.707276    3.348917    1.346361
 ---------------------------------------------------------------------

 SCF Done:  E(RCAM-B3LYP) =  -2933.44832893     A.U. after   16 cycles

 Excitation energies and oscillator strengths:

 Excited State   1:      Singlet-A      1.9102 eV  649.05 nm  f=0.3109  <S**2>=0.000
     240 -> 243       -0.20851
     241 -> 242        0.67522
 This state for optimization and/or second-order correction.
 Total Energy, E(TD-HF/TD-DFT) =  -2933.37812895
 Copying the excited state density for this state as the 1-particle RhoCI density.

 The electronic state is 1-A.
 Alpha  occ. eigenvalues --  -46.78806 -19.20867 -19.20318 -19.16607 -19.16037
 Alpha  occ. eigenvalues --  -19.15720 -14.38075 -14.35948 -14.35785 -14.35286
 Alpha  occ. eigenvalues --  -10.34407 -10.33907 -10.30722 -10.28091 -10.27894
 Alpha  occ. eigenvalues --  -10.26434 -10.25692 -10.25651 -10.25546 -10.25218
 Alpha  occ. eigenvalues --  -10.25187 -10.25122 -10.25027 -10.24800 -10.24329
 Alpha  occ. eigenvalues --  -10.24285 -10.24252 -10.24248 -10.24118 -10.23835
 Alpha  occ. eigenvalues --  -10.23307 -10.22980 -10.22877 -10.22797 -10.22731
 Alpha  occ. eigenvalues --  -10.22680 -10.22624 -10.22538 -10.22430 -10.22198
 Alpha  occ. eigenvalues --  -10.22181 -10.22115 -10.22086 -10.22021 -10.21815
 Alpha  occ. eigenvalues --  -10.21795 -10.21791 -10.21735 -10.21671 -10.21471
 Alpha  occ. eigenvalues --  -10.21299 -10.21293 -10.21284 -10.21280 -10.21250
 Alpha  occ. eigenvalues --  -10.21229 -10.21102 -10.20991 -10.20273 -10.20104
 Alpha  occ. eigenvalues --  -10.19936 -10.19816 -10.19210 -10.17487 -10.17439
 Alpha  occ. eigenvalues --   -3.07770  -1.82673  -1.82256  -1.82206  -1.12797
 Alpha  occ. eigenvalues --   -1.11043  -1.05089  -1.03521  -1.01877  -1.00626
 Alpha  occ. eigenvalues --   -0.99471  -0.96202  -0.94863  -0.88483  -0.86881
 Alpha  occ. eigenvalues --   -0.86155  -0.85594  -0.84536  -0.84337  -0.84167
 Alpha  occ. eigenvalues --   -0.83867  -0.83506  -0.82685  -0.82280  -0.81273
 Alpha  occ. eigenvalues --   -0.80574  -0.80093  -0.79313  -0.79032  -0.78638
 Alpha  occ. eigenvalues --   -0.77044  -0.76518  -0.76346  -0.75595  -0.74536
 Alpha  occ. eigenvalues --   -0.74290  -0.72961  -0.71452  -0.71383  -0.71223
 Alpha  occ. eigenvalues --   -0.70455  -0.70403  -0.69832  -0.68466  -0.68090
 Alpha  occ. eigenvalues --   -0.66934  -0.66198  -0.65446  -0.65378  -0.65186
 Alpha  occ. eigenvalues --   -0.62850  -0.62366  -0.61328  -0.61100  -0.60482
 Alpha  occ. eigenvalues --   -0.59922  -0.59612  -0.58997  -0.58272  -0.57852
 Alpha  occ. eigenvalues --   -0.57269  -0.56959  -0.56587  -0.56310  -0.55360
 Alpha  occ. eigenvalues --   -0.54611  -0.54436  -0.54370  -0.53207  -0.52620
 Alpha  occ. eigenvalues --   -0.52486  -0.51607  -0.51579  -0.51257  -0.51031
 Alpha  occ. eigenvalues --   -0.50838  -0.50780  -0.49774  -0.49539  -0.49477
 Alpha  occ. eigenvalues --   -0.49276  -0.48909  -0.48446  -0.48291  -0.48165
 Alpha  occ. eigenvalues --   -0.48036  -0.47522  -0.47478  -0.47294  -0.47001
 Alpha  occ. eigenvalues --   -0.46788  -0.46749  -0.46392  -0.46101  -0.46040
 Alpha  occ. eigenvalues --   -0.45953  -0.45852  -0.45391  -0.45196  -0.44931
 Alpha  occ. eigenvalues --   -0.44814  -0.44573  -0.44319  -0.43897  -0.43644
 Alpha  occ. eigenvalues --   -0.43380  -0.43234  -0.43112  -0.42855  -0.42429
 Alpha  occ. eigenvalues --   -0.42281  -0.42091  -0.41906  -0.41844  -0.41531
 Alpha  occ. eigenvalues --   -0.41342  -0.41010  -0.40966  -0.40818  -0.40756
 Alpha  occ. eigenvalues --   -0.40656  -0.40376  -0.40279  -0.40065  -0.39878
 Alpha  occ. eigenvalues --   -0.39800  -0.39647  -0.39493  -0.39204  -0.39142
 Alpha  occ. eigenvalues --   -0.39027  -0.38795  -0.38614  -0.38441  -0.38060
 Alpha  occ. eigenvalues --   -0.37876  -0.37816  -0.37739  -0.36977  -0.36685
 Alpha  occ. eigenvalues --   -0.36342  -0.36274  -0.36105  -0.36063  -0.35914
 Alpha  occ. eigenvalues --   -0.35597  -0.35198  -0.34939  -0.34888  -0.34570
 Alpha  occ. eigenvalues --   -0.34486  -0.34295  -0.34172  -0.33793  -0.33706
 Alpha  occ. eigenvalues --   -0.33228  -0.32796  -0.32393  -0.32275  -0.32072
 Alpha  occ. eigenvalues --   -0.31710  -0.31665  -0.31089  -0.30756  -0.30304
 Alpha  occ. eigenvalues --   -0.29986  -0.29649  -0.29318  -0.28742  -0.28005
 Alpha  occ. eigenvalues --   -0.27060  -0.26901  -0.26444  -0.24828  -0.22107
 Alpha  occ. eigenvalues --   -0.19734
 Alpha virt. eigenvalues --   -0.07620  -0.03610  -0.01302   0.02859   0.03675
 Alpha virt. eigenvalues --    0.03828   0.04417   0.04732   0.04979   0.06198
 Alpha virt. eigenvalues --    0.06407   0.08296   0.09040   0.09881   0.10016

 Mulliken charges:
               1
     1  Mg   0.806505
     2  C    0.108229
     3  C   -0.206295
     4  C   -0.117824
     5  C   -0.192654
     6  N   -0.651808
     7  C    0.351040
     8  C   -0.131689
     9  C   -0.134289
    10  C    0.329193
    11  C   -0.311538
    12  C   -0.162037
    13  C   -0.255773
    14  C    0.583605
    15  O   -0.470059
    16  O   -0.498476
    17  N   -0.717674
    18  C    0.331174
    19  C    0.033746
    20  C   -0.021305
    21  C    0.307971
    22  C   -0.367913
    23  C   -0.056762
    24  C   -0.253380
    25  N   -0.670115
    26  C    0.245792
    27  C    0.072963
    28  C   -0.005260
    29  C    0.310092
    30  C   -0.362359
    31  C   -0.206012
    32  C   -0.326733
    33  N   -0.734161
    34  C    0.272720
    35  C    0.107192
    36  C    0.063443
    37  C    0.291663
    38  C   -0.407624
    39  C    0.327463
    40  O   -0.461704
    41  C   -0.379699
    42  C    0.604942
    43  O   -0.472648
    44  O   -0.420628
    45  C   -0.075549
    46  C    0.005502
    47  C   -0.120767
    48  C    0.157067
    49  C   -0.369850
    50  C   -0.228925
    51  C   -0.166355
    52  C   -0.184231
    53  C   -0.051823
    54  C   -0.332333
    55  C   -0.164221
    56  C   -0.150929
    57  C   -0.174606
    58  C   -0.075919
    59  C   -0.308806
    60  C   -0.181916
    61  C   -0.159740
    62  C   -0.177287
    63  C   -0.041407
    64  C   -0.328073
    65  C   -0.289042
    66  H    0.080731
    67  H    0.052671
    68  H    0.074810
    69  H    0.124633
    70  H    0.088556
    71  H    0.108933
    72  H    0.104087
    73  H    0.125070
    74  H    0.093409
    75  H    0.088416
    76  H    0.149644
    77  H    0.140499
    78  H    0.119967
    79  H    0.140403
    80  H    0.108497
    81  H    0.083790
    82  H    0.087122
    83  H    0.093756
    84  H    0.136025
    85  H    0.093296
    86  H    0.130309
    87  H    0.095038
    88  H    0.107985
    89  H    0.098801
    90  H    0.089945
    91  H    0.107309
    92  H    0.102508
    93  H    0.143575
    94  H    0.131431
    95  H    0.162508
    96  H    0.109176
    97  H    0.112656
    98  H    0.101897
    99  H    0.139228
   100  H    0.111756
   101  H    0.096454
   102  H    0.098507
   103  H    0.097891
   104  H    0.137471
   105  H    0.070368
   106  H    0.090571
   107  H    0.118553
   108  H    0.105110
   109  H    0.070511
   110  H    0.096799
   111  H    0.089754
   112  H    0.087039
   113  H    0.114577
   114  H    0.084206
   115  H    0.079336
   116  H    0.090836
   117  H    0.101760
   118  H    0.103943
   119  H    0.067077
   120  H    0.072139
   121  H    0.062170
   122  H    0.097509
   123  H    0.106349
   124  H    0.090907
   125  H    0.095540
   126  H    0.076659
   127  H    0.097218
   128  H    0.100129
   129  H    0.088383
   130  H    0.096343
   131  H    0.053857
   132  H    0.107109
   133  H    0.110924
   134  H    0.110670
   135  H    0.054811
   136  H    0.109489
   137  H    0.098488
 Sum of Mulliken charges =  -0.00000

 Dipole moment (field-independent basis, Debye):
    X=              0.7574    Y=              5.2612    Z=             -0.4052  Tot=              5.3309
 Quadrupole moment (field-independent basis, Debye-Ang):
   XX=           -331.7523   YY=           -396.9173   ZZ=           -396.8442
   XY=            -16.3053   XZ=              1.6266   YZ=              0.6687

 Normal termination of Gaussian 16 at Fri Sep  6 20:59:32 2019.
