 Gaussian 16, Revision A.03,
 Gaussian 16:  ES64L-G16RevA.03 25-Dec-2016

 ----------------------------------------------------------------------
 # td=(NStates=1) iop(3/107=0140000000,3/108=0140000000) CAM-B3LYP/6-31
 G(d,p)
 ----------------------------------------------------------------------

 --
 TD
 --
 Symbolic Z-matrix:
 Charge =  0 Multiplicity = 1

                         Standard orientation:
 ---------------------------------------------------------------------
 Center     Atomic      Atomic             Coordinates (Angstroms)
 Number     Number       Type             X           Y           Z
 ---------------------------------------------------------------------
      1         12           0       -7.131384    0.638523    0.152632
      2          6           0       -4.868358   -1.952039    0.478632
      3          6           0       -4.727881    2.765898    1.180880
      4          6           0       -9.382077    3.128899   -0.230819
      5          6           0       -9.572340   -1.745075   -0.857432
      6          7           0       -5.125202    0.464857    0.695146
      7          6           0       -4.343945   -0.779534    0.788663
      8          6           0       -2.881151   -0.510025    1.287317
      9          6           0       -2.999307    0.951145    1.844112
     10          6           0       -4.376683    1.534720    1.211710
     11          6           0       -3.063750    0.978734    3.399012
     12          6           0       -2.000733   -0.616845    0.105324
     13          6           0       -0.534380   -0.470466    0.482543
     14          6           0        0.492004   -0.679528   -0.716271
     15          8           0        0.159805   -0.881862   -1.807390
     16          8           0        1.740686   -0.482384   -0.211174
     17          7           0       -7.067423    2.605954    0.346799
     18          6           0       -5.967099    3.262816    0.730541
     19          6           0       -6.239221    4.741718    0.755801
     20          6           0       -7.608917    4.931732    0.404261
     21          6           0       -8.091364    3.521105    0.135776
     22          6           0       -5.215470    5.827939    1.171555
     23          6           0       -8.442203    6.031707    0.191074
     24          6           0       -8.250533    7.238875    0.671145
     25          7           0       -9.036511    0.700872   -0.565974
     26          6           0       -9.837326    1.913826   -0.673988
     27          6           0      -11.142145    1.543929   -1.199043
     28          6           0      -11.207181    0.212952   -1.273866
     29          6           0       -9.860131   -0.322993   -0.847754
     30          6           0      -12.220883    2.584130   -1.319676
     31          6           0      -12.290888   -0.628250   -1.848678
     32          6           0      -12.172038   -0.874963   -3.326781
     33          7           0       -7.168791   -1.360205   -0.144300
     34          6           0       -8.225066   -2.206386   -0.531725
     35          6           0       -7.823589   -3.568473   -0.539971
     36          6           0       -6.450644   -3.613275   -0.167838
     37          6           0       -6.150470   -2.178651    0.098554
     38          6           0       -8.634488   -4.709910   -0.876130
     39          6           0       -5.333220   -4.390199    0.212620
     40          8           0       -5.140462   -5.563973    0.050406
     41          6           0       -4.141813   -3.346180    0.571022
     42          6           0       -3.491594   -3.741308    1.885337
     43          8           0       -3.658814   -3.245361    2.928841
     44          8           0       -2.686515   -4.798549    1.690993
     45          6           0       -2.121881   -5.433920    2.836568
     46          6           0        2.696023   -0.755558   -1.175433
     47          6           0        3.965914   -0.518432   -0.490647
     48          6           0        4.977643    0.288664   -0.928865
     49          6           0        4.932259    1.083226   -2.227103
     50          6           0        6.356983    0.309774   -0.193401
     51          6           0        7.580800   -0.096871   -1.051966
     52          6           0        8.884219   -0.183703   -0.213143
     53          6           0       10.113450   -0.612628   -0.974655
     54          6           0       10.100178   -2.001967   -1.249901
     55          6           0       11.305503   -0.256903   -0.094282
     56          6           0       12.762633   -0.568152   -0.623290
     57          6           0       13.859211   -0.041053    0.149977
     58          6           0       15.281656   -0.243960   -0.384578
     59          6           0       15.629416   -1.778852   -0.588110
     60          6           0       16.445208    0.496149    0.369413
     61          6           0       17.709634    0.691491   -0.211628
     62          6           0       18.710723    1.425770    0.717264
     63          6           0       20.156626    1.392135    0.246509
     64          6           0       20.086536    2.111057   -1.108333
     65          6           0       21.151328    2.084526    1.177257
     66          1           0       -4.085111    3.501218    1.644140
     67          1           0      -10.142721    4.017018   -0.337161
     68          1           0      -10.350936   -2.444990   -1.086361
     69          1           0       -2.436411   -1.142658    2.046461
     70          1           0       -2.232123    1.603811    1.550951
     71          1           0       -1.941014    0.827439    3.611993
     72          1           0       -3.330726    1.917147    3.842064
     73          1           0       -3.726451    0.285764    3.853641
     74          1           0       -2.464176   -1.467771   -0.432573
     75          1           0       -2.467167    0.119622   -0.627601
     76          1           0       -0.358380    0.507407    0.787204
     77          1           0       -0.165145   -1.068390    1.387829
     78          1           0       -5.466231    6.843399    0.668760
     79          1           0       -5.428847    6.101962    2.330689
     80          1           0       -4.089530    5.404458    1.215964
     81          1           0       -9.242523    5.979393   -0.475643
     82          1           0       -8.902780    7.864366    0.526681
     83          1           0       -7.862660    7.390379    1.798798
     84          1           0      -11.797290    3.397011   -1.989440
     85          1           0      -13.227792    2.051589   -1.736132
     86          1           0      -12.400726    2.898379   -0.196085
     87          1           0      -12.328892   -1.496752   -1.272629
     88          1           0      -13.337689    0.005889   -1.631602
     89          1           0      -12.865159   -1.641411   -3.769785
     90          1           0      -12.143181    0.102258   -3.799327
     91          1           0      -11.106881   -1.258807   -3.518051
     92          1           0       -9.091763   -4.762373   -1.734956
     93          1           0       -8.094052   -5.639127   -0.801140
     94          1           0       -9.437889   -4.828580   -0.224568
     95          1           0       -3.206278   -3.431864   -0.167919
     96          1           0       -1.366510   -4.723219    3.192170
     97          1           0       -3.026464   -5.544267    3.498371
     98          1           0       -1.553083   -6.307595    2.444843
     99          1           0        2.656854   -1.757347   -1.498436
    100          1           0        2.672181   -0.159032   -2.203217
    101          1           0        4.344604   -0.828872    0.467266
    102          1           0        4.005453    1.156194   -2.498155
    103          1           0        5.497851    2.018678   -2.259874
    104          1           0        5.423088    0.516149   -3.165932
    105          1           0        6.491104    1.348984    0.111741
    106          1           0        6.190424   -0.345381    0.735956
    107          1           0        7.456107   -1.143436   -1.420632
    108          1           0        7.781982    0.518186   -1.920956
    109          1           0        8.870833    0.813425    0.057586
    110          1           0        8.715988   -0.956288    0.643112
    111          1           0       10.225518    0.058089   -1.763540
    112          1           0        9.232672   -2.154217   -1.879851
    113          1           0       10.885228   -2.310519   -2.019339
    114          1           0       10.124739   -2.543342   -0.385388
    115          1           0       11.326095    0.791110    0.203042
    116          1           0       11.183938   -0.785777    0.885611
    117          1           0       12.986338   -1.719622   -0.634218
    118          1           0       12.783715   -0.068126   -1.546016
    119          1           0       13.775670    1.061283    0.473772
    120          1           0       13.758039   -0.613975    1.086340
    121          1           0       15.312327    0.320759   -1.335720
    122          1           0       15.736240   -2.216145    0.445858
    123          1           0       14.861127   -2.194388   -1.188201
    124          1           0       16.650140   -1.777236   -1.063729
    125          1           0       16.054274    1.693072    0.394998
    126          1           0       16.508259    0.098432    1.290932
    127          1           0       18.240024   -0.362158   -0.410543
    128          1           0       17.682421    1.104254   -1.212963
    129          1           0       18.186554    2.236914    0.860290
    130          1           0       18.681358    0.879131    1.739078
    131          1           0       20.568111    0.535169    0.096600
    132          1           0       19.569666    3.222688   -1.306855
    133          1           0       21.235218    2.098729   -1.396727
    134          1           0       19.573295    1.707697   -1.878340
    135          1           0       21.281985    1.477748    2.141365
    136          1           0       22.309802    1.956564    0.805154
    137          1           0       20.706758    3.135404    1.518271
 ---------------------------------------------------------------------

 SCF Done:  E(RCAM-B3LYP) =  -2933.48719253     A.U. after   16 cycles

 Excitation energies and oscillator strengths:

 Excited State   1:      Singlet-A      1.9368 eV  640.14 nm  f=0.3289  <S**2>=0.000
     240 -> 243       -0.18597
     241 -> 242        0.68037
 This state for optimization and/or second-order correction.
 Total Energy, E(TD-HF/TD-DFT) =  -2933.41601526
 Copying the excited state density for this state as the 1-particle RhoCI density.

 The electronic state is 1-A.
 Alpha  occ. eigenvalues --  -46.78869 -19.22768 -19.20330 -19.18056 -19.15926
 Alpha  occ. eigenvalues --  -19.15403 -14.37082 -14.35993 -14.35762 -14.35651
 Alpha  occ. eigenvalues --  -10.34668 -10.33249 -10.29806 -10.27619 -10.26870
 Alpha  occ. eigenvalues --  -10.26063 -10.25964 -10.25650 -10.25584 -10.25499
 Alpha  occ. eigenvalues --  -10.25169 -10.25056 -10.24738 -10.24392 -10.24389
 Alpha  occ. eigenvalues --  -10.24354 -10.24238 -10.23936 -10.23928 -10.23676
 Alpha  occ. eigenvalues --  -10.23339 -10.23033 -10.22943 -10.22882 -10.22771
 Alpha  occ. eigenvalues --  -10.22650 -10.22580 -10.22459 -10.22130 -10.21890
 Alpha  occ. eigenvalues --  -10.21881 -10.21710 -10.21644 -10.21595 -10.21593
 Alpha  occ. eigenvalues --  -10.21271 -10.21145 -10.20977 -10.20954 -10.20814
 Alpha  occ. eigenvalues --  -10.20766 -10.20699 -10.20649 -10.20580 -10.20553
 Alpha  occ. eigenvalues --  -10.20500 -10.20473 -10.20438 -10.20323 -10.20186
 Alpha  occ. eigenvalues --  -10.20057 -10.19997 -10.19978 -10.19237 -10.19156
 Alpha  occ. eigenvalues --   -3.07734  -1.82658  -1.82194  -1.82175  -1.15557
 Alpha  occ. eigenvalues --   -1.13641  -1.08274  -1.06329  -1.05149  -0.98859
 Alpha  occ. eigenvalues --   -0.98370  -0.96716  -0.94713  -0.87104  -0.87055
 Alpha  occ. eigenvalues --   -0.86082  -0.85371  -0.85017  -0.84717  -0.84160
 Alpha  occ. eigenvalues --   -0.83843  -0.83827  -0.83160  -0.82196  -0.81109
 Alpha  occ. eigenvalues --   -0.80280  -0.79479  -0.78663  -0.78395  -0.78292
 Alpha  occ. eigenvalues --   -0.77016  -0.76603  -0.76335  -0.75851  -0.74014
 Alpha  occ. eigenvalues --   -0.73065  -0.72100  -0.71754  -0.71079  -0.70786
 Alpha  occ. eigenvalues --   -0.70328  -0.70288  -0.69981  -0.68716  -0.68248
 Alpha  occ. eigenvalues --   -0.66811  -0.65826  -0.65014  -0.64656  -0.64351
 Alpha  occ. eigenvalues --   -0.63504  -0.62025  -0.61550  -0.61119  -0.60478
 Alpha  occ. eigenvalues --   -0.60061  -0.59737  -0.59294  -0.59154  -0.57899
 Alpha  occ. eigenvalues --   -0.57080  -0.56242  -0.55680  -0.55396  -0.54914
 Alpha  occ. eigenvalues --   -0.54453  -0.54430  -0.53770  -0.53345  -0.52813
 Alpha  occ. eigenvalues --   -0.52318  -0.52138  -0.51938  -0.51691  -0.51504
 Alpha  occ. eigenvalues --   -0.51424  -0.50620  -0.50178  -0.49720  -0.49677
 Alpha  occ. eigenvalues --   -0.49458  -0.49041  -0.48566  -0.48266  -0.48046
 Alpha  occ. eigenvalues --   -0.47887  -0.47527  -0.47392  -0.47323  -0.47057
 Alpha  occ. eigenvalues --   -0.47017  -0.46705  -0.46572  -0.46334  -0.45883
 Alpha  occ. eigenvalues --   -0.45765  -0.45620  -0.45542  -0.45255  -0.45086
 Alpha  occ. eigenvalues --   -0.44905  -0.44699  -0.44361  -0.44067  -0.43818
 Alpha  occ. eigenvalues --   -0.43370  -0.43210  -0.43054  -0.42895  -0.42578
 Alpha  occ. eigenvalues --   -0.42242  -0.42201  -0.42080  -0.41832  -0.41591
 Alpha  occ. eigenvalues --   -0.41438  -0.41287  -0.41078  -0.40997  -0.40963
 Alpha  occ. eigenvalues --   -0.40755  -0.40600  -0.40355  -0.40119  -0.39988
 Alpha  occ. eigenvalues --   -0.39789  -0.39670  -0.39512  -0.39410  -0.38919
 Alpha  occ. eigenvalues --   -0.38833  -0.38727  -0.38497  -0.38369  -0.38039
 Alpha  occ. eigenvalues --   -0.37929  -0.37642  -0.37526  -0.37365  -0.37231
 Alpha  occ. eigenvalues --   -0.37025  -0.36915  -0.36592  -0.36477  -0.35977
 Alpha  occ. eigenvalues --   -0.35751  -0.35686  -0.35241  -0.35181  -0.35127
 Alpha  occ. eigenvalues --   -0.34503  -0.34337  -0.33990  -0.33704  -0.33322
 Alpha  occ. eigenvalues --   -0.33289  -0.33125  -0.33078  -0.32364  -0.32221
 Alpha  occ. eigenvalues --   -0.31941  -0.31692  -0.31088  -0.30838  -0.30338
 Alpha  occ. eigenvalues --   -0.30236  -0.30035  -0.29308  -0.29100  -0.27198
 Alpha  occ. eigenvalues --   -0.26466  -0.26387  -0.26199  -0.24890  -0.22223
 Alpha  occ. eigenvalues --   -0.20052
 Alpha virt. eigenvalues --   -0.07842  -0.03641  -0.00134   0.01470   0.04285
 Alpha virt. eigenvalues --    0.04653   0.05260   0.05357   0.05601   0.06032
 Alpha virt. eigenvalues --    0.06499   0.08418   0.09264   0.09476   0.09884

 Mulliken charges:
               1
     1  Mg   0.801221
     2  C    0.126698
     3  C   -0.183088
     4  C   -0.194969
     5  C   -0.160502
     6  N   -0.655418
     7  C    0.215100
     8  C   -0.117301
     9  C   -0.134010
    10  C    0.359570
    11  C   -0.309408
    12  C   -0.162003
    13  C   -0.281347
    14  C    0.602094
    15  O   -0.417786
    16  O   -0.442612
    17  N   -0.714270
    18  C    0.342268
    19  C   -0.000208
    20  C    0.073494
    21  C    0.266238
    22  C   -0.372012
    23  C   -0.103919
    24  C   -0.224225
    25  N   -0.685291
    26  C    0.275021
    27  C    0.055194
    28  C    0.000747
    29  C    0.319969
    30  C   -0.361146
    31  C   -0.226778
    32  C   -0.297825
    33  N   -0.720943
    34  C    0.276424
    35  C    0.013684
    36  C    0.048835
    37  C    0.278552
    38  C   -0.398078
    39  C    0.341973
    40  O   -0.445598
    41  C   -0.323855
    42  C    0.592502
    43  O   -0.450949
    44  O   -0.449028
    45  C   -0.077834
    46  C   -0.005716
    47  C   -0.106731
    48  C    0.096264
    49  C   -0.353633
    50  C   -0.224552
    51  C   -0.190028
    52  C   -0.155360
    53  C   -0.050508
    54  C   -0.291670
    55  C   -0.180264
    56  C   -0.165180
    57  C   -0.162077
    58  C   -0.058141
    59  C   -0.320842
    60  C   -0.145851
    61  C   -0.173308
    62  C   -0.148707
    63  C   -0.021681
    64  C   -0.296714
    65  C   -0.303777
    66  H    0.074769
    67  H    0.079541
    68  H    0.096600
    69  H    0.113942
    70  H    0.095615
    71  H    0.092304
    72  H    0.107887
    73  H    0.137274
    74  H    0.108779
    75  H    0.107446
    76  H    0.144659
    77  H    0.121853
    78  H    0.130992
    79  H    0.106475
    80  H    0.104415
    81  H    0.098236
    82  H    0.086599
    83  H    0.081067
    84  H    0.123095
    85  H    0.097663
    86  H    0.123466
    87  H    0.107227
    88  H    0.064556
    89  H    0.107190
    90  H    0.116933
    91  H    0.100221
    92  H    0.135313
    93  H    0.143336
    94  H    0.127725
    95  H    0.146033
    96  H    0.119163
    97  H    0.134092
    98  H    0.130047
    99  H    0.131229
   100  H    0.108739
   101  H    0.075891
   102  H    0.115706
   103  H    0.111754
   104  H    0.093681
   105  H    0.102796
   106  H    0.084151
   107  H    0.093616
   108  H    0.096643
   109  H    0.095580
   110  H    0.073222
   111  H    0.082605
   112  H    0.099183
   113  H    0.095412
   114  H    0.109763
   115  H    0.083936
   116  H    0.072004
   117  H    0.082709
   118  H    0.088592
   119  H    0.070446
   120  H    0.078213
   121  H    0.071203
   122  H    0.097910
   123  H    0.114731
   124  H    0.102674
   125  H    0.038518
   126  H    0.096739
   127  H    0.054780
   128  H    0.094773
   129  H    0.102470
   130  H    0.064019
   131  H    0.101304
   132  H    0.068400
   133  H    0.068702
   134  H    0.120482
   135  H    0.091219
   136  H    0.082818
   137  H    0.098170
 Sum of Mulliken charges =  -0.00000

 Dipole moment (field-independent basis, Debye):
    X=             -0.0043    Y=              3.0580    Z=              0.5403  Tot=              3.1054
 Quadrupole moment (field-independent basis, Debye-Ang):
   XX=           -341.8387   YY=           -398.4437   ZZ=           -397.8837
   XY=            -23.9848   XZ=              4.3871   YZ=             -1.1013

 Normal termination of Gaussian 16 at Mon Sep 16 10:01:31 2019.
