 Gaussian 16, Revision A.03,
 Gaussian 16:  ES64L-G16RevA.03 25-Dec-2016

 ----------------------------------------------------------------------
 # td=(NStates=1) iop(3/107=0140000000,3/108=0140000000) CAM-B3LYP/6-31
 G(d,p)
 ----------------------------------------------------------------------

 --
 TD
 --
 Symbolic Z-matrix:
 Charge =  0 Multiplicity = 1

                         Standard orientation:
 ---------------------------------------------------------------------
 Center     Atomic      Atomic             Coordinates (Angstroms)
 Number     Number       Type             X           Y           Z
 ---------------------------------------------------------------------
      1         12           0       -7.092335    0.693337    0.012974
      2          6           0       -4.817031   -1.965467    0.619623
      3          6           0       -4.870667    2.820815    1.169488
      4          6           0       -9.370597    3.161515   -0.455744
      5          6           0       -9.439009   -1.673384   -0.969739
      6          7           0       -5.170851    0.487989    0.705826
      7          6           0       -4.362640   -0.703321    0.910355
      8          6           0       -2.927746   -0.429665    1.354736
      9          6           0       -3.070244    0.939915    1.825947
     10          6           0       -4.395647    1.478263    1.165413
     11          6           0       -3.059171    1.210607    3.336821
     12          6           0       -2.031640   -0.562710    0.061468
     13          6           0       -0.540707   -0.423777    0.547999
     14          6           0        0.491328   -0.656056   -0.537519
     15          8           0        0.257391   -0.909421   -1.695503
     16          8           0        1.731770   -0.447522   -0.171773
     17          7           0       -7.107853    2.584278    0.347298
     18          6           0       -6.045193    3.380338    0.757508
     19          6           0       -6.398888    4.748033    0.792909
     20          6           0       -7.619675    4.912206    0.341177
     21          6           0       -8.089611    3.510712    0.064420
     22          6           0       -5.407317    5.829664    1.092150
     23          6           0       -8.502526    6.116364    0.110509
     24          6           0       -8.376824    7.263278    0.683396
     25          7           0       -9.128036    0.665365   -0.488021
     26          6           0       -9.858973    1.859289   -0.762196
     27          6           0      -11.103936    1.500686   -1.127398
     28          6           0      -11.149651    0.075171   -1.287526
     29          6           0       -9.830741   -0.372499   -0.972014
     30          6           0      -12.156477    2.501067   -1.428862
     31          6           0      -12.378021   -0.636217   -1.608128
     32          6           0      -12.414761   -1.232256   -3.147678
     33          7           0       -7.197748   -1.380306   -0.097300
     34          6           0       -8.217612   -2.257473   -0.560670
     35          6           0       -7.804189   -3.592225   -0.511004
     36          6           0       -6.466837   -3.595659   -0.109145
     37          6           0       -6.152098   -2.222777   -0.019627
     38          6           0       -8.658784   -4.774307   -0.832226
     39          6           0       -5.277112   -4.354755    0.307334
     40          8           0       -5.182524   -5.561017    0.253582
     41          6           0       -4.146646   -3.332591    0.584609
     42          6           0       -3.486251   -3.651033    1.872452
     43          8           0       -3.684510   -3.150011    2.866776
     44          8           0       -2.631877   -4.756427    1.669254
     45          6           0       -1.982611   -5.282221    2.897756
     46          6           0        2.808586   -0.693330   -1.193794
     47          6           0        4.172307   -0.596759   -0.512890
     48          6           0        5.198744    0.240744   -0.969710
     49          6           0        5.097503    1.063863   -2.093838
     50          6           0        6.461658    0.381202   -0.212712
     51          6           0        7.718455   -0.100773   -1.042836
     52          6           0        8.936953   -0.234913   -0.127298
     53          6           0       10.116028   -0.606924   -0.968172
     54          6           0        9.997593   -1.984293   -1.548135
     55          6           0       11.410331   -0.392849   -0.142562
     56          6           0       12.797186   -0.643679   -0.687922
     57          6           0       14.032639   -0.244193    0.220771
     58          6           0       15.338867   -0.305659   -0.403428
     59          6           0       15.731460   -1.641221   -0.876520
     60          6           0       16.358234    0.389663    0.622119
     61          6           0       17.665446    0.592586   -0.100685
     62          6           0       18.686247    1.373620    0.705966
     63          6           0       20.159891    1.528146    0.155443
     64          6           0       20.246840    2.360657   -1.135390
     65          6           0       20.969896    2.088041    1.309449
     66          1           0       -4.272871    3.572946    1.535170
     67          1           0       -9.889910    3.916007   -0.759885
     68          1           0      -10.361348   -2.243167   -1.505025
     69          1           0       -2.728465   -0.988563    2.099062
     70          1           0       -2.093103    1.541504    1.546103
     71          1           0       -2.235497    0.719880    4.019173
     72          1           0       -3.240578    2.281500    3.283233
     73          1           0       -3.923595    0.545350    3.734877
     74          1           0       -2.251411   -1.500624   -0.252340
     75          1           0       -2.481167    0.064163   -0.684901
     76          1           0       -0.391981    0.413272    1.193671
     77          1           0       -0.484702   -1.107591    1.517566
     78          1           0       -5.731375    6.781637    0.528823
     79          1           0       -5.445025    6.218573    2.150951
     80          1           0       -4.450754    5.541839    0.638915
     81          1           0       -9.329910    5.897191   -0.660610
     82          1           0       -9.287700    8.046089    0.774896
     83          1           0       -7.640001    7.401413    1.321135
     84          1           0      -12.041292    2.944501   -2.396306
     85          1           0      -13.294107    2.074467   -1.222834
     86          1           0      -12.204837    3.198671   -0.556302
     87          1           0      -12.585007   -1.410302   -0.892234
     88          1           0      -13.279295   -0.037624   -1.571012
     89          1           0      -13.320992   -1.729361   -3.269637
     90          1           0      -12.357511   -0.401520   -3.906636
     91          1           0      -11.664397   -2.111231   -3.415878
     92          1           0       -8.571747   -4.651804   -2.069755
     93          1           0       -8.193168   -5.685799   -0.576337
     94          1           0       -9.726327   -4.788564   -0.344020
     95          1           0       -3.560720   -3.570360   -0.407341
     96          1           0       -1.393200   -4.521036    3.482279
     97          1           0       -2.813455   -5.490828    3.494830
     98          1           0       -1.430703   -6.288792    2.512777
     99          1           0        2.528736   -1.763203   -1.350855
    100          1           0        2.419197   -0.356978   -2.197330
    101          1           0        4.133881   -1.191614    0.216874
    102          1           0        4.047462    1.309070   -2.354114
    103          1           0        5.461672    2.055344   -1.826118
    104          1           0        5.765591    0.740813   -2.878438
    105          1           0        6.578171    1.368781    0.212909
    106          1           0        6.247448   -0.229196    0.710884
    107          1           0        7.513372   -1.066721   -1.668109
    108          1           0        7.880678    0.419268   -1.944736
    109          1           0        9.041359    0.690236    0.599126
    110          1           0        8.693418   -1.031560    0.536818
    111          1           0       10.081699    0.039182   -1.858122
    112          1           0        9.184441   -2.136842   -2.208056
    113          1           0       10.840313   -2.229830   -2.035912
    114          1           0       10.085037   -2.731310   -0.665984
    115          1           0       11.364210    0.618661    0.332743
    116          1           0       11.554906   -1.138294    0.781489
    117          1           0       12.769358   -1.629437   -1.040662
    118          1           0       12.946233   -0.034650   -1.588818
    119          1           0       13.906494    0.807512    0.541403
    120          1           0       14.289211   -0.900667    1.194689
    121          1           0       15.327618    0.379260   -1.359996
    122          1           0       15.667299   -2.391440   -0.020128
    123          1           0       14.983948   -1.914566   -1.738937
    124          1           0       16.716983   -1.751295   -1.477717
    125          1           0       16.101583    1.366217    0.847077
    126          1           0       16.631610   -0.132842    1.456292
    127          1           0       18.128391   -0.405191   -0.065081
    128          1           0       17.699786    0.918103   -1.216038
    129          1           0       18.342558    2.349919    1.016908
    130          1           0       18.721972    1.013358    1.693195
    131          1           0       20.566580    0.449139   -0.002121
    132          1           0       19.661555    3.306436   -0.998245
    133          1           0       21.137890    2.583118   -1.528828
    134          1           0       19.726365    1.825674   -1.938665
    135          1           0       20.858111    1.495525    2.183846
    136          1           0       22.042499    2.413825    1.120791
    137          1           0       20.527768    3.047448    1.379875
 ---------------------------------------------------------------------

 SCF Done:  E(RCAM-B3LYP) =  -2933.49745004     A.U. after   16 cycles

 Excitation energies and oscillator strengths:

 Excited State   1:      Singlet-A      2.0951 eV  591.79 nm  f=0.1933  <S**2>=0.000
     240 -> 243        0.21854
     241 -> 242        0.66875
 This state for optimization and/or second-order correction.
 Total Energy, E(TD-HF/TD-DFT) =  -2933.42045721
 Copying the excited state density for this state as the 1-particle RhoCI density.

 The electronic state is 1-A.
 Alpha  occ. eigenvalues --  -46.78665 -19.20588 -19.19907 -19.17778 -19.15394
 Alpha  occ. eigenvalues --  -19.15001 -14.38037 -14.34931 -14.34786 -14.33246
 Alpha  occ. eigenvalues --  -10.33826 -10.33497 -10.30047 -10.27403 -10.27216
 Alpha  occ. eigenvalues --  -10.27096 -10.25716 -10.25525 -10.24992 -10.24489
 Alpha  occ. eigenvalues --  -10.24167 -10.24001 -10.23942 -10.23737 -10.23731
 Alpha  occ. eigenvalues --  -10.23722 -10.23397 -10.23162 -10.23087 -10.23075
 Alpha  occ. eigenvalues --  -10.22871 -10.22803 -10.22700 -10.22681 -10.22613
 Alpha  occ. eigenvalues --  -10.22174 -10.22155 -10.22092 -10.22047 -10.22009
 Alpha  occ. eigenvalues --  -10.21878 -10.21858 -10.21830 -10.21807 -10.21778
 Alpha  occ. eigenvalues --  -10.21707 -10.21694 -10.21631 -10.21608 -10.21300
 Alpha  occ. eigenvalues --  -10.21233 -10.21184 -10.21160 -10.20946 -10.20674
 Alpha  occ. eigenvalues --  -10.20556 -10.20555 -10.20345 -10.20252 -10.20020
 Alpha  occ. eigenvalues --  -10.19664 -10.19607 -10.19503 -10.19399 -10.19244
 Alpha  occ. eigenvalues --   -3.07493  -1.82410  -1.81961  -1.81930  -1.14593
 Alpha  occ. eigenvalues --   -1.12872  -1.05907  -1.04196  -1.02544  -0.98935
 Alpha  occ. eigenvalues --   -0.98059  -0.97618  -0.96534  -0.87192  -0.86965
 Alpha  occ. eigenvalues --   -0.86259  -0.85776  -0.85337  -0.85104  -0.83769
 Alpha  occ. eigenvalues --   -0.83533  -0.82530  -0.81935  -0.81832  -0.80872
 Alpha  occ. eigenvalues --   -0.80259  -0.79969  -0.78865  -0.78301  -0.77830
 Alpha  occ. eigenvalues --   -0.77106  -0.76076  -0.75817  -0.75279  -0.73308
 Alpha  occ. eigenvalues --   -0.73167  -0.72286  -0.72010  -0.71630  -0.70883
 Alpha  occ. eigenvalues --   -0.70794  -0.70210  -0.69915  -0.69003  -0.67885
 Alpha  occ. eigenvalues --   -0.67056  -0.66714  -0.65435  -0.65218  -0.63872
 Alpha  occ. eigenvalues --   -0.62645  -0.62513  -0.61317  -0.60938  -0.60475
 Alpha  occ. eigenvalues --   -0.59233  -0.59088  -0.58736  -0.58349  -0.57850
 Alpha  occ. eigenvalues --   -0.57365  -0.57100  -0.56773  -0.56159  -0.55411
 Alpha  occ. eigenvalues --   -0.54802  -0.53902  -0.53406  -0.53280  -0.52309
 Alpha  occ. eigenvalues --   -0.52003  -0.51869  -0.51533  -0.51042  -0.50413
 Alpha  occ. eigenvalues --   -0.50370  -0.50098  -0.49803  -0.49567  -0.49284
 Alpha  occ. eigenvalues --   -0.48790  -0.48590  -0.48432  -0.48176  -0.48075
 Alpha  occ. eigenvalues --   -0.47609  -0.47505  -0.47457  -0.47366  -0.47320
 Alpha  occ. eigenvalues --   -0.46993  -0.46593  -0.46340  -0.46330  -0.46141
 Alpha  occ. eigenvalues --   -0.45936  -0.45554  -0.45463  -0.45263  -0.44955
 Alpha  occ. eigenvalues --   -0.44869  -0.44610  -0.44137  -0.44127  -0.44057
 Alpha  occ. eigenvalues --   -0.43880  -0.43351  -0.43021  -0.42935  -0.42363
 Alpha  occ. eigenvalues --   -0.42260  -0.41794  -0.41681  -0.41460  -0.41237
 Alpha  occ. eigenvalues --   -0.40962  -0.40778  -0.40733  -0.40655  -0.40547
 Alpha  occ. eigenvalues --   -0.40507  -0.40257  -0.40188  -0.39908  -0.39745
 Alpha  occ. eigenvalues --   -0.39501  -0.39393  -0.39171  -0.39100  -0.38973
 Alpha  occ. eigenvalues --   -0.38790  -0.38370  -0.38070  -0.38018  -0.37929
 Alpha  occ. eigenvalues --   -0.37556  -0.37332  -0.37259  -0.37058  -0.36986
 Alpha  occ. eigenvalues --   -0.36853  -0.36562  -0.36409  -0.36216  -0.36191
 Alpha  occ. eigenvalues --   -0.35697  -0.35617  -0.35534  -0.35294  -0.34979
 Alpha  occ. eigenvalues --   -0.34617  -0.34160  -0.33969  -0.33835  -0.33584
 Alpha  occ. eigenvalues --   -0.33487  -0.33212  -0.33033  -0.32727  -0.32587
 Alpha  occ. eigenvalues --   -0.32397  -0.31909  -0.31535  -0.31085  -0.30841
 Alpha  occ. eigenvalues --   -0.30351  -0.29422  -0.29372  -0.28487  -0.26771
 Alpha  occ. eigenvalues --   -0.26443  -0.26196  -0.25898  -0.23842  -0.21655
 Alpha  occ. eigenvalues --   -0.19960
 Alpha virt. eigenvalues --   -0.06644  -0.03841   0.00585   0.02329   0.02636
 Alpha virt. eigenvalues --    0.04260   0.04704   0.04991   0.05385   0.06252
 Alpha virt. eigenvalues --    0.07037   0.08931   0.09675   0.10184   0.10415

 Mulliken charges:
               1
     1  Mg   0.816113
     2  C    0.038029
     3  C   -0.239467
     4  C   -0.150155
     5  C   -0.172172
     6  N   -0.624117
     7  C    0.229830
     8  C   -0.107323
     9  C   -0.148181
    10  C    0.382956
    11  C   -0.296910
    12  C   -0.139815
    13  C   -0.288007
    14  C    0.616092
    15  O   -0.490285
    16  O   -0.473508
    17  N   -0.742438
    18  C    0.341261
    19  C    0.027171
    20  C    0.046496
    21  C    0.269282
    22  C   -0.394860
    23  C   -0.035896
    24  C   -0.241413
    25  N   -0.701294
    26  C    0.299568
    27  C    0.024608
    28  C    0.052295
    29  C    0.336624
    30  C   -0.384898
    31  C   -0.273731
    32  C   -0.326451
    33  N   -0.641112
    34  C    0.268433
    35  C   -0.011716
    36  C    0.053799
    37  C    0.217447
    38  C   -0.355312
    39  C    0.342657
    40  O   -0.454930
    41  C   -0.313489
    42  C    0.633361
    43  O   -0.408245
    44  O   -0.498490
    45  C   -0.089571
    46  C   -0.030385
    47  C   -0.094766
    48  C    0.140354
    49  C   -0.370438
    50  C   -0.233511
    51  C   -0.199137
    52  C   -0.141770
    53  C   -0.058216
    54  C   -0.310972
    55  C   -0.174445
    56  C   -0.192841
    57  C   -0.140293
    58  C   -0.048018
    59  C   -0.297851
    60  C   -0.172846
    61  C   -0.183743
    62  C   -0.182709
    63  C   -0.056368
    64  C   -0.310932
    65  C   -0.304464
    66  H    0.053781
    67  H    0.044673
    68  H    0.084884
    69  H    0.098930
    70  H    0.083909
    71  H    0.105261
    72  H    0.119638
    73  H    0.109429
    74  H    0.125989
    75  H    0.122811
    76  H    0.139832
    77  H    0.115257
    78  H    0.111337
    79  H    0.125323
    80  H    0.126424
    81  H    0.093743
    82  H    0.098153
    83  H    0.098703
    84  H    0.133328
    85  H    0.082603
    86  H    0.117987
    87  H    0.113466
    88  H    0.110186
    89  H    0.115506
    90  H    0.112260
    91  H    0.092721
    92  H    0.106781
    93  H    0.149044
    94  H    0.113492
    95  H    0.173880
    96  H    0.118766
    97  H    0.142093
    98  H    0.121919
    99  H    0.116103
   100  H    0.143592
   101  H    0.077069
   102  H    0.117248
   103  H    0.114682
   104  H    0.127485
   105  H    0.113100
   106  H    0.095669
   107  H    0.085630
   108  H    0.101988
   109  H    0.077534
   110  H    0.107364
   111  H    0.082909
   112  H    0.106096
   113  H    0.114503
   114  H    0.087329
   115  H    0.081089
   116  H    0.069624
   117  H    0.103344
   118  H    0.081709
   119  H    0.092886
   120  H    0.060516
   121  H    0.063535
   122  H    0.091286
   123  H    0.091332
   124  H    0.101484
   125  H    0.099805
   126  H    0.101163
   127  H    0.093315
   128  H    0.079529
   129  H    0.076889
   130  H    0.084336
   131  H    0.066312
   132  H    0.093479
   133  H    0.113854
   134  H    0.100638
   135  H    0.105721
   136  H    0.086139
   137  H    0.102717
 Sum of Mulliken charges =  -0.00000

 Dipole moment (field-independent basis, Debye):
    X=              2.6199    Y=              4.9890    Z=              0.2823  Tot=              5.6422
 Quadrupole moment (field-independent basis, Debye-Ang):
   XX=           -348.2993   YY=           -392.2242   ZZ=           -391.7723
   XY=            -25.5225   XZ=              7.4527   YZ=             -1.2191

 Normal termination of Gaussian 16 at Mon Sep 23 10:22:20 2019.
