 Gaussian 09, Revision D.01,
 Gaussian 09:  ES64L-G09RevD.01 24-Apr-2013

 -------------------------------------
 # td=(NStates=1) CAM-B3LYP/6-31G(d,p)
 -------------------------------------

 --
 TD
 --
 Symbolic Z-matrix:
 Charge =  0 Multiplicity = 1

                         Standard orientation:
 ---------------------------------------------------------------------
 Center     Atomic      Atomic             Coordinates (Angstroms)
 Number     Number       Type             X           Y           Z
 ---------------------------------------------------------------------
      1         12           0       -7.198908    0.635774    0.004373
      2          6           0       -4.844336   -1.935295    0.502347
      3          6           0       -4.907569    2.824559    1.132190
      4          6           0       -9.461762    3.169926   -0.445441
      5          6           0       -9.534441   -1.614906   -0.844290
      6          7           0       -5.112081    0.364720    0.903685
      7          6           0       -4.325559   -0.694202    0.787852
      8          6           0       -2.897780   -0.357489    1.197057
      9          6           0       -2.986733    1.113621    1.699814
     10          6           0       -4.403361    1.476544    1.233720
     11          6           0       -3.072397    1.341138    3.287201
     12          6           0       -1.971512   -0.597570    0.123767
     13          6           0       -0.446846   -0.424444    0.628602
     14          6           0        0.579358   -0.762274   -0.501398
     15          8           0        0.297580   -1.197258   -1.583780
     16          8           0        1.860399   -0.507781   -0.091139
     17          7           0       -7.171695    2.583951    0.248775
     18          6           0       -6.086496    3.290222    0.720440
     19          6           0       -6.457074    4.767322    0.712547
     20          6           0       -7.738396    4.772305    0.287013
     21          6           0       -8.123543    3.508702    0.024630
     22          6           0       -5.514519    5.846293    1.177840
     23          6           0       -8.497943    6.061165    0.034246
     24          6           0       -8.339305    7.240575    0.650318
     25          7           0       -9.082453    0.762148   -0.614963
     26          6           0       -9.951976    1.800316   -0.786273
     27          6           0      -11.276792    1.427382   -1.083475
     28          6           0      -11.271136    0.081177   -1.292244
     29          6           0       -9.943584   -0.366275   -0.957876
     30          6           0      -12.357528    2.410183   -1.410413
     31          6           0      -12.458485   -0.762193   -1.687492
     32          6           0      -12.554860   -1.151105   -3.163463
     33          7           0       -7.271242   -1.355468   -0.249973
     34          6           0       -8.320346   -2.161702   -0.569507
     35          6           0       -7.922720   -3.591583   -0.484899
     36          6           0       -6.575200   -3.524163   -0.118497
     37          6           0       -6.222449   -2.166593    0.109437
     38          6           0       -8.706419   -4.813947   -0.754016
     39          6           0       -5.446362   -4.324682    0.188878
     40          8           0       -5.369282   -5.521273    0.264370
     41          6           0       -4.248409   -3.276666    0.489916
     42          6           0       -3.609902   -3.567533    1.833096
     43          8           0       -3.785221   -2.852305    2.824758
     44          8           0       -2.856550   -4.749843    1.806167
     45          6           0       -2.096598   -5.015453    3.000765
     46          6           0        2.862430   -0.914861   -1.121281
     47          6           0        4.194849   -0.588259   -0.504473
     48          6           0        5.132218    0.189873   -0.888151
     49          6           0        5.117073    0.908932   -2.202310
     50          6           0        6.530239    0.326314   -0.239141
     51          6           0        7.721810   -0.268798   -1.020815
     52          6           0        8.954365   -0.147274   -0.222549
     53          6           0       10.257898   -0.659884   -0.803748
     54          6           0       10.188607   -2.083301   -1.216024
     55          6           0       11.574771   -0.381813    0.144292
     56          6           0       12.903679   -0.496525   -0.693162
     57          6           0       14.104603   -0.123608    0.165551
     58          6           0       15.430831   -0.128958   -0.475561
     59          6           0       15.786049   -1.572699   -0.886296
     60          6           0       16.522172    0.410721    0.466357
     61          6           0       17.932515    0.663624   -0.195804
     62          6           0       18.887648    1.383060    0.631245
     63          6           0       20.299548    1.437542    0.145928
     64          6           0       20.382594    2.192154   -1.226395
     65          6           0       21.146942    2.038116    1.244499
     66          1           0       -4.225699    3.646672    1.244482
     67          1           0      -10.097292    3.953236   -0.585871
     68          1           0      -10.367739   -2.296671   -1.048228
     69          1           0       -2.509975   -0.946397    2.003024
     70          1           0       -2.118767    1.676383    1.369717
     71          1           0       -1.955760    1.202915    3.548755
     72          1           0       -3.467681    2.302579    3.536473
     73          1           0       -3.802878    0.649403    3.775480
     74          1           0       -2.089241   -1.382885   -0.598782
     75          1           0       -2.229924    0.157131   -0.648114
     76          1           0       -0.275228    0.541714    0.977840
     77          1           0       -0.108211   -0.991620    1.372218
     78          1           0       -5.800180    6.650541    0.631420
     79          1           0       -5.566691    6.150718    2.253803
     80          1           0       -4.479837    5.739246    1.054450
     81          1           0       -9.350199    5.810081   -0.690363
     82          1           0       -9.173414    8.142441    0.278501
     83          1           0       -7.673444    7.356524    1.467472
     84          1           0      -12.306521    3.099353   -2.184412
     85          1           0      -13.280247    1.882830   -1.676434
     86          1           0      -12.596068    3.181272   -0.554809
     87          1           0      -12.338712   -1.629520   -1.155855
     88          1           0      -13.267811   -0.254413   -1.311141
     89          1           0      -13.340301   -1.962537   -3.232922
     90          1           0      -12.639993   -0.316600   -3.938456
     91          1           0      -11.579182   -1.705821   -3.285492
     92          1           0       -9.417447   -4.589854   -1.868566
     93          1           0       -8.130489   -5.819180   -0.715081
     94          1           0       -9.489962   -4.892939    0.082695
     95          1           0       -3.522096   -3.590381   -0.311626
     96          1           0       -1.703327   -4.082328    3.631914
     97          1           0       -2.814839   -5.701940    3.630579
     98          1           0       -1.354469   -5.717368    2.630580
     99          1           0        2.700398   -1.969602   -1.318155
    100          1           0        2.661282   -0.292010   -2.000373
    101          1           0        4.279682   -1.089396    0.516327
    102          1           0        4.120914    1.014636   -2.488962
    103          1           0        5.664544    1.991149   -2.134266
    104          1           0        5.827130    0.405937   -2.838031
    105          1           0        6.654000    1.456267   -0.130899
    106          1           0        6.519804   -0.040133    0.788228
    107          1           0        7.403071   -1.240291   -1.284071
    108          1           0        7.663106    0.350297   -2.024672
    109          1           0        9.348515    0.751310    0.398551
    110          1           0        8.909178   -0.842278    0.668309
    111          1           0       10.557670    0.011315   -1.767503
    112          1           0        9.383683   -2.039951   -2.000272
    113          1           0       10.972877   -2.399274   -1.800471
    114          1           0       10.114596   -2.848855   -0.300035
    115          1           0       11.362349    0.590307    0.738374
    116          1           0       11.545748   -1.163419    0.879080
    117          1           0       12.967930   -1.605517   -1.157121
    118          1           0       13.034913    0.127891   -1.671806
    119          1           0       13.771284    0.806203    0.605132
    120          1           0       14.061150   -0.925586    0.846488
    121          1           0       15.506574    0.624948   -1.452154
    122          1           0       15.802758   -2.176814    0.061180
    123          1           0       15.015773   -2.283389   -1.470070
    124          1           0       16.804552   -1.426130   -1.336680
    125          1           0       16.077243    1.388991    0.725616
    126          1           0       16.765030   -0.064466    1.517069
    127          1           0       18.391015   -0.327335   -0.876312
    128          1           0       17.403904    1.387266   -1.053114
    129          1           0       18.482514    2.334242    0.816143
    130          1           0       18.783021    0.858697    1.707874
    131          1           0       20.831516    0.289195    0.021416
    132          1           0       19.900450    3.084267   -1.112957
    133          1           0       21.410888    2.266193   -1.343879
    134          1           0       19.958596    1.546529   -2.038883
    135          1           0       21.522581    1.349381    2.177419
    136          1           0       22.147498    2.111463    0.925846
    137          1           0       20.792520    2.990047    1.748913
 ---------------------------------------------------------------------

 SCF Done:  E(RCAM-B3LYP) =  -2932.69193870     A.U. after   18 cycles

 Excitation energies and oscillator strengths:

 Excited State   1:      Singlet-A      2.1710 eV  571.08 nm  f=0.1771  <S**2>=0.000
     240 -> 242       -0.11799
     240 -> 243        0.27930
     241 -> 242        0.62545
 This state for optimization and/or second-order correction.
 Total Energy, E(TD-HF/TD-KS) =  -2932.61215423
 Copying the excited state density for this state as the 1-particle RhoCI density.

 The electronic state is 1-A.
 Alpha  occ. eigenvalues --  -46.83845 -19.25879 -19.25793 -19.21161 -19.20921
 Alpha  occ. eigenvalues --  -19.19840 -14.41862 -14.39174 -14.38937 -14.38866
 Alpha  occ. eigenvalues --  -10.39195 -10.39124 -10.34310 -10.32137 -10.32127
 Alpha  occ. eigenvalues --  -10.32084 -10.29799 -10.29576 -10.29315 -10.29220
 Alpha  occ. eigenvalues --  -10.28795 -10.28541 -10.28327 -10.28238 -10.28238
 Alpha  occ. eigenvalues --  -10.28125 -10.28090 -10.27952 -10.27675 -10.27670
 Alpha  occ. eigenvalues --  -10.27632 -10.27518 -10.27264 -10.26923 -10.26900
 Alpha  occ. eigenvalues --  -10.26858 -10.26809 -10.26749 -10.26722 -10.26708
 Alpha  occ. eigenvalues --  -10.26581 -10.26480 -10.26407 -10.26355 -10.26324
 Alpha  occ. eigenvalues --  -10.26306 -10.26273 -10.26239 -10.26223 -10.26210
 Alpha  occ. eigenvalues --  -10.26030 -10.25994 -10.25961 -10.25788 -10.25658
 Alpha  occ. eigenvalues --  -10.25651 -10.25598 -10.25594 -10.25300 -10.25278
 Alpha  occ. eigenvalues --  -10.25055 -10.24761 -10.24114 -10.23840 -10.23840
 Alpha  occ. eigenvalues --   -3.13051  -1.87731  -1.87311  -1.87231  -1.17393
 Alpha  occ. eigenvalues --   -1.15692  -1.11295  -1.09063  -1.08133  -1.05176
 Alpha  occ. eigenvalues --   -1.04302  -1.03111  -1.01460  -0.92586  -0.91915
 Alpha  occ. eigenvalues --   -0.91073  -0.90642  -0.89912  -0.89616  -0.89433
 Alpha  occ. eigenvalues --   -0.89178  -0.88367  -0.87726  -0.86453  -0.85704
 Alpha  occ. eigenvalues --   -0.85062  -0.84096  -0.83726  -0.83308  -0.82437
 Alpha  occ. eigenvalues --   -0.81621  -0.80882  -0.80362  -0.80113  -0.79313
 Alpha  occ. eigenvalues --   -0.78513  -0.77475  -0.76436  -0.76037  -0.75676
 Alpha  occ. eigenvalues --   -0.74975  -0.74684  -0.74575  -0.73648  -0.71789
 Alpha  occ. eigenvalues --   -0.71703  -0.71090  -0.70100  -0.68894  -0.68362
 Alpha  occ. eigenvalues --   -0.66829  -0.66505  -0.65410  -0.64786  -0.63880
 Alpha  occ. eigenvalues --   -0.63724  -0.62993  -0.61988  -0.61624  -0.61565
 Alpha  occ. eigenvalues --   -0.61149  -0.61015  -0.60756  -0.59939  -0.59071
 Alpha  occ. eigenvalues --   -0.58535  -0.58190  -0.57670  -0.56934  -0.56662
 Alpha  occ. eigenvalues --   -0.56014  -0.55475  -0.54943  -0.54886  -0.54638
 Alpha  occ. eigenvalues --   -0.54167  -0.54035  -0.53482  -0.53241  -0.53161
 Alpha  occ. eigenvalues --   -0.52825  -0.52602  -0.52144  -0.51935  -0.51625
 Alpha  occ. eigenvalues --   -0.51108  -0.51019  -0.50905  -0.50760  -0.50714
 Alpha  occ. eigenvalues --   -0.50455  -0.50066  -0.49864  -0.49769  -0.49666
 Alpha  occ. eigenvalues --   -0.48999  -0.48891  -0.48728  -0.48408  -0.48248
 Alpha  occ. eigenvalues --   -0.48069  -0.47857  -0.47686  -0.47545  -0.47521
 Alpha  occ. eigenvalues --   -0.47364  -0.47166  -0.46900  -0.46490  -0.46068
 Alpha  occ. eigenvalues --   -0.45768  -0.45628  -0.45605  -0.45381  -0.45135
 Alpha  occ. eigenvalues --   -0.44963  -0.44659  -0.44435  -0.44410  -0.44172
 Alpha  occ. eigenvalues --   -0.43976  -0.43952  -0.43797  -0.43664  -0.43530
 Alpha  occ. eigenvalues --   -0.43334  -0.43170  -0.42984  -0.42565  -0.42494
 Alpha  occ. eigenvalues --   -0.42130  -0.41927  -0.41664  -0.41495  -0.41402
 Alpha  occ. eigenvalues --   -0.41319  -0.41149  -0.41009  -0.40771  -0.40576
 Alpha  occ. eigenvalues --   -0.40482  -0.39638  -0.39539  -0.39225  -0.38980
 Alpha  occ. eigenvalues --   -0.38784  -0.38390  -0.38363  -0.37738  -0.37531
 Alpha  occ. eigenvalues --   -0.37226  -0.36918  -0.36771  -0.36585  -0.36536
 Alpha  occ. eigenvalues --   -0.36301  -0.36096  -0.35992  -0.35832  -0.35263
 Alpha  occ. eigenvalues --   -0.34951  -0.34575  -0.34403  -0.34104  -0.33604
 Alpha  occ. eigenvalues --   -0.33313  -0.33182  -0.32449  -0.30931  -0.30445
 Alpha  occ. eigenvalues --   -0.29483  -0.29022  -0.28550  -0.28106  -0.22481
 Alpha  occ. eigenvalues --   -0.21044
 Alpha virt. eigenvalues --   -0.05709  -0.03041   0.01737   0.04330   0.05594
 Alpha virt. eigenvalues --    0.05902   0.06889   0.07041   0.07086   0.07587
 Alpha virt. eigenvalues --    0.08366   0.10681   0.11021   0.11277   0.11791

 Mulliken charges:
               1
     1  Mg   0.834001
     2  C    0.103225
     3  C   -0.203211
     4  C   -0.193046
     5  C   -0.204153
     6  N   -0.611345
     7  C    0.311472
     8  C   -0.135177
     9  C   -0.151193
    10  C    0.310794
    11  C   -0.311129
    12  C   -0.188896
    13  C   -0.264819
    14  C    0.590451
    15  O   -0.464553
    16  O   -0.499129
    17  N   -0.746117
    18  C    0.322564
    19  C    0.007113
    20  C    0.021395
    21  C    0.328773
    22  C   -0.384414
    23  C   -0.037372
    24  C   -0.258248
    25  N   -0.691014
    26  C    0.298371
    27  C    0.028756
    28  C    0.032996
    29  C    0.290216
    30  C   -0.383003
    31  C   -0.226833
    32  C   -0.303149
    33  N   -0.727330
    34  C    0.281400
    35  C    0.063667
    36  C    0.020449
    37  C    0.261127
    38  C   -0.373435
    39  C    0.342622
    40  O   -0.451118
    41  C   -0.365593
    42  C    0.642722
    43  O   -0.476536
    44  O   -0.470556
    45  C   -0.085259
    46  C    0.008141
    47  C   -0.132400
    48  C    0.117985
    49  C   -0.354972
    50  C   -0.224358
    51  C   -0.169941
    52  C   -0.162240
    53  C   -0.065898
    54  C   -0.294577
    55  C   -0.191213
    56  C   -0.180287
    57  C   -0.151029
    58  C   -0.056527
    59  C   -0.298542
    60  C   -0.176923
    61  C   -0.154627
    62  C   -0.137408
    63  C   -0.054508
    64  C   -0.299628
    65  C   -0.307605
    66  H    0.073860
    67  H    0.063213
    68  H    0.076229
    69  H    0.129723
    70  H    0.108126
    71  H    0.096285
    72  H    0.124191
    73  H    0.136454
    74  H    0.138936
    75  H    0.100769
    76  H    0.133673
    77  H    0.142464
    78  H    0.134098
    79  H    0.122873
    80  H    0.124188
    81  H    0.091807
    82  H    0.089573
    83  H    0.116368
    84  H    0.135163
    85  H    0.107140
    86  H    0.099529
    87  H    0.115808
    88  H    0.113662
    89  H    0.104759
    90  H    0.112211
    91  H    0.105859
    92  H    0.076499
    93  H    0.151431
    94  H    0.125763
    95  H    0.163235
    96  H    0.128321
    97  H    0.118064
    98  H    0.129651
    99  H    0.138753
   100  H    0.124960
   101  H    0.084185
   102  H    0.113599
   103  H    0.088020
   104  H    0.132249
   105  H    0.094547
   106  H    0.094939
   107  H    0.125599
   108  H    0.081753
   109  H    0.091176
   110  H    0.086861
   111  H    0.059103
   112  H    0.097228
   113  H    0.114283
   114  H    0.083694
   115  H    0.077375
   116  H    0.100058
   117  H    0.075577
   118  H    0.079353
   119  H    0.091085
   120  H    0.100421
   121  H    0.058887
   122  H    0.099179
   123  H    0.086194
   124  H    0.100994
   125  H    0.094359
   126  H    0.076700
   127  H    0.063831
   128  H    0.056578
   129  H    0.105553
   130  H    0.069752
   131  H    0.053628
   132  H    0.112415
   133  H    0.109502
   134  H    0.110574
   135  H    0.077794
   136  H    0.103437
   137  H    0.096956
 Sum of Mulliken charges =   0.00000

 Dipole moment (field-independent basis, Debye):
    X=              2.3276    Y=              4.9481    Z=              0.4868  Tot=              5.4899
 Quadrupole moment (field-independent basis, Debye-Ang):
   XX=           -341.0913   YY=           -395.2144   ZZ=           -398.7723
   XY=            -19.9594   XZ=             15.5391   YZ=              0.9350

 Normal termination of Gaussian 09 at Tue Jul  2 22:35:48 2019.
