 Gaussian 09, Revision D.01,
 Gaussian 09:  ES64L-G09RevD.01 24-Apr-2013

 -------------------------------------
 # td=(NStates=1) CAM-B3LYP/6-31G(d,p)
 -------------------------------------

 --
 TD
 --
 Symbolic Z-matrix:
 Charge =  0 Multiplicity = 1

                         Standard orientation:
 ---------------------------------------------------------------------
 Center     Atomic      Atomic             Coordinates (Angstroms)
 Number     Number       Type             X           Y           Z
 ---------------------------------------------------------------------
      1         12           0       -7.177126    0.669210    0.007026
      2          6           0       -4.944437   -1.935276    0.478437
      3          6           0       -4.656405    2.777354    1.055655
      4          6           0       -9.365816    3.107656   -0.367740
      5          6           0       -9.545607   -1.700272   -0.895460
      6          7           0       -5.149121    0.390034    0.837425
      7          6           0       -4.347595   -0.701684    0.828424
      8          6           0       -2.927337   -0.370069    1.233984
      9          6           0       -3.052967    1.096839    1.713305
     10          6           0       -4.345825    1.495604    1.135621
     11          6           0       -3.089683    1.116054    3.322129
     12          6           0       -1.962016   -0.697175    0.102481
     13          6           0       -0.530736   -0.404693    0.568337
     14          6           0        0.405628   -0.594865   -0.599391
     15          8           0        0.194383   -1.110436   -1.676834
     16          8           0        1.723468   -0.306053   -0.197363
     17          7           0       -7.019133    2.671400    0.310124
     18          6           0       -5.970229    3.379666    0.703488
     19          6           0       -6.370382    4.753758    0.751811
     20          6           0       -7.690128    4.868181    0.321774
     21          6           0       -8.117993    3.475569    0.078555
     22          6           0       -5.431794    5.907308    1.251881
     23          6           0       -8.420280    6.044556    0.113992
     24          6           0       -8.379075    7.165679    0.893068
     25          7           0       -9.090644    0.669659   -0.553376
     26          6           0       -9.849147    1.827536   -0.589881
     27          6           0      -11.189580    1.485243   -1.025055
     28          6           0      -11.163693    0.104338   -1.316002
     29          6           0       -9.945127   -0.380042   -0.864641
     30          6           0      -12.313748    2.488951   -1.413977
     31          6           0      -12.331457   -0.743374   -1.855388
     32          6           0      -12.273266   -1.248061   -3.361953
     33          7           0       -7.197135   -1.399184   -0.222082
     34          6           0       -8.297208   -2.250553   -0.603708
     35          6           0       -7.886600   -3.545328   -0.579194
     36          6           0       -6.502865   -3.547523   -0.222342
     37          6           0       -6.216536   -2.196169   -0.019690
     38          6           0       -8.677051   -4.878039   -0.799494
     39          6           0       -5.379839   -4.297613    0.192509
     40          8           0       -5.256759   -5.550964    0.304376
     41          6           0       -4.155052   -3.305476    0.559585
     42          6           0       -3.571422   -3.648945    1.983521
     43          8           0       -3.785900   -3.153288    3.033923
     44          8           0       -2.745775   -4.736604    1.773827
     45          6           0       -2.296268   -5.309939    2.986399
     46          6           0        2.733050   -0.620519   -1.112765
     47          6           0        4.021295   -0.344667   -0.497659
     48          6           0        5.124418    0.395161   -0.961753
     49          6           0        5.144821    1.156739   -2.181613
     50          6           0        6.380876    0.428012   -0.105439
     51          6           0        7.668490    0.037486   -0.982086
     52          6           0        8.915216   -0.025077   -0.150250
     53          6           0       10.197591   -0.493342   -0.815487
     54          6           0       10.119145   -1.968725   -1.306373
     55          6           0       11.480408   -0.307098    0.033299
     56          6           0       12.817967   -0.416687   -0.770849
     57          6           0       14.014930   -0.154275    0.124258
     58          6           0       15.400799   -0.261708   -0.623715
     59          6           0       15.710916   -1.578065   -1.064245
     60          6           0       16.429314    0.354329    0.437781
     61          6           0       17.747688    0.570219   -0.239202
     62          6           0       18.871046    1.069525    0.728873
     63          6           0       20.341550    1.216138    0.229797
     64          6           0       20.437533    2.134218   -1.050259
     65          6           0       21.228372    1.715373    1.322643
     66          1           0       -3.950844    3.564460    1.412096
     67          1           0       -9.896506    3.925372   -0.535595
     68          1           0      -10.165033   -2.536129   -0.966356
     69          1           0       -2.757985   -1.102125    2.051642
     70          1           0       -2.227205    1.579006    1.288336
     71          1           0       -2.203297    0.555643    3.687543
     72          1           0       -3.175597    2.148419    3.513986
     73          1           0       -4.057541    0.462876    3.626853
     74          1           0       -2.161280   -1.685596   -0.238127
     75          1           0       -2.391296   -0.209399   -0.948185
     76          1           0       -0.558541    0.660523    1.027572
     77          1           0       -0.287298   -0.903598    1.494541
     78          1           0       -5.540707    6.772807    0.615652
     79          1           0       -5.975654    5.944207    2.282135
     80          1           0       -4.367055    5.775271    1.142217
     81          1           0       -9.250624    6.106403   -0.888868
     82          1           0       -9.073874    8.126283    0.467803
     83          1           0       -7.786862    7.368589    1.888294
     84          1           0      -11.989877    3.170368   -2.224869
     85          1           0      -13.344405    1.961830   -1.424534
     86          1           0      -12.461227    3.060031   -0.503884
     87          1           0      -12.396226   -1.670927   -1.277943
     88          1           0      -13.235709   -0.078938   -1.728710
     89          1           0      -13.137608   -1.679001   -3.640279
     90          1           0      -12.180867   -0.360473   -3.869417
     91          1           0      -11.403072   -2.017105   -3.533744
     92          1           0       -9.191622   -4.912661   -1.888470
     93          1           0       -8.000218   -5.747267   -0.779026
     94          1           0       -9.747361   -4.775278   -0.226701
     95          1           0       -3.307446   -3.583996   -0.147768
     96          1           0       -1.646465   -4.688048    3.594215
     97          1           0       -2.983130   -5.778105    3.615022
     98          1           0       -1.588173   -6.158453    2.394180
     99          1           0        2.611205   -1.695209   -1.492292
    100          1           0        2.640231    0.037704   -2.066655
    101          1           0        3.972610   -1.032623    0.484554
    102          1           0        3.978641    1.470881   -2.673548
    103          1           0        5.642780    2.128552   -2.138526
    104          1           0        5.533296    0.808890   -3.199288
    105          1           0        6.584909    1.533060   -0.062409
    106          1           0        6.192088   -0.136331    0.783876
    107          1           0        7.541039   -1.041275   -1.356885
    108          1           0        7.563322    0.923610   -1.716055
    109          1           0        9.062490    1.091172    0.455466
    110          1           0        8.758918   -0.406667    0.661780
    111          1           0       10.385937    0.134274   -1.872644
    112          1           0        9.293545   -2.300352   -1.969348
    113          1           0       10.862965   -2.105348   -2.147794
    114          1           0       10.085070   -2.769653   -0.502032
    115          1           0       11.505603    0.746430    0.521636
    116          1           0       11.440648   -0.892548    0.979225
    117          1           0       12.984649   -1.403342   -1.363795
    118          1           0       12.530015    0.471932   -1.594163
    119          1           0       14.093938    0.807572    0.640687
    120          1           0       14.049314   -0.934470    0.887415
    121          1           0       15.356913    0.432373   -1.312094
    122          1           0       15.767112   -2.108879   -0.086728
    123          1           0       14.860878   -2.062022   -1.646521
    124          1           0       16.667409   -1.672861   -1.520436
    125          1           0       16.129913    1.345134    0.928539
    126          1           0       16.689821   -0.315758    1.382228
    127          1           0       18.149435   -0.267597   -0.660229
    128          1           0       17.648311    1.317332   -1.093350
    129          1           0       18.527871    2.030589    1.206613
    130          1           0       18.935623    0.410649    1.676272
    131          1           0       20.566617    0.221554   -0.032593
    132          1           0       20.086847    3.235966   -0.851493
    133          1           0       21.521611    2.287573   -1.182493
    134          1           0       20.072093    1.714778   -1.854774
    135          1           0       21.143118    1.116329    2.361057
    136          1           0       22.433458    1.838036    1.309698
    137          1           0       20.889438    2.773040    1.589147
 ---------------------------------------------------------------------

 SCF Done:  E(RCAM-B3LYP) =  -2932.63740247     A.U. after   15 cycles

 Excitation energies and oscillator strengths:

 Excited State   1:      Singlet-A      2.0654 eV  600.29 nm  f=0.3023  <S**2>=0.000
     240 -> 242       -0.16609
     240 -> 243        0.21416
     241 -> 242        0.63996
 This state for optimization and/or second-order correction.
 Total Energy, E(TD-HF/TD-KS) =  -2932.56150023
 Copying the excited state density for this state as the 1-particle RhoCI density.

 The electronic state is 1-A.
 Alpha  occ. eigenvalues --  -46.84514 -19.25537 -19.25249 -19.22170 -19.21782
 Alpha  occ. eigenvalues --  -19.18780 -14.40964 -14.40059 -14.39674 -14.38320
 Alpha  occ. eigenvalues --  -10.40102 -10.38947 -10.34302 -10.31176 -10.30905
 Alpha  occ. eigenvalues --  -10.30749 -10.30599 -10.29886 -10.29794 -10.29750
 Alpha  occ. eigenvalues --  -10.29475 -10.29409 -10.29138 -10.29090 -10.28848
 Alpha  occ. eigenvalues --  -10.28773 -10.28689 -10.28635 -10.28341 -10.27939
 Alpha  occ. eigenvalues --  -10.27859 -10.27828 -10.27711 -10.27704 -10.27579
 Alpha  occ. eigenvalues --  -10.27354 -10.27323 -10.27233 -10.27226 -10.27199
 Alpha  occ. eigenvalues --  -10.27184 -10.27115 -10.27064 -10.27041 -10.27029
 Alpha  occ. eigenvalues --  -10.26887 -10.26813 -10.26600 -10.26312 -10.26271
 Alpha  occ. eigenvalues --  -10.26259 -10.26137 -10.26033 -10.26030 -10.26014
 Alpha  occ. eigenvalues --  -10.25468 -10.25388 -10.24818 -10.24802 -10.24727
 Alpha  occ. eigenvalues --  -10.24653 -10.24483 -10.24253 -10.24183 -10.24123
 Alpha  occ. eigenvalues --   -3.13511  -1.88223  -1.87760  -1.87672  -1.18168
 Alpha  occ. eigenvalues --   -1.17432  -1.10348  -1.09530  -1.07226  -1.05021
 Alpha  occ. eigenvalues --   -1.04617  -1.03354  -1.02701  -0.91656  -0.91101
 Alpha  occ. eigenvalues --   -0.90818  -0.90397  -0.89895  -0.89279  -0.88952
 Alpha  occ. eigenvalues --   -0.88227  -0.88141  -0.87649  -0.87318  -0.85744
 Alpha  occ. eigenvalues --   -0.84813  -0.84140  -0.83306  -0.82937  -0.82586
 Alpha  occ. eigenvalues --   -0.81769  -0.81012  -0.80186  -0.79709  -0.78208
 Alpha  occ. eigenvalues --   -0.77678  -0.77327  -0.76037  -0.75566  -0.75559
 Alpha  occ. eigenvalues --   -0.75185  -0.74769  -0.73546  -0.73238  -0.72681
 Alpha  occ. eigenvalues --   -0.72117  -0.70560  -0.70150  -0.68754  -0.68071
 Alpha  occ. eigenvalues --   -0.67220  -0.66319  -0.65678  -0.64882  -0.64376
 Alpha  occ. eigenvalues --   -0.64142  -0.63851  -0.63039  -0.62697  -0.62520
 Alpha  occ. eigenvalues --   -0.62326  -0.60998  -0.60537  -0.59594  -0.59414
 Alpha  occ. eigenvalues --   -0.58671  -0.57811  -0.57579  -0.57144  -0.56038
 Alpha  occ. eigenvalues --   -0.55745  -0.55505  -0.55272  -0.55138  -0.54648
 Alpha  occ. eigenvalues --   -0.54315  -0.53901  -0.53500  -0.53139  -0.53032
 Alpha  occ. eigenvalues --   -0.52690  -0.52622  -0.51879  -0.51777  -0.51641
 Alpha  occ. eigenvalues --   -0.51468  -0.51311  -0.51132  -0.51027  -0.50596
 Alpha  occ. eigenvalues --   -0.50377  -0.50197  -0.49784  -0.49597  -0.49402
 Alpha  occ. eigenvalues --   -0.49254  -0.49158  -0.48989  -0.48635  -0.48268
 Alpha  occ. eigenvalues --   -0.48082  -0.47843  -0.47789  -0.47523  -0.47086
 Alpha  occ. eigenvalues --   -0.46899  -0.46807  -0.46485  -0.46239  -0.45988
 Alpha  occ. eigenvalues --   -0.45811  -0.45615  -0.45563  -0.45283  -0.45008
 Alpha  occ. eigenvalues --   -0.44956  -0.44799  -0.44272  -0.44091  -0.43620
 Alpha  occ. eigenvalues --   -0.43364  -0.43018  -0.42934  -0.42772  -0.42358
 Alpha  occ. eigenvalues --   -0.42293  -0.42081  -0.41881  -0.41709  -0.41605
 Alpha  occ. eigenvalues --   -0.41383  -0.41183  -0.41119  -0.41020  -0.40821
 Alpha  occ. eigenvalues --   -0.40728  -0.40540  -0.40370  -0.40336  -0.40248
 Alpha  occ. eigenvalues --   -0.40027  -0.39785  -0.39606  -0.39559  -0.39326
 Alpha  occ. eigenvalues --   -0.39151  -0.38986  -0.38400  -0.37870  -0.37710
 Alpha  occ. eigenvalues --   -0.37540  -0.37399  -0.37154  -0.37043  -0.36746
 Alpha  occ. eigenvalues --   -0.36627  -0.36575  -0.35978  -0.35904  -0.35678
 Alpha  occ. eigenvalues --   -0.35651  -0.35245  -0.34731  -0.34459  -0.33756
 Alpha  occ. eigenvalues --   -0.33514  -0.33121  -0.32617  -0.31406  -0.29092
 Alpha  occ. eigenvalues --   -0.28881  -0.28160  -0.28109  -0.27603  -0.23593
 Alpha  occ. eigenvalues --   -0.21878
 Alpha virt. eigenvalues --   -0.07466  -0.03554   0.02250   0.03833   0.04431
 Alpha virt. eigenvalues --    0.04834   0.05455   0.06235   0.06856   0.07600
 Alpha virt. eigenvalues --    0.08252   0.09601   0.10582   0.11033   0.11305

 Mulliken charges:
               1
     1  Mg   0.824244
     2  C    0.004294
     3  C   -0.209281
     4  C   -0.113968
     5  C   -0.150047
     6  N   -0.629565
     7  C    0.302915
     8  C   -0.168206
     9  C   -0.152866
    10  C    0.373571
    11  C   -0.290876
    12  C   -0.175566
    13  C   -0.275797
    14  C    0.630001
    15  O   -0.451653
    16  O   -0.492557
    17  N   -0.732750
    18  C    0.332304
    19  C   -0.061735
    20  C    0.062631
    21  C    0.286904
    22  C   -0.353506
    23  C   -0.113457
    24  C   -0.235558
    25  N   -0.718214
    26  C    0.323366
    27  C   -0.031885
    28  C    0.048641
    29  C    0.296869
    30  C   -0.370085
    31  C   -0.247724
    32  C   -0.306655
    33  N   -0.733557
    34  C    0.243930
    35  C    0.031838
    36  C    0.044656
    37  C    0.343421
    38  C   -0.367471
    39  C    0.323794
    40  O   -0.501572
    41  C   -0.306808
    42  C    0.618717
    43  O   -0.448589
    44  O   -0.445873
    45  C   -0.081082
    46  C    0.028833
    47  C   -0.135838
    48  C    0.161064
    49  C   -0.392726
    50  C   -0.242532
    51  C   -0.169330
    52  C   -0.125806
    53  C   -0.041957
    54  C   -0.320847
    55  C   -0.171845
    56  C   -0.163197
    57  C   -0.175251
    58  C   -0.045880
    59  C   -0.302775
    60  C   -0.189221
    61  C   -0.175131
    62  C   -0.179449
    63  C   -0.051390
    64  C   -0.305427
    65  C   -0.301049
    66  H    0.080701
    67  H    0.069233
    68  H    0.083437
    69  H    0.123841
    70  H    0.102515
    71  H    0.112902
    72  H    0.118449
    73  H    0.120968
    74  H    0.135466
    75  H    0.098221
    76  H    0.130982
    77  H    0.157479
    78  H    0.130630
    79  H    0.130057
    80  H    0.118323
    81  H    0.083434
    82  H    0.084620
    83  H    0.113397
    84  H    0.132097
    85  H    0.110917
    86  H    0.126087
    87  H    0.107099
    88  H    0.093502
    89  H    0.119375
    90  H    0.121371
    91  H    0.095112
    92  H    0.102484
    93  H    0.165826
    94  H    0.113389
    95  H    0.157727
    96  H    0.119275
    97  H    0.140392
    98  H    0.094998
    99  H    0.118921
   100  H    0.088771
   101  H    0.079094
   102  H    0.077530
   103  H    0.120010
   104  H    0.133075
   105  H    0.104695
   106  H    0.104784
   107  H    0.098817
   108  H    0.092849
   109  H    0.028153
   110  H    0.106469
   111  H    0.054521
   112  H    0.099655
   113  H    0.101774
   114  H    0.100482
   115  H    0.083808
   116  H    0.086354
   117  H    0.091167
   118  H    0.064108
   119  H    0.092658
   120  H    0.092053
   121  H    0.096925
   122  H    0.097951
   123  H    0.097650
   124  H    0.108505
   125  H    0.088947
   126  H    0.072965
   127  H    0.101613
   128  H    0.085783
   129  H    0.076116
   130  H    0.071515
   131  H    0.096698
   132  H    0.087970
   133  H    0.099709
   134  H    0.114261
   135  H    0.080074
   136  H    0.086956
   137  H    0.096872
 Sum of Mulliken charges =   0.00000

 Dipole moment (field-independent basis, Debye):
    X=             -0.1236    Y=              5.5703    Z=             -0.1925  Tot=              5.5750
 Quadrupole moment (field-independent basis, Debye-Ang):
   XX=           -335.2665   YY=           -398.4345   ZZ=           -396.3390
   XY=            -32.8847   XZ=             11.3027   YZ=              0.2783

 Normal termination of Gaussian 09 at Sat Jul  6 22:32:22 2019.
