 Gaussian 16, Revision A.03,
 Gaussian 16:  ES64L-G16RevA.03 25-Dec-2016

 ----------------------------------------------------------------------
 # td=(NStates=1) iop(3/107=0140000000,3/108=0140000000) CAM-B3LYP/6-31
 G(d,p)
 ----------------------------------------------------------------------

 --
 TD
 --
 Symbolic Z-matrix:
 Charge =  0 Multiplicity = 1

                         Standard orientation:
 ---------------------------------------------------------------------
 Center     Atomic      Atomic             Coordinates (Angstroms)
 Number     Number       Type             X           Y           Z
 ---------------------------------------------------------------------
      1         12           0       -7.125044    0.559901   -0.052422
      2          6           0       -4.869419   -1.880856    0.501884
      3          6           0       -4.899967    2.836788    1.163611
      4          6           0       -9.454204    2.973007   -0.404113
      5          6           0       -9.586249   -1.817643   -0.887343
      6          7           0       -5.107624    0.476192    0.795093
      7          6           0       -4.322543   -0.637383    0.859577
      8          6           0       -2.955261   -0.363704    1.237294
      9          6           0       -3.096452    1.145419    1.749545
     10          6           0       -4.458915    1.559866    1.186361
     11          6           0       -3.056177    1.267050    3.284532
     12          6           0       -1.891284   -0.555164    0.249869
     13          6           0       -0.498249   -0.404442    0.580386
     14          6           0        0.506422   -0.641723   -0.542545
     15          8           0        0.298218   -1.044162   -1.652928
     16          8           0        1.796374   -0.412875   -0.222155
     17          7           0       -7.074450    2.610422    0.285720
     18          6           0       -6.061903    3.423803    0.718366
     19          6           0       -6.471062    4.762152    0.863144
     20          6           0       -7.764903    4.866350    0.305903
     21          6           0       -8.231056    3.465942    0.055120
     22          6           0       -5.594465    5.954586    1.177120
     23          6           0       -8.630601    6.012712    0.058732
     24          6           0       -8.548080    7.295279    0.624347
     25          7           0       -9.157920    0.605130   -0.527628
     26          6           0       -9.835154    1.735200   -0.798800
     27          6           0      -11.154284    1.376374   -1.177030
     28          6           0      -11.185528    0.036894   -1.266255
     29          6           0       -9.974479   -0.484318   -0.847102
     30          6           0      -12.283793    2.413158   -1.442841
     31          6           0      -12.317420   -0.774505   -1.863175
     32          6           0      -12.075512   -1.218387   -3.332698
     33          7           0       -7.313031   -1.378506   -0.131142
     34          6           0       -8.267930   -2.286866   -0.610908
     35          6           0       -7.693103   -3.643674   -0.596651
     36          6           0       -6.452808   -3.558992   -0.077856
     37          6           0       -6.264405   -2.176758    0.060416
     38          6           0       -8.564715   -4.902396   -0.922272
     39          6           0       -5.171611   -4.321956    0.154847
     40          8           0       -4.938528   -5.499880    0.182318
     41          6           0       -4.147109   -3.215372    0.539240
     42          6           0       -3.563188   -3.622507    1.959835
     43          8           0       -3.896448   -3.125708    2.995503
     44          8           0       -2.653642   -4.589479    1.741496
     45          6           0       -2.088190   -5.077658    2.974073
     46          6           0        2.800418   -0.576837   -1.274781
     47          6           0        4.149740   -0.505552   -0.465989
     48          6           0        5.243774    0.296926   -0.757101
     49          6           0        5.176508    1.180760   -2.079434
     50          6           0        6.458797    0.394418    0.023738
     51          6           0        7.628929   -0.136362   -0.840559
     52          6           0        8.850981   -0.246091   -0.035305
     53          6           0       10.211004   -0.676117   -0.729444
     54          6           0       10.158770   -2.120829   -1.141751
     55          6           0       11.413552   -0.255230    0.085678
     56          6           0       12.795772   -0.513736   -0.606352
     57          6           0       13.978801   -0.160350    0.229822
     58          6           0       15.350768   -0.266334   -0.505872
     59          6           0       15.655081   -1.743661   -0.881970
     60          6           0       16.439235    0.390723    0.458065
     61          6           0       17.710361    0.519406   -0.218585
     62          6           0       18.806548    1.357556    0.638799
     63          6           0       20.218108    1.460992    0.043179
     64          6           0       20.162033    2.165433   -1.357460
     65          6           0       21.117971    2.075282    0.978430
     66          1           0       -4.318779    3.515890    1.522104
     67          1           0      -10.221894    3.717202   -0.534401
     68          1           0      -10.418604   -2.565555   -1.221775
     69          1           0       -2.769971   -1.039109    2.277782
     70          1           0       -2.056074    1.590302    1.367741
     71          1           0       -2.240491    1.034687    3.833284
     72          1           0       -3.298409    2.244810    3.610435
     73          1           0       -3.791920    0.267036    3.681884
     74          1           0       -1.898126   -1.570408   -0.022497
     75          1           0       -2.086839    0.106261   -0.576702
     76          1           0       -0.216499    0.524201    1.207757
     77          1           0       -0.037768   -1.092783    1.435677
     78          1           0       -5.741785    6.777630    0.463590
     79          1           0       -5.577282    6.127914    2.135338
     80          1           0       -4.582593    5.501394    0.955844
     81          1           0       -9.492094    5.664906   -0.588289
     82          1           0       -9.210208    8.141031    0.334470
     83          1           0       -7.632164    7.476246    1.230176
     84          1           0      -11.967290    3.080729   -2.292143
     85          1           0      -13.172148    1.840644   -1.697704
     86          1           0      -12.208824    3.004206   -0.616229
     87          1           0      -12.672795   -1.637738   -1.474960
     88          1           0      -13.188855   -0.159794   -1.953190
     89          1           0      -12.880571   -1.944339   -3.741197
     90          1           0      -11.768503   -0.404662   -4.040978
     91          1           0      -11.328170   -1.996332   -3.424754
     92          1           0       -8.953575   -4.973414   -1.911495
     93          1           0       -8.048748   -5.802237   -0.669990
     94          1           0       -9.487502   -4.735778   -0.218969
     95          1           0       -3.394515   -3.285152   -0.119174
     96          1           0       -1.341244   -4.199473    3.388562
     97          1           0       -2.914665   -5.191399    3.505886
     98          1           0       -1.487781   -6.056642    2.725733
     99          1           0        2.810403   -1.563547   -1.689261
    100          1           0        2.673283    0.273397   -1.950280
    101          1           0        4.230244   -0.864355    0.526271
    102          1           0        4.129156    1.301096   -2.607408
    103          1           0        5.548893    2.180423   -1.843920
    104          1           0        6.042984    0.927550   -2.781417
    105          1           0        6.635848    1.451976    0.413668
    106          1           0        6.258398   -0.330548    0.887857
    107          1           0        7.433095   -1.126405   -1.204492
    108          1           0        7.742509    0.576855   -1.574126
    109          1           0        9.003699    0.749364    0.314940
    110          1           0        8.669309   -0.794731    0.816347
    111          1           0       10.271384   -0.074690   -1.634426
    112          1           0        9.192284   -2.143335   -1.608907
    113          1           0       10.969439   -2.189074   -1.809456
    114          1           0       10.320332   -2.630743   -0.125427
    115          1           0       11.428854    0.682155    0.471590
    116          1           0       11.427430   -0.653337    1.114724
    117          1           0       12.711149   -1.631916   -0.701076
    118          1           0       12.847886   -0.278997   -1.695339
    119          1           0       13.886339    0.838668    0.568981
    120          1           0       13.862512   -0.691180    1.131702
    121          1           0       15.050684    0.396617   -1.389721
    122          1           0       15.728927   -2.643497   -0.220670
    123          1           0       14.772266   -2.146621   -1.555633
    124          1           0       16.615393   -1.627176   -1.536266
    125          1           0       16.022705    1.426115    0.709511
    126          1           0       16.407779   -0.040163    1.597603
    127          1           0       18.361794   -0.242890   -0.658934
    128          1           0       17.460839    0.959110   -1.146274
    129          1           0       18.238898    2.273252    1.067034
    130          1           0       19.027289    0.886313    1.613222
    131          1           0       20.534702    0.353863   -0.003605
    132          1           0       19.938761    3.183165   -1.238093
    133          1           0       21.269515    2.052442   -1.661171
    134          1           0       19.600666    1.689575   -2.098252
    135          1           0       21.145295    1.506407    2.115865
    136          1           0       22.067275    2.287894    0.441313
    137          1           0       20.871067    3.097996    1.106277
 ---------------------------------------------------------------------

 SCF Done:  E(RCAM-B3LYP) =  -2933.52865529     A.U. after   16 cycles

 Excitation energies and oscillator strengths:

 Excited State   1:      Singlet-A      2.1008 eV  590.18 nm  f=0.2071  <S**2>=0.000
     240 -> 243        0.27761
     241 -> 242        0.64391
 This state for optimization and/or second-order correction.
 Total Energy, E(TD-HF/TD-DFT) =  -2933.45145311
 Copying the excited state density for this state as the 1-particle RhoCI density.

 The electronic state is 1-A.
 Alpha  occ. eigenvalues --  -46.79989 -19.22568 -19.20827 -19.17583 -19.16992
 Alpha  occ. eigenvalues --  -19.15883 -14.37171 -14.35695 -14.34711 -14.34053
 Alpha  occ. eigenvalues --  -10.34899 -10.34268 -10.31194 -10.27965 -10.27920
 Alpha  occ. eigenvalues --  -10.25825 -10.25694 -10.25309 -10.25270 -10.25055
 Alpha  occ. eigenvalues --  -10.24995 -10.24333 -10.24248 -10.24195 -10.24032
 Alpha  occ. eigenvalues --  -10.23870 -10.23800 -10.23532 -10.23159 -10.23157
 Alpha  occ. eigenvalues --  -10.23061 -10.22961 -10.22920 -10.22903 -10.22866
 Alpha  occ. eigenvalues --  -10.22610 -10.22557 -10.22381 -10.22338 -10.22105
 Alpha  occ. eigenvalues --  -10.22073 -10.21850 -10.21835 -10.21784 -10.21780
 Alpha  occ. eigenvalues --  -10.21342 -10.21240 -10.21152 -10.21106 -10.21086
 Alpha  occ. eigenvalues --  -10.20996 -10.20977 -10.20917 -10.20819 -10.20781
 Alpha  occ. eigenvalues --  -10.20652 -10.20546 -10.20290 -10.20225 -10.20163
 Alpha  occ. eigenvalues --  -10.19851 -10.19646 -10.19282 -10.19219 -10.19020
 Alpha  occ. eigenvalues --   -3.08539  -1.83471  -1.83035  -1.82924  -1.14006
 Alpha  occ. eigenvalues --   -1.13054  -1.07552  -1.05970  -1.03330  -1.00136
 Alpha  occ. eigenvalues --   -0.99332  -0.98153  -0.95971  -0.87374  -0.86713
 Alpha  occ. eigenvalues --   -0.86459  -0.85204  -0.84520  -0.84392  -0.83397
 Alpha  occ. eigenvalues --   -0.83331  -0.82761  -0.82684  -0.81931  -0.81134
 Alpha  occ. eigenvalues --   -0.80432  -0.79681  -0.78877  -0.78561  -0.77746
 Alpha  occ. eigenvalues --   -0.76784  -0.76429  -0.75861  -0.75043  -0.73524
 Alpha  occ. eigenvalues --   -0.73152  -0.72469  -0.71923  -0.71514  -0.71280
 Alpha  occ. eigenvalues --   -0.70780  -0.70623  -0.69587  -0.69091  -0.68235
 Alpha  occ. eigenvalues --   -0.66972  -0.66565  -0.65432  -0.65095  -0.64264
 Alpha  occ. eigenvalues --   -0.63040  -0.62739  -0.61260  -0.61045  -0.60460
 Alpha  occ. eigenvalues --   -0.59807  -0.59561  -0.58666  -0.58459  -0.58233
 Alpha  occ. eigenvalues --   -0.57677  -0.56737  -0.56444  -0.55685  -0.54877
 Alpha  occ. eigenvalues --   -0.54542  -0.54204  -0.53857  -0.53680  -0.53104
 Alpha  occ. eigenvalues --   -0.52473  -0.52144  -0.52037  -0.51580  -0.51245
 Alpha  occ. eigenvalues --   -0.50955  -0.50316  -0.50080  -0.49768  -0.49329
 Alpha  occ. eigenvalues --   -0.48899  -0.48579  -0.48505  -0.48335  -0.48250
 Alpha  occ. eigenvalues --   -0.47862  -0.47537  -0.47359  -0.47268  -0.46922
 Alpha  occ. eigenvalues --   -0.46870  -0.46766  -0.46577  -0.46376  -0.46224
 Alpha  occ. eigenvalues --   -0.45891  -0.45821  -0.45370  -0.45163  -0.45080
 Alpha  occ. eigenvalues --   -0.45019  -0.44701  -0.44554  -0.44067  -0.43821
 Alpha  occ. eigenvalues --   -0.43354  -0.43092  -0.42870  -0.42783  -0.42607
 Alpha  occ. eigenvalues --   -0.42584  -0.42478  -0.42130  -0.42059  -0.41798
 Alpha  occ. eigenvalues --   -0.41676  -0.41391  -0.41332  -0.41159  -0.40953
 Alpha  occ. eigenvalues --   -0.40817  -0.40655  -0.40417  -0.40104  -0.39914
 Alpha  occ. eigenvalues --   -0.39815  -0.39733  -0.39329  -0.39177  -0.39055
 Alpha  occ. eigenvalues --   -0.38829  -0.38576  -0.38498  -0.38355  -0.38237
 Alpha  occ. eigenvalues --   -0.38220  -0.38170  -0.37814  -0.37448  -0.37185
 Alpha  occ. eigenvalues --   -0.36921  -0.36623  -0.36448  -0.36360  -0.36102
 Alpha  occ. eigenvalues --   -0.35272  -0.34982  -0.34884  -0.34764  -0.34656
 Alpha  occ. eigenvalues --   -0.34328  -0.33979  -0.33657  -0.33427  -0.33418
 Alpha  occ. eigenvalues --   -0.33356  -0.32926  -0.32881  -0.32762  -0.32446
 Alpha  occ. eigenvalues --   -0.32383  -0.32306  -0.31049  -0.30885  -0.30498
 Alpha  occ. eigenvalues --   -0.29919  -0.29707  -0.29429  -0.28440  -0.28035
 Alpha  occ. eigenvalues --   -0.27472  -0.25964  -0.25417  -0.24265  -0.21231
 Alpha  occ. eigenvalues --   -0.20348
 Alpha virt. eigenvalues --   -0.06964  -0.03958  -0.00112   0.01791   0.03662
 Alpha virt. eigenvalues --    0.04395   0.04421   0.04667   0.05409   0.05985
 Alpha virt. eigenvalues --    0.06975   0.09116   0.09556   0.09637   0.10231

 Mulliken charges:
               1
     1  Mg   0.817238
     2  C    0.032473
     3  C   -0.152962
     4  C   -0.175696
     5  C   -0.189036
     6  N   -0.639785
     7  C    0.343911
     8  C   -0.179948
     9  C   -0.160296
    10  C    0.384411
    11  C   -0.294857
    12  C   -0.139483
    13  C   -0.285805
    14  C    0.606439
    15  O   -0.470488
    16  O   -0.487058
    17  N   -0.706004
    18  C    0.338045
    19  C   -0.012276
    20  C    0.026865
    21  C    0.269318
    22  C   -0.369362
    23  C   -0.071644
    24  C   -0.258382
    25  N   -0.704243
    26  C    0.328470
    27  C   -0.010654
    28  C    0.034204
    29  C    0.310873
    30  C   -0.356921
    31  C   -0.242298
    32  C   -0.324871
    33  N   -0.724076
    34  C    0.266579
    35  C   -0.037832
    36  C    0.051408
    37  C    0.306162
    38  C   -0.371972
    39  C    0.376263
    40  O   -0.439704
    41  C   -0.311287
    42  C    0.607277
    43  O   -0.458719
    44  O   -0.433155
    45  C   -0.073400
    46  C    0.043041
    47  C   -0.160121
    48  C    0.143010
    49  C   -0.375180
    50  C   -0.242543
    51  C   -0.170832
    52  C   -0.181140
    53  C   -0.077259
    54  C   -0.285795
    55  C   -0.178268
    56  C   -0.193609
    57  C   -0.174821
    58  C   -0.063221
    59  C   -0.302127
    60  C   -0.162923
    61  C   -0.169556
    62  C   -0.167394
    63  C   -0.054687
    64  C   -0.311896
    65  C   -0.292016
    66  H    0.030512
    67  H    0.069554
    68  H    0.093235
    69  H    0.098876
    70  H    0.081188
    71  H    0.122218
    72  H    0.113419
    73  H    0.081612
    74  H    0.129341
    75  H    0.126013
    76  H    0.125452
    77  H    0.122930
    78  H    0.131121
    79  H    0.138816
    80  H    0.104918
    81  H    0.080905
    82  H    0.112087
    83  H    0.101870
    84  H    0.115985
    85  H    0.115350
    86  H    0.137063
    87  H    0.109391
    88  H    0.102458
    89  H    0.085719
    90  H    0.109627
    91  H    0.105402
    92  H    0.130103
    93  H    0.142737
    94  H    0.113950
    95  H    0.155382
    96  H    0.101843
    97  H    0.150629
    98  H    0.125025
    99  H    0.143615
   100  H    0.121136
   101  H    0.083797
   102  H    0.100000
   103  H    0.110860
   104  H    0.112071
   105  H    0.104535
   106  H    0.089699
   107  H    0.105603
   108  H    0.104206
   109  H    0.083033
   110  H    0.091187
   111  H    0.077309
   112  H    0.101734
   113  H    0.110824
   114  H    0.095917
   115  H    0.092632
   116  H    0.073004
   117  H    0.090294
   118  H    0.080336
   119  H    0.084170
   120  H    0.094958
   121  H    0.090694
   122  H    0.113789
   123  H    0.084017
   124  H    0.089218
   125  H    0.088257
   126  H    0.070264
   127  H    0.092940
   128  H    0.097750
   129  H    0.065203
   130  H    0.078989
   131  H    0.081282
   132  H    0.115336
   133  H    0.083694
   134  H    0.115166
   135  H    0.078638
   136  H    0.091034
   137  H    0.107694
 Sum of Mulliken charges =  -0.00000

 Dipole moment (field-independent basis, Debye):
    X=              2.4545    Y=              3.6128    Z=              0.0303  Tot=              4.3678
 Quadrupole moment (field-independent basis, Debye-Ang):
   XX=           -362.7507   YY=           -389.1436   ZZ=           -397.0952
   XY=             -3.2692   XZ=             14.9832   YZ=             -3.4095

 Normal termination of Gaussian 16 at Tue Sep 24 10:59:37 2019.
