 Gaussian 09, Revision D.01,
 Gaussian 09:  ES64L-G09RevD.01 24-Apr-2013

 -------------------------------------
 # td=(NStates=1) CAM-B3LYP/6-31G(d,p)
 -------------------------------------

 --
 TD
 --
 Symbolic Z-matrix:
 Charge =  0 Multiplicity = 1

                         Standard orientation:
 ---------------------------------------------------------------------
 Center     Atomic      Atomic             Coordinates (Angstroms)
 Number     Number       Type             X           Y           Z
 ---------------------------------------------------------------------
      1         12           0       -7.186517    0.626217    0.034440
      2          6           0       -4.855650   -1.944892    0.497594
      3          6           0       -4.719615    2.831840    1.001775
      4          6           0       -9.486901    3.073288   -0.292726
      5          6           0       -9.533067   -1.836379   -0.872692
      6          7           0       -5.073334    0.481730    0.700930
      7          6           0       -4.338152   -0.697543    0.831350
      8          6           0       -2.880620   -0.258342    1.155394
      9          6           0       -2.931239    1.148099    1.644080
     10          6           0       -4.312921    1.543119    1.124483
     11          6           0       -2.955972    1.350626    3.233212
     12          6           0       -1.866500   -0.482551    0.026304
     13          6           0       -0.503434   -0.377048    0.502480
     14          6           0        0.531869   -0.757315   -0.647324
     15          8           0        0.331686   -1.193744   -1.691115
     16          8           0        1.807642   -0.496051   -0.233881
     17          7           0       -7.071193    2.639148    0.205743
     18          6           0       -5.989783    3.425404    0.724819
     19          6           0       -6.337105    4.862985    0.709177
     20          6           0       -7.722342    4.837520    0.411161
     21          6           0       -8.170714    3.504559    0.065930
     22          6           0       -5.491070    5.903164    1.109749
     23          6           0       -8.487354    6.099912    0.061694
     24          6           0       -8.460233    7.202611    0.747044
     25          7           0       -9.090046    0.589833   -0.535120
     26          6           0       -9.845106    1.756391   -0.614345
     27          6           0      -11.159985    1.443337   -1.154896
     28          6           0      -11.237972    0.055713   -1.271072
     29          6           0       -9.919450   -0.480563   -0.887322
     30          6           0      -12.299502    2.506896   -1.391413
     31          6           0      -12.399783   -0.851858   -1.714164
     32          6           0      -12.312409   -1.165032   -3.208283
     33          7           0       -7.256637   -1.409683   -0.098807
     34          6           0       -8.347002   -2.309458   -0.383979
     35          6           0       -7.822492   -3.681620   -0.309167
     36          6           0       -6.501357   -3.496564    0.009064
     37          6           0       -6.149275   -2.136372    0.057977
     38          6           0       -8.603627   -4.880927   -0.693398
     39          6           0       -5.226323   -4.349029    0.270591
     40          8           0       -5.006693   -5.561408    0.402788
     41          6           0       -4.135160   -3.220860    0.587583
     42          6           0       -3.545218   -3.577652    1.886126
     43          8           0       -3.769332   -3.149227    2.959545
     44          8           0       -2.501385   -4.532519    1.736833
     45          6           0       -2.033116   -5.252712    2.940230
     46          6           0        2.871297   -0.895102   -1.208970
     47          6           0        4.149079   -0.673753   -0.538749
     48          6           0        5.041842    0.237958   -1.093880
     49          6           0        4.877910    1.167263   -2.247007
     50          6           0        6.339791    0.398594   -0.345515
     51          6           0        7.574391   -0.232303   -1.007010
     52          6           0        8.925494   -0.110957   -0.271535
     53          6           0       10.174047   -0.653035   -0.958815
     54          6           0       10.006062   -2.105264   -1.454451
     55          6           0       11.388797   -0.274034   -0.065981
     56          6           0       12.778942   -0.746025   -0.603518
     57          6           0       13.980616   -0.201774    0.248230
     58          6           0       15.264432   -0.195640   -0.482493
     59          6           0       15.747383   -1.587561   -0.915289
     60          6           0       16.405887    0.476010    0.424200
     61          6           0       17.816648    0.454175   -0.045917
     62          6           0       18.766974    1.285159    0.939601
     63          6           0       20.130355    1.480280    0.246489
     64          6           0       20.168426    2.293458   -1.076774
     65          6           0       21.107448    2.174637    1.293568
     66          1           0       -3.995023    3.614735    1.465208
     67          1           0      -10.168156    4.032411   -0.288831
     68          1           0      -10.187790   -2.551181   -1.200368
     69          1           0       -2.607638   -0.965976    1.872127
     70          1           0       -2.159245    2.016328    1.347032
     71          1           0       -2.165529    1.133516    3.800418
     72          1           0       -2.940883    2.500361    3.498206
     73          1           0       -3.749388    0.520570    3.678383
     74          1           0       -2.002551   -1.457531   -0.202738
     75          1           0       -2.016650    0.121056   -0.919282
     76          1           0       -0.323913    0.689590    0.784956
     77          1           0       -0.183080   -0.912495    1.334587
     78          1           0       -5.687157    6.872917    0.531083
     79          1           0       -5.829608    6.104054    2.274932
     80          1           0       -4.505918    5.674270    0.693777
     81          1           0       -9.113698    6.118406   -0.938542
     82          1           0       -9.197833    8.116632    0.543436
     83          1           0       -8.052116    7.328541    1.983868
     84          1           0      -11.999156    3.050280   -2.417479
     85          1           0      -13.308220    1.875456   -1.358223
     86          1           0      -12.304681    3.264567   -0.704685
     87          1           0      -12.331039   -1.719528   -1.148066
     88          1           0      -13.328401   -0.371858   -1.554424
     89          1           0      -13.353180   -1.584094   -3.550972
     90          1           0      -12.183448   -0.269090   -3.920230
     91          1           0      -11.483422   -1.662818   -3.463847
     92          1           0       -8.932417   -5.024845   -1.688813
     93          1           0       -8.153009   -5.834423   -0.550234
     94          1           0       -9.541967   -4.679988   -0.071332
     95          1           0       -3.392617   -3.214318   -0.183672
     96          1           0       -1.247005   -4.596040    3.485932
     97          1           0       -2.782730   -5.269080    3.653195
     98          1           0       -1.478177   -6.044459    2.595138
     99          1           0        2.501078   -1.840394   -1.403664
    100          1           0        2.652004   -0.331834   -2.095107
    101          1           0        4.579722   -1.149188    0.315878
    102          1           0        3.980959    1.075094   -2.466144
    103          1           0        5.204814    2.200778   -2.017040
    104          1           0        5.426959    0.921281   -3.229090
    105          1           0        6.571467    1.390959   -0.204311
    106          1           0        6.102071   -0.162865    0.705215
    107          1           0        7.309083   -1.164044   -1.278582
    108          1           0        7.747897    0.396274   -1.923458
    109          1           0        9.068885    0.965515    0.090587
    110          1           0        8.917348   -0.717152    0.738335
    111          1           0       10.175168   -0.192834   -2.032567
    112          1           0        9.151246   -2.174134   -2.135676
    113          1           0       10.985823   -2.646712   -1.731338
    114          1           0        9.571839   -2.578727   -0.474053
    115          1           0       11.298915    0.868707    0.179069
    116          1           0       10.974558   -0.892132    0.847371
    117          1           0       12.722659   -1.838150   -0.926177
    118          1           0       12.946757   -0.254193   -1.626526
    119          1           0       13.664594    0.798575    0.935977
    120          1           0       13.868216   -0.954224    1.026263
    121          1           0       15.169355    0.389473   -1.376454
    122          1           0       16.233775   -1.927815   -0.035559
    123          1           0       14.939228   -2.221652   -1.445928
    124          1           0       16.678777   -1.389869   -1.543922
    125          1           0       16.076121    1.423152    0.683847
    126          1           0       16.028156    0.053788    1.419090
    127          1           0       18.182199   -0.741916   -0.337467
    128          1           0       17.951534    0.726337   -1.086840
    129          1           0       18.000121    2.377554    0.830427
    130          1           0       18.634687    0.837184    2.072714
    131          1           0       20.602749    0.590682    0.134137
    132          1           0       19.962904    3.442375   -0.864141
    133          1           0       21.230650    2.168016   -1.380316
    134          1           0       19.397452    1.946746   -1.785556
    135          1           0       21.014350    1.823184    2.365393
    136          1           0       22.111571    1.907150    0.843564
    137          1           0       21.047850    3.355830    1.156325
 ---------------------------------------------------------------------

 SCF Done:  E(RCAM-B3LYP) =  -2932.59971973     A.U. after   16 cycles

 Excitation energies and oscillator strengths:

 Excited State   1:      Singlet-A      1.9906 eV  622.85 nm  f=0.2205  <S**2>=0.000
     240 -> 243        0.26380
     241 -> 242        0.65131
 This state for optimization and/or second-order correction.
 Total Energy, E(TD-HF/TD-KS) =  -2932.52656629
 Copying the excited state density for this state as the 1-particle RhoCI density.

 The electronic state is 1-A.
 Alpha  occ. eigenvalues --  -46.83617 -19.23688 -19.23521 -19.21776 -19.21353
 Alpha  occ. eigenvalues --  -19.21043 -14.41636 -14.39460 -14.39341 -14.39287
 Alpha  occ. eigenvalues --  -10.38920 -10.38067 -10.36799 -10.31185 -10.30567
 Alpha  occ. eigenvalues --  -10.30448 -10.30376 -10.29934 -10.29479 -10.29418
 Alpha  occ. eigenvalues --  -10.29397 -10.29353 -10.29165 -10.29127 -10.28800
 Alpha  occ. eigenvalues --  -10.28745 -10.28678 -10.28409 -10.28257 -10.28169
 Alpha  occ. eigenvalues --  -10.27954 -10.27553 -10.27394 -10.27270 -10.27228
 Alpha  occ. eigenvalues --  -10.27203 -10.27128 -10.27120 -10.26952 -10.26929
 Alpha  occ. eigenvalues --  -10.26839 -10.26696 -10.26614 -10.26565 -10.26492
 Alpha  occ. eigenvalues --  -10.26456 -10.26438 -10.26433 -10.26252 -10.26225
 Alpha  occ. eigenvalues --  -10.26176 -10.26173 -10.26152 -10.26081 -10.26034
 Alpha  occ. eigenvalues --  -10.26025 -10.25829 -10.25828 -10.25596 -10.25343
 Alpha  occ. eigenvalues --  -10.25302 -10.25142 -10.25141 -10.24812 -10.24585
 Alpha  occ. eigenvalues --   -3.12699  -1.87404  -1.86978  -1.86840  -1.18823
 Alpha  occ. eigenvalues --   -1.16967  -1.10547  -1.08963  -1.07502  -1.03864
 Alpha  occ. eigenvalues --   -1.02683  -1.01608  -1.00358  -0.93469  -0.91667
 Alpha  occ. eigenvalues --   -0.91129  -0.90348  -0.89264  -0.89037  -0.88447
 Alpha  occ. eigenvalues --   -0.88087  -0.87633  -0.87429  -0.87232  -0.85799
 Alpha  occ. eigenvalues --   -0.85008  -0.84228  -0.83622  -0.83142  -0.82269
 Alpha  occ. eigenvalues --   -0.81723  -0.80999  -0.80232  -0.79880  -0.78531
 Alpha  occ. eigenvalues --   -0.77515  -0.76739  -0.76679  -0.76140  -0.75156
 Alpha  occ. eigenvalues --   -0.75074  -0.74682  -0.74033  -0.73011  -0.72573
 Alpha  occ. eigenvalues --   -0.71962  -0.70658  -0.70134  -0.69057  -0.67484
 Alpha  occ. eigenvalues --   -0.66634  -0.65742  -0.64988  -0.64307  -0.64168
 Alpha  occ. eigenvalues --   -0.63623  -0.63010  -0.62395  -0.62009  -0.61244
 Alpha  occ. eigenvalues --   -0.61023  -0.60355  -0.59929  -0.59363  -0.58821
 Alpha  occ. eigenvalues --   -0.58640  -0.58377  -0.57678  -0.57473  -0.57094
 Alpha  occ. eigenvalues --   -0.56273  -0.55982  -0.55120  -0.54921  -0.54473
 Alpha  occ. eigenvalues --   -0.54340  -0.53882  -0.53286  -0.53175  -0.52778
 Alpha  occ. eigenvalues --   -0.52695  -0.52595  -0.52206  -0.52132  -0.51888
 Alpha  occ. eigenvalues --   -0.51509  -0.51202  -0.51168  -0.50868  -0.50577
 Alpha  occ. eigenvalues --   -0.50218  -0.50084  -0.49857  -0.49503  -0.49442
 Alpha  occ. eigenvalues --   -0.49248  -0.49086  -0.48762  -0.48592  -0.48445
 Alpha  occ. eigenvalues --   -0.48024  -0.47852  -0.47573  -0.47364  -0.46892
 Alpha  occ. eigenvalues --   -0.46733  -0.46402  -0.46340  -0.46216  -0.46071
 Alpha  occ. eigenvalues --   -0.45623  -0.45563  -0.45299  -0.45138  -0.45063
 Alpha  occ. eigenvalues --   -0.44792  -0.44649  -0.44518  -0.44100  -0.43851
 Alpha  occ. eigenvalues --   -0.43793  -0.43697  -0.43536  -0.43387  -0.43190
 Alpha  occ. eigenvalues --   -0.43156  -0.42909  -0.42733  -0.42613  -0.42525
 Alpha  occ. eigenvalues --   -0.42223  -0.42043  -0.41878  -0.41462  -0.41426
 Alpha  occ. eigenvalues --   -0.41207  -0.40951  -0.40671  -0.40535  -0.40203
 Alpha  occ. eigenvalues --   -0.40035  -0.39682  -0.39573  -0.39503  -0.39398
 Alpha  occ. eigenvalues --   -0.38692  -0.38293  -0.38236  -0.38016  -0.37895
 Alpha  occ. eigenvalues --   -0.37527  -0.37375  -0.36963  -0.36583  -0.36549
 Alpha  occ. eigenvalues --   -0.36136  -0.36021  -0.35266  -0.35219  -0.34466
 Alpha  occ. eigenvalues --   -0.34450  -0.34013  -0.33827  -0.33730  -0.33296
 Alpha  occ. eigenvalues --   -0.33128  -0.32833  -0.32177  -0.31100  -0.30321
 Alpha  occ. eigenvalues --   -0.29606  -0.29305  -0.28086  -0.27279  -0.23241
 Alpha  occ. eigenvalues --   -0.21189
 Alpha virt. eigenvalues --   -0.06659  -0.03454   0.01309   0.04377   0.04672
 Alpha virt. eigenvalues --    0.06155   0.06355   0.06942   0.07075   0.07812
 Alpha virt. eigenvalues --    0.09057   0.09778   0.10658   0.11216   0.11674

 Mulliken charges:
               1
     1  Mg   0.815904
     2  C    0.058989
     3  C   -0.217634
     4  C   -0.168620
     5  C   -0.152754
     6  N   -0.624127
     7  C    0.291802
     8  C   -0.158878
     9  C   -0.147344
    10  C    0.376034
    11  C   -0.304636
    12  C   -0.152360
    13  C   -0.264100
    14  C    0.579699
    15  O   -0.434290
    16  O   -0.517851
    17  N   -0.705125
    18  C    0.280264
    19  C    0.077226
    20  C   -0.051501
    21  C    0.307977
    22  C   -0.384335
    23  C   -0.073835
    24  C   -0.236511
    25  N   -0.713943
    26  C    0.313134
    27  C   -0.003509
    28  C   -0.007701
    29  C    0.286414
    30  C   -0.345133
    31  C   -0.215608
    32  C   -0.306612
    33  N   -0.736794
    34  C    0.239964
    35  C    0.028570
    36  C   -0.048670
    37  C    0.352235
    38  C   -0.372566
    39  C    0.392906
    40  O   -0.453788
    41  C   -0.333526
    42  C    0.631326
    43  O   -0.445435
    44  O   -0.513861
    45  C   -0.064480
    46  C    0.002887
    47  C   -0.104102
    48  C    0.101065
    49  C   -0.338031
    50  C   -0.224608
    51  C   -0.169638
    52  C   -0.164470
    53  C   -0.058629
    54  C   -0.307246
    55  C   -0.155882
    56  C   -0.196970
    57  C   -0.171448
    58  C   -0.061752
    59  C   -0.309268
    60  C   -0.185660
    61  C   -0.170908
    62  C   -0.146419
    63  C   -0.055162
    64  C   -0.303734
    65  C   -0.309702
    66  H    0.068356
    67  H    0.103719
    68  H    0.087392
    69  H    0.118975
    70  H    0.104793
    71  H    0.125782
    72  H    0.093531
    73  H    0.107532
    74  H    0.118020
    75  H    0.116185
    76  H    0.124959
    77  H    0.142491
    78  H    0.123958
    79  H    0.125267
    80  H    0.125403
    81  H    0.102906
    82  H    0.096151
    83  H    0.072999
    84  H    0.108900
    85  H    0.103632
    86  H    0.132364
    87  H    0.113511
    88  H    0.106362
    89  H    0.089263
    90  H    0.098982
    91  H    0.121773
    92  H    0.137953
    93  H    0.147613
    94  H    0.115979
    95  H    0.177342
    96  H    0.091188
    97  H    0.144560
    98  H    0.137685
    99  H    0.130254
   100  H    0.128564
   101  H    0.097631
   102  H    0.117789
   103  H    0.118924
   104  H    0.113938
   105  H    0.099883
   106  H    0.067013
   107  H    0.105742
   108  H    0.087666
   109  H    0.083812
   110  H    0.067282
   111  H    0.063412
   112  H    0.117353
   113  H    0.102766
   114  H    0.074459
   115  H    0.091511
   116  H    0.076715
   117  H    0.095624
   118  H    0.083813
   119  H    0.067684
   120  H    0.105815
   121  H    0.087907
   122  H    0.118762
   123  H    0.097574
   124  H    0.092691
   125  H    0.098117
   126  H    0.082614
   127  H    0.038981
   128  H    0.106219
   129  H    0.046568
   130  H    0.093706
   131  H    0.114568
   132  H    0.095308
   133  H    0.108448
   134  H    0.109310
   135  H    0.103712
   136  H    0.087223
   137  H    0.087879
 Sum of Mulliken charges =   0.00000

 Dipole moment (field-independent basis, Debye):
    X=              1.3850    Y=              4.0877    Z=             -0.8534  Tot=              4.3996
 Quadrupole moment (field-independent basis, Debye-Ang):
   XX=           -333.6857   YY=           -393.1956   ZZ=           -396.4288
   XY=            -14.0532   XZ=              6.3061   YZ=              1.4634

 Normal termination of Gaussian 09 at Wed Jul  3 09:38:27 2019.
