 Gaussian 16, Revision A.03,
 Gaussian 16:  ES64L-G16RevA.03 25-Dec-2016

 -------------------------------------
 # td=(NStates=1) CAM-B3LYP/6-31G(d,p)
 -------------------------------------

 --
 TD
 --
 Symbolic Z-matrix:
 Charge =  0 Multiplicity = 1

                         Standard orientation:
 ---------------------------------------------------------------------
 Center     Atomic      Atomic             Coordinates (Angstroms)
 Number     Number       Type             X           Y           Z
 ---------------------------------------------------------------------
      1         12           0       -7.107967    0.671715    0.038818
      2          6           0       -4.827942   -1.943120    0.466947
      3          6           0       -4.840374    2.820535    1.160094
      4          6           0       -9.417850    3.160964   -0.468139
      5          6           0       -9.524445   -1.822977   -0.740877
      6          7           0       -5.063495    0.422711    0.688063
      7          6           0       -4.263292   -0.699547    0.737649
      8          6           0       -2.930417   -0.297463    1.278919
      9          6           0       -3.041942    1.137563    1.729123
     10          6           0       -4.354415    1.575666    1.135773
     11          6           0       -3.006781    1.209891    3.233875
     12          6           0       -1.861953   -0.551790    0.126229
     13          6           0       -0.450758   -0.408334    0.560697
     14          6           0        0.463682   -0.655266   -0.533671
     15          8           0        0.218478   -1.011496   -1.670686
     16          8           0        1.829821   -0.527689   -0.190694
     17          7           0       -7.141204    2.659713    0.292989
     18          6           0       -6.048262    3.408839    0.743764
     19          6           0       -6.451628    4.831321    0.788714
     20          6           0       -7.800568    4.957447    0.241067
     21          6           0       -8.121102    3.581744   -0.125493
     22          6           0       -5.518421    5.866430    1.013936
     23          6           0       -8.634829    6.034844    0.254170
     24          6           0       -8.539391    7.186754    0.928054
     25          7           0       -9.137554    0.625052   -0.437971
     26          6           0       -9.844228    1.815192   -0.683666
     27          6           0      -11.233066    1.459293   -1.167653
     28          6           0      -11.273195    0.023814   -1.279689
     29          6           0       -9.901948   -0.493170   -0.828410
     30          6           0      -12.255883    2.432567   -1.535868
     31          6           0      -12.362288   -0.869150   -1.770663
     32          6           0      -12.349338   -1.039187   -3.376460
     33          7           0       -7.220224   -1.333780   -0.242695
     34          6           0       -8.210365   -2.198497   -0.510965
     35          6           0       -7.738416   -3.593765   -0.532388
     36          6           0       -6.383653   -3.440210   -0.147332
     37          6           0       -6.160692   -2.187046   -0.056102
     38          6           0       -8.527908   -4.829039   -0.537993
     39          6           0       -5.307544   -4.331233    0.245130
     40          8           0       -5.132471   -5.523917    0.317091
     41          6           0       -4.165041   -3.316632    0.546839
     42          6           0       -3.490615   -3.613835    1.935178
     43          8           0       -3.760484   -3.019576    2.967496
     44          8           0       -2.674873   -4.711624    1.806110
     45          6           0       -2.170750   -5.294249    3.063478
     46          6           0        2.751729   -0.754391   -1.280644
     47          6           0        4.140572   -0.680180   -0.687837
     48          6           0        5.101454    0.256310   -0.969811
     49          6           0        5.044605    1.126603   -2.178114
     50          6           0        6.332105    0.219240   -0.188864
     51          6           0        7.660162   -0.394542   -0.932168
     52          6           0        8.961050   -0.185820   -0.139333
     53          6           0       10.273770   -0.621632   -0.915302
     54          6           0       10.186615   -2.071958   -1.467164
     55          6           0       11.427256   -0.268496   -0.094092
     56          6           0       12.752963   -0.636146   -0.715197
     57          6           0       14.008815   -0.190822    0.209047
     58          6           0       15.446834   -0.255098   -0.465665
     59          6           0       15.756635   -1.676475   -0.915205
     60          6           0       16.354263    0.438949    0.403955
     61          6           0       17.798500    0.515068   -0.126949
     62          6           0       18.683766    1.379990    0.802145
     63          6           0       20.191621    1.567782    0.294694
     64          6           0       20.283900    2.275666   -1.041348
     65          6           0       21.121255    2.249541    1.356380
     66          1           0       -4.158113    3.568883    1.579950
     67          1           0      -10.338599    3.768804   -0.625577
     68          1           0      -10.432439   -2.362580   -1.063051
     69          1           0       -2.657965   -0.907745    2.232781
     70          1           0       -2.373623    1.714575    1.142761
     71          1           0       -2.075916    0.990779    3.561810
     72          1           0       -3.409529    2.150019    3.481588
     73          1           0       -3.550326    0.316796    3.409575
     74          1           0       -1.998432   -1.559634   -0.043370
     75          1           0       -2.073498    0.058033   -0.690083
     76          1           0       -0.099724    0.474560    0.867788
     77          1           0       -0.239403   -1.105628    1.353414
     78          1           0       -5.951619    6.924768    0.600650
     79          1           0       -5.521539    6.284455    2.092979
     80          1           0       -4.441721    5.693445    0.730191
     81          1           0       -9.780634    5.863066   -0.127518
     82          1           0       -9.540661    7.774677    1.189639
     83          1           0       -7.705535    7.159191    1.627905
     84          1           0      -12.046360    2.921757   -2.645899
     85          1           0      -13.240659    1.937310   -1.588140
     86          1           0      -12.465947    2.897915   -0.617259
     87          1           0      -12.436766   -1.800335   -1.104859
     88          1           0      -13.282739   -0.496848   -1.413517
     89          1           0      -13.084194   -2.022414   -3.627154
     90          1           0      -12.759955   -0.330483   -3.906921
     91          1           0      -11.268722   -1.247982   -3.601911
     92          1           0       -9.120201   -4.798636   -1.622118
     93          1           0       -7.882955   -5.773753   -0.548499
     94          1           0       -9.439358   -4.865676    0.093891
     95          1           0       -3.421966   -3.415376   -0.258359
     96          1           0       -1.713113   -4.484972    3.701851
     97          1           0       -3.140998   -5.548652    3.678438
     98          1           0       -1.603958   -6.238356    2.866364
     99          1           0        2.580390   -1.813645   -1.549539
    100          1           0        2.709536   -0.037832   -2.181022
    101          1           0        4.331373   -1.218964    0.233680
    102          1           0        4.139077    1.315747   -2.685636
    103          1           0        5.414375    2.215787   -1.887838
    104          1           0        5.795953    0.998167   -3.220353
    105          1           0        6.432061    1.199783    0.285007
    106          1           0        6.298169   -0.358030    0.554118
    107          1           0        7.529233   -1.357662   -1.206862
    108          1           0        7.673254    0.030338   -1.929229
    109          1           0        9.192853    0.888272    0.083005
    110          1           0        8.921297   -0.796672    0.654338
    111          1           0       10.308169   -0.147428   -1.957799
    112          1           0        9.191283   -2.186006   -2.005034
    113          1           0       11.163547   -2.487296   -2.041884
    114          1           0       10.260683   -2.582164   -0.478233
    115          1           0       11.631716    0.824113    0.087995
    116          1           0       11.336941   -0.616630    0.856939
    117          1           0       12.934574   -1.613018   -0.952120
    118          1           0       12.717262   -0.173729   -1.662108
    119          1           0       13.772507    0.844709    0.458178
    120          1           0       13.866891   -0.821939    1.261269
    121          1           0       15.370406    0.427197   -1.385087
    122          1           0       15.957593   -2.373340   -0.093013
    123          1           0       15.105808   -2.148347   -1.632009
    124          1           0       16.699866   -1.917135   -1.438167
    125          1           0       16.009701    1.514141    0.388899
    126          1           0       16.329522    0.198641    1.354877
    127          1           0       18.131772   -0.525807   -0.222114
    128          1           0       17.789176    1.189564   -1.285392
    129          1           0       18.298530    2.479107    0.919920
    130          1           0       18.861326    0.896259    1.763028
    131          1           0       20.550486    0.435677    0.284839
    132          1           0       20.049816    3.371000   -1.027079
    133          1           0       21.400252    2.359607   -1.406416
    134          1           0       19.769634    1.711979   -1.762034
    135          1           0       21.058165    1.830860    2.292060
    136          1           0       21.965829    2.188424    0.773435
    137          1           0       20.703844    3.122606    1.570219
 ---------------------------------------------------------------------

 SCF Done:  E(RCAM-B3LYP) =  -2932.61815085     A.U. after   18 cycles

 Excitation energies and oscillator strengths:

 Excited State   1:      Singlet-A      1.8953 eV  654.15 nm  f=0.3052  <S**2>=0.000
     240 -> 243       -0.23197
     241 -> 242        0.66192
 This state for optimization and/or second-order correction.
 Total Energy, E(TD-HF/TD-DFT) =  -2932.54849819
 Copying the excited state density for this state as the 1-particle RhoCI density.

 The electronic state is 1-A.
 Alpha  occ. eigenvalues --  -46.84120 -19.26540 -19.24709 -19.21662 -19.20975
 Alpha  occ. eigenvalues --  -19.20831 -14.41260 -14.40110 -14.39547 -14.39230
 Alpha  occ. eigenvalues --  -10.39994 -10.38834 -10.35245 -10.32858 -10.31540
 Alpha  occ. eigenvalues --  -10.30622 -10.30357 -10.30337 -10.30325 -10.29833
 Alpha  occ. eigenvalues --  -10.29277 -10.29182 -10.28217 -10.28154 -10.28117
 Alpha  occ. eigenvalues --  -10.28048 -10.27840 -10.27786 -10.27662 -10.27543
 Alpha  occ. eigenvalues --  -10.27538 -10.27484 -10.27479 -10.27341 -10.27255
 Alpha  occ. eigenvalues --  -10.27240 -10.27227 -10.27152 -10.27110 -10.26979
 Alpha  occ. eigenvalues --  -10.26838 -10.26833 -10.26627 -10.26599 -10.26451
 Alpha  occ. eigenvalues --  -10.26406 -10.26312 -10.26303 -10.25978 -10.25868
 Alpha  occ. eigenvalues --  -10.25851 -10.25676 -10.25668 -10.25455 -10.24753
 Alpha  occ. eigenvalues --  -10.24747 -10.24728 -10.24259 -10.24249 -10.24095
 Alpha  occ. eigenvalues --  -10.24059 -10.23708 -10.23332 -10.23326 -10.21842
 Alpha  occ. eigenvalues --   -3.13114  -1.87825  -1.87330  -1.87314  -1.16733
 Alpha  occ. eigenvalues --   -1.16406  -1.11913  -1.08972  -1.07736  -1.05353
 Alpha  occ. eigenvalues --   -1.02642  -1.01720  -0.99746  -0.93369  -0.91642
 Alpha  occ. eigenvalues --   -0.91150  -0.90559  -0.90173  -0.89760  -0.89275
 Alpha  occ. eigenvalues --   -0.88380  -0.87747  -0.87707  -0.87158  -0.86861
 Alpha  occ. eigenvalues --   -0.85011  -0.84687  -0.83771  -0.82785  -0.82402
 Alpha  occ. eigenvalues --   -0.81518  -0.80975  -0.80270  -0.79462  -0.78414
 Alpha  occ. eigenvalues --   -0.77837  -0.76768  -0.76744  -0.76341  -0.75983
 Alpha  occ. eigenvalues --   -0.75970  -0.74715  -0.74518  -0.73533  -0.72168
 Alpha  occ. eigenvalues --   -0.71653  -0.71112  -0.70228  -0.69299  -0.68600
 Alpha  occ. eigenvalues --   -0.67447  -0.67343  -0.65347  -0.65219  -0.65017
 Alpha  occ. eigenvalues --   -0.63487  -0.63229  -0.62236  -0.61986  -0.61893
 Alpha  occ. eigenvalues --   -0.61047  -0.60329  -0.59984  -0.59777  -0.59022
 Alpha  occ. eigenvalues --   -0.58582  -0.58265  -0.57729  -0.57676  -0.57130
 Alpha  occ. eigenvalues --   -0.56364  -0.55367  -0.55347  -0.55320  -0.54767
 Alpha  occ. eigenvalues --   -0.54335  -0.54083  -0.53866  -0.53411  -0.52981
 Alpha  occ. eigenvalues --   -0.52794  -0.52500  -0.52355  -0.52188  -0.51929
 Alpha  occ. eigenvalues --   -0.51618  -0.51306  -0.51034  -0.51016  -0.50756
 Alpha  occ. eigenvalues --   -0.50426  -0.50304  -0.50081  -0.49988  -0.49882
 Alpha  occ. eigenvalues --   -0.49576  -0.49352  -0.49216  -0.49092  -0.48546
 Alpha  occ. eigenvalues --   -0.47864  -0.47833  -0.47645  -0.47236  -0.47016
 Alpha  occ. eigenvalues --   -0.46871  -0.46724  -0.46552  -0.46266  -0.46122
 Alpha  occ. eigenvalues --   -0.45915  -0.45610  -0.45238  -0.45148  -0.44854
 Alpha  occ. eigenvalues --   -0.44549  -0.44393  -0.44235  -0.44118  -0.43938
 Alpha  occ. eigenvalues --   -0.43789  -0.43439  -0.43340  -0.43172  -0.43067
 Alpha  occ. eigenvalues --   -0.42895  -0.42602  -0.42557  -0.42383  -0.42288
 Alpha  occ. eigenvalues --   -0.42021  -0.41842  -0.41677  -0.41499  -0.41177
 Alpha  occ. eigenvalues --   -0.40932  -0.40854  -0.40625  -0.40537  -0.40476
 Alpha  occ. eigenvalues --   -0.40291  -0.40228  -0.40165  -0.39490  -0.39261
 Alpha  occ. eigenvalues --   -0.39059  -0.38720  -0.38545  -0.38541  -0.38348
 Alpha  occ. eigenvalues --   -0.37914  -0.37673  -0.37210  -0.37020  -0.36834
 Alpha  occ. eigenvalues --   -0.36227  -0.36107  -0.35762  -0.35421  -0.35391
 Alpha  occ. eigenvalues --   -0.35196  -0.34635  -0.34037  -0.33935  -0.33462
 Alpha  occ. eigenvalues --   -0.32978  -0.32866  -0.32595  -0.30810  -0.30415
 Alpha  occ. eigenvalues --   -0.28889  -0.28618  -0.27524  -0.26227  -0.22778
 Alpha  occ. eigenvalues --   -0.21274
 Alpha virt. eigenvalues --   -0.07479  -0.03181   0.01286   0.02953   0.04887
 Alpha virt. eigenvalues --    0.05459   0.06073   0.06248   0.06421   0.07049
 Alpha virt. eigenvalues --    0.08262   0.10254   0.10695   0.10938   0.11499

 Mulliken charges:
               1
     1  Mg   0.815880
     2  C    0.021312
     3  C   -0.207001
     4  C   -0.155204
     5  C   -0.153618
     6  N   -0.640558
     7  C    0.324558
     8  C   -0.222869
     9  C   -0.119381
    10  C    0.317202
    11  C   -0.295638
    12  C   -0.165730
    13  C   -0.257654
    14  C    0.600962
    15  O   -0.470425
    16  O   -0.518542
    17  N   -0.696652
    18  C    0.324872
    19  C    0.041232
    20  C    0.071028
    21  C    0.267365
    22  C   -0.422981
    23  C   -0.082667
    24  C   -0.265416
    25  N   -0.684990
    26  C    0.279984
    27  C    0.003161
    28  C    0.009007
    29  C    0.267279
    30  C   -0.382841
    31  C   -0.264958
    32  C   -0.287293
    33  N   -0.693952
    34  C    0.272184
    35  C    0.035717
    36  C    0.026929
    37  C    0.296632
    38  C   -0.386078
    39  C    0.385393
    40  O   -0.454610
    41  C   -0.325970
    42  C    0.622817
    43  O   -0.472486
    44  O   -0.463484
    45  C   -0.090517
    46  C    0.046138
    47  C   -0.141813
    48  C    0.132291
    49  C   -0.358600
    50  C   -0.214538
    51  C   -0.208107
    52  C   -0.164767
    53  C   -0.078215
    54  C   -0.305859
    55  C   -0.164738
    56  C   -0.193114
    57  C   -0.183927
    58  C   -0.036281
    59  C   -0.333344
    60  C   -0.159631
    61  C   -0.159930
    62  C   -0.166289
    63  C   -0.075315
    64  C   -0.305642
    65  C   -0.296942
    66  H    0.075569
    67  H    0.102623
    68  H    0.098894
    69  H    0.112178
    70  H    0.102869
    71  H    0.118606
    72  H    0.112902
    73  H    0.139241
    74  H    0.126436
    75  H    0.127435
    76  H    0.145799
    77  H    0.148940
    78  H    0.111720
    79  H    0.113750
    80  H    0.125676
    81  H    0.079133
    82  H    0.104600
    83  H    0.097293
    84  H    0.122996
    85  H    0.112161
    86  H    0.137784
    87  H    0.102537
    88  H    0.111112
    89  H    0.070499
    90  H    0.132796
    91  H    0.119438
    92  H    0.091406
    93  H    0.149273
    94  H    0.140209
    95  H    0.166048
    96  H    0.133470
    97  H    0.125317
    98  H    0.139676
    99  H    0.119457
   100  H    0.108007
   101  H    0.087415
   102  H    0.124732
   103  H    0.093383
   104  H    0.084134
   105  H    0.094811
   106  H    0.106832
   107  H    0.108922
   108  H    0.095179
   109  H    0.098175
   110  H    0.102868
   111  H    0.072484
   112  H    0.104684
   113  H    0.091446
   114  H    0.091330
   115  H    0.087059
   116  H    0.093648
   117  H    0.100858
   118  H    0.093164
   119  H    0.087210
   120  H    0.061447
   121  H    0.082300
   122  H    0.099054
   123  H    0.110730
   124  H    0.095828
   125  H    0.088833
   126  H    0.101185
   127  H    0.099711
   128  H    0.042075
   129  H    0.074837
   130  H    0.090490
   131  H    0.061927
   132  H    0.101963
   133  H    0.077663
   134  H    0.118091
   135  H    0.098343
   136  H    0.111717
   137  H    0.106248
 Sum of Mulliken charges =  -0.00000

 Dipole moment (field-independent basis, Debye):
    X=             -0.1591    Y=              2.8819    Z=              1.1659  Tot=              3.1129
 Quadrupole moment (field-independent basis, Debye-Ang):
   XX=           -335.3555   YY=           -397.2640   ZZ=           -395.5749
   XY=            -16.2725   XZ=             15.2091   YZ=             -2.3007

 Normal termination of Gaussian 16 at Thu Jun 27 13:54:28 2019.
