 Gaussian 16, Revision A.03,
 Gaussian 16:  ES64L-G16RevA.03 25-Dec-2016

 ----------------------------------------------------------------------
 # td=(NStates=1) iop(3/107=0140000000,3/108=0140000000) CAM-B3LYP/6-31
 G(d,p)
 ----------------------------------------------------------------------

 --
 TD
 --
 Symbolic Z-matrix:
 Charge =  0 Multiplicity = 1

                         Standard orientation:
 ---------------------------------------------------------------------
 Center     Atomic      Atomic             Coordinates (Angstroms)
 Number     Number       Type             X           Y           Z
 ---------------------------------------------------------------------
      1         12           0       -7.102077    0.649293    0.035272
      2          6           0       -4.983658   -2.035732    0.548615
      3          6           0       -4.745521    2.808709    1.256437
      4          6           0       -9.343016    3.124330   -0.255591
      5          6           0       -9.505185   -1.685385   -0.926868
      6          7           0       -5.076443    0.424690    0.792764
      7          6           0       -4.343156   -0.776265    0.913577
      8          6           0       -2.968006   -0.501738    1.340642
      9          6           0       -2.937871    1.023650    1.729430
     10          6           0       -4.359210    1.441571    1.280082
     11          6           0       -2.867308    1.316099    3.236505
     12          6           0       -1.874191   -0.718644    0.109206
     13          6           0       -0.522087   -0.365111    0.564919
     14          6           0        0.559540   -0.548292   -0.566515
     15          8           0        0.148207   -0.855323   -1.653500
     16          8           0        1.742981   -0.529045   -0.184981
     17          7           0       -7.017468    2.613206    0.383105
     18          6           0       -5.976676    3.425724    0.893882
     19          6           0       -6.332158    4.773785    0.848354
     20          6           0       -7.659930    4.872486    0.380234
     21          6           0       -8.075511    3.570979    0.173619
     22          6           0       -5.461107    5.914975    1.031982
     23          6           0       -8.493643    5.983085    0.061582
     24          6           0       -8.441286    7.226156    0.605455
     25          7           0       -9.089334    0.735474   -0.528887
     26          6           0       -9.754893    1.868738   -0.543840
     27          6           0      -11.133575    1.555162   -1.020446
     28          6           0      -11.234238    0.197566   -1.295126
     29          6           0       -9.935544   -0.318495   -0.901076
     30          6           0      -12.286317    2.510704   -1.371381
     31          6           0      -12.393624   -0.648186   -1.762010
     32          6           0      -12.369652   -1.031029   -3.270058
     33          7           0       -7.207912   -1.460188   -0.257186
     34          6           0       -8.242122   -2.193975   -0.615004
     35          6           0       -7.888839   -3.638474   -0.614284
     36          6           0       -6.460118   -3.534639   -0.252957
     37          6           0       -6.251433   -2.226334   -0.011707
     38          6           0       -8.782836   -4.788458   -0.914632
     39          6           0       -5.412992   -4.364116    0.218549
     40          8           0       -5.308130   -5.588478    0.172435
     41          6           0       -4.262819   -3.337479    0.578931
     42          6           0       -3.627795   -3.695777    1.927718
     43          8           0       -3.752558   -3.165649    3.028714
     44          8           0       -2.896078   -4.819344    1.751862
     45          6           0       -2.418324   -5.519856    2.993239
     46          6           0        2.868277   -0.703429   -1.123079
     47          6           0        4.226633   -0.502216   -0.533889
     48          6           0        5.127546    0.343529   -1.007071
     49          6           0        5.037705    1.207211   -2.164094
     50          6           0        6.549740    0.423682   -0.239554
     51          6           0        7.686332   -0.245516   -0.954041
     52          6           0        8.894105   -0.178925   -0.150234
     53          6           0       10.172057   -0.652926   -0.892444
     54          6           0       10.180393   -2.049021   -1.393237
     55          6           0       11.424169   -0.376987   -0.104263
     56          6           0       12.778181   -0.565228   -0.742616
     57          6           0       13.913543   -0.030020    0.085209
     58          6           0       15.314315   -0.110737   -0.587531
     59          6           0       15.619660   -1.488624   -1.082038
     60          6           0       16.470734    0.394624    0.375364
     61          6           0       17.913430    0.584588   -0.320253
     62          6           0       18.751304    1.216150    0.711323
     63          6           0       20.244981    1.332158    0.419048
     64          6           0       20.553877    2.221453   -0.927882
     65          6           0       20.944912    1.871237    1.540834
     66          1           0       -3.929832    3.619728    1.311825
     67          1           0       -9.996991    3.923752   -0.642500
     68          1           0      -10.326677   -2.365705   -1.460477
     69          1           0       -2.578790   -1.128714    2.156084
     70          1           0       -2.363659    1.664709    1.122256
     71          1           0       -1.780088    1.134730    3.699420
     72          1           0       -3.017921    2.394255    3.450427
     73          1           0       -3.510951    0.789845    3.828863
     74          1           0       -1.885592   -1.714185   -0.322496
     75          1           0       -2.317437   -0.108712   -0.866431
     76          1           0       -0.324168    0.621688    0.918928
     77          1           0       -0.320052   -1.131272    1.348156
     78          1           0       -5.692337    6.839554    0.476822
     79          1           0       -5.379814    6.369153    2.076402
     80          1           0       -4.513602    5.730953    0.863174
     81          1           0       -9.403246    5.866205   -0.731734
     82          1           0       -9.048896    8.022546    0.567373
     83          1           0       -7.759001    7.305480    1.324490
     84          1           0      -12.030338    3.224176   -2.199324
     85          1           0      -13.190470    2.054052   -1.579424
     86          1           0      -12.445925    3.373134   -0.613346
     87          1           0      -12.354717   -1.625850   -1.240815
     88          1           0      -13.354788   -0.109735   -1.517483
     89          1           0      -13.253118   -1.650035   -3.416275
     90          1           0      -12.455310   -0.117326   -3.891306
     91          1           0      -11.395139   -1.449234   -3.657843
     92          1           0       -9.276355   -4.693997   -1.863285
     93          1           0       -8.144158   -5.795164   -1.293000
     94          1           0       -9.555832   -5.119609   -0.167612
     95          1           0       -3.503274   -3.506619   -0.277143
     96          1           0       -1.923025   -4.753454    3.620959
     97          1           0       -3.258883   -5.887941    3.574695
     98          1           0       -1.756760   -6.365759    2.718670
     99          1           0        2.833530   -1.849003   -1.318087
    100          1           0        2.728434   -0.069247   -2.062844
    101          1           0        4.622882   -0.945445    0.426913
    102          1           0        4.076611    1.307171   -2.542103
    103          1           0        5.328298    2.153079   -2.037686
    104          1           0        5.557514    0.793190   -3.029374
    105          1           0        6.739349    1.385075   -0.146034
    106          1           0        6.556979   -0.102522    0.788498
    107          1           0        7.419749   -1.379757   -0.946597
    108          1           0        8.044574    0.235386   -1.900103
    109          1           0        8.883337    0.906266    0.268439
    110          1           0        8.760479   -0.632437    0.820807
    111          1           0       10.183021   -0.011552   -1.779083
    112          1           0        9.263131   -2.199130   -1.934062
    113          1           0       11.034526   -2.420702   -1.956823
    114          1           0       10.021574   -2.784316   -0.438751
    115          1           0       11.630832    0.748846   -0.113963
    116          1           0       11.496707   -0.767992    0.841629
    117          1           0       13.110483   -1.715983   -0.736366
    118          1           0       12.725212   -0.126479   -1.659335
    119          1           0       13.491645    0.867797    0.739624
    120          1           0       13.987612   -0.560618    1.015097
    121          1           0       15.285462    0.566598   -1.465823
    122          1           0       15.353687   -2.295785   -0.370790
    123          1           0       15.140256   -1.767567   -2.007381
    124          1           0       16.738432   -1.373429   -1.339109
    125          1           0       16.266147    1.502812    0.729350
    126          1           0       16.423148   -0.392574    1.046957
    127          1           0       18.303776   -0.347340   -0.639562
    128          1           0       17.873303    1.126324   -1.358936
    129          1           0       18.272728    2.133860    1.016124
    130          1           0       18.825012    0.417752    1.526002
    131          1           0       20.786191    0.527154    0.149077
    132          1           0       20.159391    3.156494   -0.843562
    133          1           0       21.485598    2.212689   -1.479532
    134          1           0       20.055337    1.652045   -1.750965
    135          1           0       20.901273    1.368143    2.455976
    136          1           0       21.945328    1.627485    1.238638
    137          1           0       20.902466    3.061565    1.721523
 ---------------------------------------------------------------------

 SCF Done:  E(RCAM-B3LYP) =  -2933.54442298     A.U. after   16 cycles

 Excitation energies and oscillator strengths:

 Excited State   1:      Singlet-A      1.9902 eV  622.98 nm  f=0.2435  <S**2>=0.000
     240 -> 243        0.25427
     241 -> 242        0.65011
 This state for optimization and/or second-order correction.
 Total Energy, E(TD-HF/TD-DFT) =  -2933.47128572
 Copying the excited state density for this state as the 1-particle RhoCI density.

 The electronic state is 1-A.
 Alpha  occ. eigenvalues --  -46.80507 -19.22973 -19.20973 -19.15858 -19.14964
 Alpha  occ. eigenvalues --  -19.14241 -14.37732 -14.34896 -14.34515 -14.34484
 Alpha  occ. eigenvalues --  -10.33970 -10.33085 -10.29971 -10.29180 -10.26786
 Alpha  occ. eigenvalues --  -10.26545 -10.26190 -10.24842 -10.24830 -10.24644
 Alpha  occ. eigenvalues --  -10.24493 -10.24289 -10.24214 -10.23871 -10.23848
 Alpha  occ. eigenvalues --  -10.23727 -10.23637 -10.23322 -10.23032 -10.22935
 Alpha  occ. eigenvalues --  -10.22826 -10.22822 -10.22775 -10.22596 -10.22323
 Alpha  occ. eigenvalues --  -10.22317 -10.22314 -10.22262 -10.22104 -10.22008
 Alpha  occ. eigenvalues --  -10.21908 -10.21827 -10.21813 -10.21747 -10.21719
 Alpha  occ. eigenvalues --  -10.21682 -10.21675 -10.21410 -10.21393 -10.21252
 Alpha  occ. eigenvalues --  -10.21058 -10.20879 -10.20877 -10.20670 -10.20608
 Alpha  occ. eigenvalues --  -10.20575 -10.20468 -10.20434 -10.20419 -10.20307
 Alpha  occ. eigenvalues --  -10.20037 -10.19867 -10.19749 -10.19281 -10.19191
 Alpha  occ. eigenvalues --   -3.08916  -1.83869  -1.83385  -1.83310  -1.16033
 Alpha  occ. eigenvalues --   -1.10917  -1.04291  -1.04015  -1.02431  -1.02102
 Alpha  occ. eigenvalues --   -0.98197  -0.98087  -0.96044  -0.88193  -0.87611
 Alpha  occ. eigenvalues --   -0.86231  -0.85493  -0.84270  -0.84152  -0.83837
 Alpha  occ. eigenvalues --   -0.83666  -0.82534  -0.82107  -0.81599  -0.81462
 Alpha  occ. eigenvalues --   -0.80352  -0.79566  -0.78995  -0.78390  -0.77941
 Alpha  occ. eigenvalues --   -0.77496  -0.76952  -0.76219  -0.75380  -0.73643
 Alpha  occ. eigenvalues --   -0.73510  -0.72645  -0.72434  -0.71511  -0.71026
 Alpha  occ. eigenvalues --   -0.70595  -0.70368  -0.69971  -0.69628  -0.67685
 Alpha  occ. eigenvalues --   -0.66738  -0.65559  -0.65187  -0.64691  -0.64201
 Alpha  occ. eigenvalues --   -0.63228  -0.62507  -0.61076  -0.60261  -0.60131
 Alpha  occ. eigenvalues --   -0.59733  -0.59639  -0.59556  -0.59216  -0.58241
 Alpha  occ. eigenvalues --   -0.57295  -0.56760  -0.56542  -0.55756  -0.55196
 Alpha  occ. eigenvalues --   -0.54598  -0.54114  -0.53568  -0.53384  -0.52716
 Alpha  occ. eigenvalues --   -0.52116  -0.51798  -0.51376  -0.51313  -0.51095
 Alpha  occ. eigenvalues --   -0.50960  -0.50405  -0.50251  -0.50099  -0.49682
 Alpha  occ. eigenvalues --   -0.49198  -0.48999  -0.48870  -0.48233  -0.48051
 Alpha  occ. eigenvalues --   -0.47850  -0.47430  -0.47235  -0.47017  -0.46861
 Alpha  occ. eigenvalues --   -0.46573  -0.46400  -0.46277  -0.45987  -0.45913
 Alpha  occ. eigenvalues --   -0.45867  -0.45746  -0.45226  -0.45145  -0.44793
 Alpha  occ. eigenvalues --   -0.44616  -0.44235  -0.43938  -0.43928  -0.43567
 Alpha  occ. eigenvalues --   -0.43397  -0.43225  -0.43125  -0.42732  -0.42375
 Alpha  occ. eigenvalues --   -0.42205  -0.42051  -0.41883  -0.41658  -0.41566
 Alpha  occ. eigenvalues --   -0.41413  -0.41041  -0.40983  -0.40662  -0.40650
 Alpha  occ. eigenvalues --   -0.40519  -0.40342  -0.40312  -0.40102  -0.40067
 Alpha  occ. eigenvalues --   -0.39985  -0.39698  -0.39417  -0.39202  -0.38819
 Alpha  occ. eigenvalues --   -0.38693  -0.38687  -0.38390  -0.38290  -0.37828
 Alpha  occ. eigenvalues --   -0.37756  -0.37517  -0.37254  -0.37236  -0.36999
 Alpha  occ. eigenvalues --   -0.36863  -0.36634  -0.36508  -0.36414  -0.36293
 Alpha  occ. eigenvalues --   -0.36132  -0.35888  -0.34869  -0.34656  -0.34460
 Alpha  occ. eigenvalues --   -0.34388  -0.34206  -0.33902  -0.33742  -0.33159
 Alpha  occ. eigenvalues --   -0.32913  -0.32771  -0.32610  -0.32328  -0.32111
 Alpha  occ. eigenvalues --   -0.31924  -0.31800  -0.31222  -0.30250  -0.30176
 Alpha  occ. eigenvalues --   -0.29748  -0.29168  -0.29014  -0.27617  -0.27537
 Alpha  occ. eigenvalues --   -0.26498  -0.25863  -0.25411  -0.24287  -0.20892
 Alpha  occ. eigenvalues --   -0.19990
 Alpha virt. eigenvalues --   -0.07328  -0.03653  -0.00259   0.02435   0.03606
 Alpha virt. eigenvalues --    0.03849   0.04477   0.05252   0.05789   0.06652
 Alpha virt. eigenvalues --    0.06957   0.08807   0.09775   0.10020   0.10319

 Mulliken charges:
               1
     1  Mg   0.820818
     2  C    0.059854
     3  C   -0.208149
     4  C   -0.165737
     5  C   -0.195475
     6  N   -0.606866
     7  C    0.313246
     8  C   -0.180499
     9  C   -0.118797
    10  C    0.319550
    11  C   -0.307729
    12  C   -0.165831
    13  C   -0.255273
    14  C    0.558861
    15  O   -0.482006
    16  O   -0.408415
    17  N   -0.721481
    18  C    0.312059
    19  C    0.034767
    20  C    0.079385
    21  C    0.263908
    22  C   -0.399220
    23  C   -0.100242
    24  C   -0.234767
    25  N   -0.721577
    26  C    0.377246
    27  C   -0.016768
    28  C    0.073714
    29  C    0.262577
    30  C   -0.384882
    31  C   -0.251696
    32  C   -0.313994
    33  N   -0.703339
    34  C    0.275313
    35  C    0.044043
    36  C   -0.007428
    37  C    0.363423
    38  C   -0.403326
    39  C    0.354992
    40  O   -0.471217
    41  C   -0.335681
    42  C    0.619065
    43  O   -0.492533
    44  O   -0.455355
    45  C   -0.093893
    46  C   -0.002191
    47  C   -0.125329
    48  C    0.127150
    49  C   -0.381317
    50  C   -0.228687
    51  C   -0.150176
    52  C   -0.174072
    53  C   -0.050606
    54  C   -0.303339
    55  C   -0.165130
    56  C   -0.162012
    57  C   -0.187262
    58  C   -0.062334
    59  C   -0.316851
    60  C   -0.166453
    61  C   -0.187040
    62  C   -0.147802
    63  C   -0.062113
    64  C   -0.343840
    65  C   -0.287334
    66  H    0.070092
    67  H    0.076003
    68  H    0.086600
    69  H    0.129115
    70  H    0.117639
    71  H    0.079388
    72  H    0.110724
    73  H    0.139840
    74  H    0.119682
    75  H    0.088371
    76  H    0.124823
    77  H    0.124520
    78  H    0.124299
    79  H    0.107429
    80  H    0.120429
    81  H    0.079228
    82  H    0.106797
    83  H    0.098602
    84  H    0.116515
    85  H    0.118124
    86  H    0.102477
    87  H    0.110779
    88  H    0.103203
    89  H    0.110718
    90  H    0.108731
    91  H    0.111231
    92  H    0.131189
    93  H    0.115558
    94  H    0.135170
    95  H    0.164498
    96  H    0.133451
    97  H    0.141054
    98  H    0.129709
    99  H    0.126149
   100  H    0.132426
   101  H    0.088077
   102  H    0.113843
   103  H    0.129436
   104  H    0.131674
   105  H    0.106292
   106  H    0.087512
   107  H    0.092292
   108  H    0.089537
   109  H    0.072371
   110  H    0.088696
   111  H    0.077904
   112  H    0.104825
   113  H    0.119830
   114  H    0.067664
   115  H    0.079251
   116  H    0.092358
   117  H    0.065873
   118  H    0.096622
   119  H    0.057896
   120  H    0.085376
   121  H    0.079205
   122  H    0.100728
   123  H    0.113383
   124  H    0.091190
   125  H    0.081592
   126  H    0.103445
   127  H    0.098274
   128  H    0.079993
   129  H    0.096533
   130  H    0.089410
   131  H    0.099632
   132  H    0.112522
   133  H    0.101284
   134  H    0.085658
   135  H    0.100920
   136  H    0.094550
   137  H    0.075886
 Sum of Mulliken charges =  -0.00000

 Dipole moment (field-independent basis, Debye):
    X=              3.8099    Y=              3.9859    Z=             -0.8557  Tot=              5.5798
 Quadrupole moment (field-independent basis, Debye-Ang):
   XX=           -334.2503   YY=           -392.0258   ZZ=           -396.1014
   XY=            -26.1160   XZ=             10.9119   YZ=             -4.5603

 Normal termination of Gaussian 16 at Tue Sep 24 11:59:24 2019.
