 Gaussian 09, Revision D.01,
 Gaussian 09:  ES64L-G09RevD.01 24-Apr-2013

 -------------------------------------
 # td=(NStates=1) CAM-B3LYP/6-31G(d,p)
 -------------------------------------

 --
 TD
 --
 Symbolic Z-matrix:
 Charge =  0 Multiplicity = 1

                         Standard orientation:
 ---------------------------------------------------------------------
 Center     Atomic      Atomic             Coordinates (Angstroms)
 Number     Number       Type             X           Y           Z
 ---------------------------------------------------------------------
      1         12           0       -7.109931    0.685347    0.123903
      2          6           0       -4.904143   -2.009688    0.524469
      3          6           0       -4.814429    2.778507    1.182939
      4          6           0       -9.470136    3.153563   -0.307576
      5          6           0       -9.554311   -1.770174   -0.746521
      6          7           0       -5.112799    0.302438    0.621665
      7          6           0       -4.335861   -0.810404    0.773426
      8          6           0       -2.892844   -0.447289    1.151031
      9          6           0       -3.069344    0.947842    1.678275
     10          6           0       -4.477106    1.348890    1.237569
     11          6           0       -2.877617    1.110366    3.103673
     12          6           0       -1.901869   -0.547132   -0.050632
     13          6           0       -0.382459   -0.621294    0.415438
     14          6           0        0.576626   -0.789028   -0.729144
     15          8           0        0.353190   -1.090320   -1.836483
     16          8           0        1.827558   -0.413606   -0.312438
     17          7           0       -7.083569    2.593308    0.303173
     18          6           0       -6.114175    3.343744    0.760630
     19          6           0       -6.368745    4.752181    0.701035
     20          6           0       -7.704030    4.887438    0.311242
     21          6           0       -8.161189    3.548104   -0.040937
     22          6           0       -5.466017    5.757122    1.180580
     23          6           0       -8.568394    6.032073    0.243996
     24          6           0       -8.428319    7.133448    0.968777
     25          7           0       -9.075368    0.659027   -0.572921
     26          6           0       -9.891555    1.870247   -0.657284
     27          6           0      -11.217577    1.513271   -1.079374
     28          6           0      -11.218926    0.130224   -1.277841
     29          6           0       -9.941348   -0.379815   -0.919280
     30          6           0      -12.341882    2.471899   -1.432773
     31          6           0      -12.498450   -0.710046   -1.705880
     32          6           0      -12.371259   -1.190000   -3.185717
     33          7           0       -7.285554   -1.383706   -0.033002
     34          6           0       -8.313772   -2.267925   -0.427856
     35          6           0       -7.820265   -3.633460   -0.432359
     36          6           0       -6.508239   -3.516367   -0.100144
     37          6           0       -6.200642   -2.179281    0.218840
     38          6           0       -8.716539   -4.774371   -0.626486
     39          6           0       -5.317322   -4.400046    0.250381
     40          8           0       -5.103378   -5.597012    0.127568
     41          6           0       -4.273107   -3.324594    0.580546
     42          6           0       -3.580067   -3.692987    1.937785
     43          8           0       -3.898400   -3.120533    2.928000
     44          8           0       -2.653674   -4.598758    1.713934
     45          6           0       -2.249051   -5.149103    2.933166
     46          6           0        2.892860   -0.627110   -1.365599
     47          6           0        4.211894   -0.301813   -0.681525
     48          6           0        5.180474    0.426455   -1.064511
     49          6           0        5.037699    1.346230   -2.348001
     50          6           0        6.402877    0.621425   -0.271960
     51          6           0        7.573180    0.089916   -1.066031
     52          6           0        8.924035    0.076088   -0.310766
     53          6           0       10.217297   -0.451622   -0.942358
     54          6           0       10.104402   -1.901217   -1.455211
     55          6           0       11.368646   -0.271231   -0.036085
     56          6           0       12.777489   -0.498229   -0.626348
     57          6           0       13.902773    0.060981    0.216326
     58          6           0       15.310277   -0.114801   -0.454661
     59          6           0       15.702626   -1.578819   -0.908766
     60          6           0       16.374193    0.410365    0.494446
     61          6           0       17.813986    0.589392   -0.091491
     62          6           0       18.831971    1.226791    0.940324
     63          6           0       20.334061    1.165615    0.425760
     64          6           0       20.629280    1.722795   -1.048234
     65          6           0       21.278929    1.744249    1.442279
     66          1           0       -3.909328    3.412618    1.574002
     67          1           0      -10.213570    3.968011   -0.227536
     68          1           0      -10.370940   -2.584247   -1.184542
     69          1           0       -2.684899   -1.065668    2.026662
     70          1           0       -2.301126    1.630798    1.218872
     71          1           0       -1.864631    0.525458    3.437591
     72          1           0       -2.680369    2.162036    3.572342
     73          1           0       -3.866245    0.642361    3.445426
     74          1           0       -2.226766   -1.667384   -0.529479
     75          1           0       -2.051454    0.350751   -0.712827
     76          1           0        0.015313    0.323183    0.841106
     77          1           0       -0.149080   -1.519183    1.210954
     78          1           0       -5.630098    6.828742    0.605927
     79          1           0       -5.556458    6.177552    2.167957
     80          1           0       -4.308596    5.613225    1.104910
     81          1           0       -9.463842    6.287554   -0.449172
     82          1           0       -8.915746    7.960428    0.845330
     83          1           0       -7.754063    7.313572    1.807390
     84          1           0      -12.004116    3.020454   -2.302728
     85          1           0      -13.301768    1.988403   -1.376661
     86          1           0      -12.318905    3.109023   -0.706718
     87          1           0      -12.389170   -1.717180   -1.231576
     88          1           0      -13.352689   -0.341331   -1.549993
     89          1           0      -13.349165   -1.738049   -3.455363
     90          1           0      -12.350728   -0.254177   -3.890192
     91          1           0      -11.540088   -1.917836   -3.389494
     92          1           0       -9.258297   -4.742188   -1.556978
     93          1           0       -8.453705   -6.024292   -0.629865
     94          1           0       -9.640347   -4.734317    0.238115
     95          1           0       -3.485654   -3.532802   -0.224448
     96          1           0       -1.814886   -4.304234    3.603174
     97          1           0       -3.072175   -5.566979    3.635272
     98          1           0       -1.578595   -5.906244    2.734333
     99          1           0        2.726491   -1.662519   -1.591121
    100          1           0        2.597182    0.126334   -2.295300
    101          1           0        4.078094   -0.955222    0.250534
    102          1           0        4.026415    1.491941   -2.796072
    103          1           0        5.639133    2.439191   -2.113769
    104          1           0        5.717538    0.986689   -3.068924
    105          1           0        6.581624    1.651348    0.065422
    106          1           0        6.175058   -0.177344    0.477419
    107          1           0        6.947573   -0.800318   -1.388144
    108          1           0        7.714943    0.610563   -1.859461
    109          1           0        8.993131    1.109035    0.105858
    110          1           0        8.815838   -0.396609    0.618789
    111          1           0       10.301752    0.274897   -1.672573
    112          1           0        9.237118   -2.192201   -2.047465
    113          1           0       10.858160   -2.169553   -1.993687
    114          1           0       10.348893   -2.693025   -0.699210
    115          1           0       11.344399    0.897883    0.162958
    116          1           0       11.211236   -0.849836    0.922251
    117          1           0       13.016031   -1.575864   -0.663876
    118          1           0       12.715927    0.007178   -1.504892
    119          1           0       13.851950    1.028872    0.498604
    120          1           0       13.766751   -0.580357    1.190403
    121          1           0       15.213319    0.629037   -1.273128
    122          1           0       15.608019   -2.448548    0.021144
    123          1           0       15.033316   -1.897266   -1.545491
    124          1           0       16.637651   -1.554660   -1.452381
    125          1           0       15.883294    1.414771    0.764677
    126          1           0       16.327492   -0.327838    1.204726
    127          1           0       18.373479   -0.512574   -0.403575
    128          1           0       17.876349    1.373030   -0.959893
    129          1           0       18.515734    2.350025    1.033530
    130          1           0       18.681395    0.729809    1.872535
    131          1           0       20.492035    0.061654    0.099175
    132          1           0       20.118823    2.697470   -1.087512
    133          1           0       21.802420    1.753312   -1.237860
    134          1           0       20.249577    1.146745   -1.920392
    135          1           0       21.023886    1.169100    2.457705
    136          1           0       22.295709    1.679975    1.033569
    137          1           0       21.094748    2.798762    1.770268
 ---------------------------------------------------------------------

 SCF Done:  E(RCAM-B3LYP) =  -2932.60338940     A.U. after   17 cycles

 Excitation energies and oscillator strengths:

 Excited State   1:      Singlet-A      2.0584 eV  602.32 nm  f=0.1874  <S**2>=0.000
     240 -> 242       -0.11537
     240 -> 243       -0.27177
     241 -> 242        0.62609
     241 -> 243       -0.11107
 This state for optimization and/or second-order correction.
 Total Energy, E(TD-HF/TD-KS) =  -2932.52774303
 Copying the excited state density for this state as the 1-particle RhoCI density.

 The electronic state is 1-A.
 Alpha  occ. eigenvalues --  -46.83358 -19.28495 -19.24783 -19.21953 -19.21020
 Alpha  occ. eigenvalues --  -19.20866 -14.41526 -14.39727 -14.39032 -14.38906
 Alpha  occ. eigenvalues --  -10.39779 -10.38308 -10.35584 -10.32828 -10.32025
 Alpha  occ. eigenvalues --  -10.31118 -10.30532 -10.30200 -10.29837 -10.29364
 Alpha  occ. eigenvalues --  -10.29271 -10.29156 -10.28989 -10.28953 -10.28889
 Alpha  occ. eigenvalues --  -10.28661 -10.28408 -10.28335 -10.27872 -10.27865
 Alpha  occ. eigenvalues --  -10.27804 -10.27762 -10.27661 -10.27576 -10.27464
 Alpha  occ. eigenvalues --  -10.27268 -10.27227 -10.27223 -10.26995 -10.26955
 Alpha  occ. eigenvalues --  -10.26751 -10.26659 -10.26239 -10.26188 -10.26016
 Alpha  occ. eigenvalues --  -10.25789 -10.25777 -10.25758 -10.25733 -10.25725
 Alpha  occ. eigenvalues --  -10.25648 -10.25624 -10.25427 -10.25397 -10.25345
 Alpha  occ. eigenvalues --  -10.25261 -10.24968 -10.24883 -10.24776 -10.24691
 Alpha  occ. eigenvalues --  -10.24690 -10.24334 -10.24319 -10.24252 -10.23280
 Alpha  occ. eigenvalues --   -3.12569  -1.87254  -1.86795  -1.86789  -1.21703
 Alpha  occ. eigenvalues --   -1.18016  -1.12437  -1.11027  -1.09031  -1.04632
 Alpha  occ. eigenvalues --   -1.03103  -1.02777  -0.99718  -0.93722  -0.92739
 Alpha  occ. eigenvalues --   -0.91037  -0.90420  -0.89921  -0.89381  -0.87984
 Alpha  occ. eigenvalues --   -0.87598  -0.87393  -0.86977  -0.86731  -0.85848
 Alpha  occ. eigenvalues --   -0.85124  -0.84315  -0.83916  -0.83396  -0.83048
 Alpha  occ. eigenvalues --   -0.81553  -0.80375  -0.80093  -0.79707  -0.78204
 Alpha  occ. eigenvalues --   -0.77426  -0.77043  -0.76981  -0.76229  -0.76016
 Alpha  occ. eigenvalues --   -0.75190  -0.74850  -0.74500  -0.73403  -0.72077
 Alpha  occ. eigenvalues --   -0.70966  -0.70396  -0.69084  -0.68752  -0.68471
 Alpha  occ. eigenvalues --   -0.66976  -0.66564  -0.65095  -0.64860  -0.64774
 Alpha  occ. eigenvalues --   -0.64357  -0.63604  -0.61884  -0.61767  -0.61253
 Alpha  occ. eigenvalues --   -0.61232  -0.60844  -0.60330  -0.59751  -0.59072
 Alpha  occ. eigenvalues --   -0.58629  -0.58105  -0.57467  -0.57379  -0.56865
 Alpha  occ. eigenvalues --   -0.56573  -0.56091  -0.55784  -0.55670  -0.55415
 Alpha  occ. eigenvalues --   -0.54902  -0.54570  -0.54091  -0.53644  -0.53453
 Alpha  occ. eigenvalues --   -0.52974  -0.52610  -0.52451  -0.52308  -0.52179
 Alpha  occ. eigenvalues --   -0.51647  -0.51447  -0.51320  -0.50881  -0.50567
 Alpha  occ. eigenvalues --   -0.50403  -0.50011  -0.49896  -0.49429  -0.49347
 Alpha  occ. eigenvalues --   -0.49029  -0.48910  -0.48788  -0.48500  -0.48315
 Alpha  occ. eigenvalues --   -0.48034  -0.47576  -0.47149  -0.46997  -0.46718
 Alpha  occ. eigenvalues --   -0.46546  -0.46388  -0.46194  -0.45915  -0.45668
 Alpha  occ. eigenvalues --   -0.45443  -0.45220  -0.44954  -0.44884  -0.44321
 Alpha  occ. eigenvalues --   -0.44213  -0.44153  -0.43975  -0.43938  -0.43841
 Alpha  occ. eigenvalues --   -0.43615  -0.43501  -0.43381  -0.43325  -0.43217
 Alpha  occ. eigenvalues --   -0.43128  -0.42832  -0.42527  -0.42440  -0.42267
 Alpha  occ. eigenvalues --   -0.42112  -0.41955  -0.41889  -0.41697  -0.41444
 Alpha  occ. eigenvalues --   -0.41212  -0.41065  -0.40648  -0.40364  -0.40178
 Alpha  occ. eigenvalues --   -0.39939  -0.39761  -0.39644  -0.39325  -0.38974
 Alpha  occ. eigenvalues --   -0.38622  -0.38391  -0.38375  -0.38110  -0.37693
 Alpha  occ. eigenvalues --   -0.37602  -0.37407  -0.37150  -0.37140  -0.36810
 Alpha  occ. eigenvalues --   -0.36682  -0.36591  -0.35969  -0.35923  -0.35772
 Alpha  occ. eigenvalues --   -0.35484  -0.34990  -0.34609  -0.34302  -0.33695
 Alpha  occ. eigenvalues --   -0.33611  -0.33195  -0.32074  -0.31468  -0.30616
 Alpha  occ. eigenvalues --   -0.30136  -0.29224  -0.27841  -0.26930  -0.22891
 Alpha  occ. eigenvalues --   -0.21276
 Alpha virt. eigenvalues --   -0.06227  -0.03459   0.01362   0.03943   0.05643
 Alpha virt. eigenvalues --    0.06556   0.06787   0.06838   0.07369   0.07513
 Alpha virt. eigenvalues --    0.08377   0.10701   0.10871   0.11301   0.11628

 Mulliken charges:
               1
     1  Mg   0.822477
     2  C    0.103566
     3  C   -0.211711
     4  C   -0.160668
     5  C   -0.184948
     6  N   -0.624815
     7  C    0.263983
     8  C   -0.120894
     9  C   -0.151874
    10  C    0.316454
    11  C   -0.283983
    12  C   -0.151898
    13  C   -0.268861
    14  C    0.604257
    15  O   -0.443745
    16  O   -0.518219
    17  N   -0.722354
    18  C    0.349099
    19  C    0.066843
    20  C    0.039415
    21  C    0.218610
    22  C   -0.409922
    23  C   -0.110086
    24  C   -0.221720
    25  N   -0.671303
    26  C    0.254779
    27  C   -0.015636
    28  C    0.007387
    29  C    0.285296
    30  C   -0.346996
    31  C   -0.201358
    32  C   -0.307870
    33  N   -0.711579
    34  C    0.278165
    35  C    0.082004
    36  C   -0.066468
    37  C    0.337228
    38  C   -0.386862
    39  C    0.409119
    40  O   -0.454451
    41  C   -0.363797
    42  C    0.625935
    43  O   -0.455278
    44  O   -0.408372
    45  C   -0.102812
    46  C    0.015080
    47  C   -0.125935
    48  C    0.118008
    49  C   -0.352381
    50  C   -0.227986
    51  C   -0.164794
    52  C   -0.190610
    53  C   -0.040178
    54  C   -0.321969
    55  C   -0.183181
    56  C   -0.165168
    57  C   -0.169866
    58  C   -0.079005
    59  C   -0.307476
    60  C   -0.144193
    61  C   -0.172169
    62  C   -0.171433
    63  C   -0.044403
    64  C   -0.321772
    65  C   -0.295804
    66  H    0.085564
    67  H    0.103282
    68  H    0.084034
    69  H    0.127036
    70  H    0.097707
    71  H    0.082510
    72  H    0.104902
    73  H    0.113566
    74  H    0.098899
    75  H    0.127534
    76  H    0.142992
    77  H    0.123418
    78  H    0.093818
    79  H    0.135224
    80  H    0.105482
    81  H    0.102052
    82  H    0.097991
    83  H    0.096392
    84  H    0.132677
    85  H    0.114163
    86  H    0.128380
    87  H    0.100403
    88  H    0.100789
    89  H    0.086415
    90  H    0.096142
    91  H    0.109192
    92  H    0.135388
    93  H    0.121980
    94  H    0.103362
    95  H    0.157431
    96  H    0.118235
    97  H    0.126845
    98  H    0.130439
    99  H    0.138034
   100  H    0.102581
   101  H    0.097000
   102  H    0.118125
   103  H    0.076611
   104  H    0.134197
   105  H    0.102310
   106  H    0.105178
   107  H    0.083549
   108  H    0.100620
   109  H    0.078898
   110  H    0.092126
   111  H    0.089606
   112  H    0.106251
   113  H    0.118483
   114  H    0.087473
   115  H    0.065864
   116  H    0.083166
   117  H    0.098210
   118  H    0.095085
   119  H    0.093650
   120  H    0.065047
   121  H    0.080171
   122  H    0.064331
   123  H    0.118423
   124  H    0.113117
   125  H    0.075609
   126  H    0.104112
   127  H    0.060934
   128  H    0.085864
   129  H    0.073578
   130  H    0.101538
   131  H    0.080125
   132  H    0.099989
   133  H    0.085492
   134  H    0.105699
   135  H    0.085815
   136  H    0.103090
   137  H    0.104905
 Sum of Mulliken charges =   0.00000

 Dipole moment (field-independent basis, Debye):
    X=              1.6667    Y=              3.5510    Z=              0.8091  Tot=              4.0053
 Quadrupole moment (field-independent basis, Debye-Ang):
   XX=           -355.3159   YY=           -382.1506   ZZ=           -400.9645
   XY=            -20.0159   XZ=             -1.9886   YZ=             -2.8667

 Normal termination of Gaussian 09 at Tue Jul  2 16:05:39 2019.
