 Gaussian 09, Revision D.01,
 Gaussian 09:  ES64L-G09RevD.01 24-Apr-2013

 -------------------------------------
 # td=(NStates=1) CAM-B3LYP/6-31G(d,p)
 -------------------------------------

 --
 TD
 --
 Symbolic Z-matrix:
 Charge =  0 Multiplicity = 1

                         Standard orientation:
 ---------------------------------------------------------------------
 Center     Atomic      Atomic             Coordinates (Angstroms)
 Number     Number       Type             X           Y           Z
 ---------------------------------------------------------------------
      1         12           0       -7.125764    0.567782    0.128573
      2          6           0       -4.901065   -2.002649    0.503977
      3          6           0       -4.835612    2.863729    1.079461
      4          6           0       -9.452396    3.124481   -0.352225
      5          6           0       -9.597209   -1.760793   -0.789998
      6          7           0       -5.100204    0.441847    0.736326
      7          6           0       -4.362381   -0.680726    0.824126
      8          6           0       -2.942351   -0.232742    1.256858
      9          6           0       -2.955665    1.197716    1.577419
     10          6           0       -4.381563    1.536187    1.029494
     11          6           0       -2.925343    1.426173    3.118030
     12          6           0       -1.842269   -0.751293    0.098629
     13          6           0       -0.385390   -0.619528    0.630445
     14          6           0        0.546421   -0.821172   -0.600735
     15          8           0        0.219154   -1.117827   -1.730853
     16          8           0        1.848400   -0.526437   -0.205199
     17          7           0       -7.192784    2.634944    0.279116
     18          6           0       -6.031707    3.354633    0.692161
     19          6           0       -6.424204    4.781531    0.740044
     20          6           0       -7.761134    4.869390    0.218706
     21          6           0       -8.094078    3.436548   -0.002533
     22          6           0       -5.627205    5.958653    1.080654
     23          6           0       -8.551110    6.143922    0.067244
     24          6           0       -8.470093    7.295285    0.696528
     25          7           0       -9.133624    0.690090   -0.511663
     26          6           0       -9.814768    1.766874   -0.725339
     27          6           0      -11.186957    1.480364   -1.024201
     28          6           0      -11.296220    0.202505   -1.137806
     29          6           0       -9.963167   -0.381485   -0.793688
     30          6           0      -12.361654    2.530998   -1.318026
     31          6           0      -12.384253   -0.711085   -1.649246
     32          6           0      -12.408050   -1.224761   -3.083680
     33          7           0       -7.332198   -1.395545   -0.169889
     34          6           0       -8.377423   -2.201959   -0.486441
     35          6           0       -7.885969   -3.627781   -0.602838
     36          6           0       -6.556439   -3.553865   -0.191706
     37          6           0       -6.267645   -2.204098    0.004067
     38          6           0       -8.660937   -4.956276   -0.924892
     39          6           0       -5.369867   -4.372095    0.189864
     40          8           0       -5.244303   -5.611748    0.220957
     41          6           0       -4.267679   -3.336623    0.487349
     42          6           0       -3.563033   -3.684913    1.849886
     43          8           0       -3.797884   -3.062671    2.978070
     44          8           0       -2.769963   -4.712844    1.711338
     45          6           0       -2.112635   -5.241430    2.929122
     46          6           0        2.943858   -0.638607   -1.200402
     47          6           0        4.166786   -0.494154   -0.521981
     48          6           0        5.169933    0.362512   -0.939901
     49          6           0        5.015480    1.107542   -2.243881
     50          6           0        6.575115    0.452954   -0.204535
     51          6           0        7.734048   -0.278812   -0.893577
     52          6           0        8.958565   -0.030298   -0.070057
     53          6           0       10.184239   -0.680287   -0.767532
     54          6           0       10.090663   -2.031719   -1.152614
     55          6           0       11.453211   -0.381038    0.133475
     56          6           0       12.770734   -0.529763   -0.702113
     57          6           0       14.036023   -0.093783    0.139369
     58          6           0       15.380062   -0.203163   -0.454601
     59          6           0       15.855106   -1.603171   -0.819114
     60          6           0       16.416325    0.387809    0.516251
     61          6           0       17.852470    0.623820   -0.136694
     62          6           0       18.908073    1.365240    0.753621
     63          6           0       20.318473    1.346663    0.134928
     64          6           0       20.322443    2.243675   -1.199918
     65          6           0       21.356845    1.870680    1.216223
     66          1           0       -4.047784    3.470234    1.356416
     67          1           0      -10.258686    3.819156   -0.346661
     68          1           0      -10.336857   -2.402448   -0.915908
     69          1           0       -2.753547   -0.824943    2.196414
     70          1           0       -2.245771    1.994586    0.920343
     71          1           0       -2.040976    1.087572    3.426516
     72          1           0       -3.052634    2.437648    3.480426
     73          1           0       -3.736147    0.947532    3.729154
     74          1           0       -1.994036   -1.816661   -0.254820
     75          1           0       -2.015614   -0.197738   -0.721940
     76          1           0       -0.165407    0.489105    0.832497
     77          1           0       -0.403730   -1.311350    1.506177
     78          1           0       -5.959716    6.835593    0.635734
     79          1           0       -5.479105    6.026650    2.212509
     80          1           0       -4.455979    5.704335    0.733566
     81          1           0       -9.090260    6.102007   -0.804429
     82          1           0       -9.326727    8.066756    0.675708
     83          1           0       -7.816735    7.355606    1.681449
     84          1           0      -12.021603    2.900204   -2.248879
     85          1           0      -13.280549    2.050428   -1.515485
     86          1           0      -12.454715    3.283987   -0.621526
     87          1           0      -12.567443   -1.551668   -0.999433
     88          1           0      -13.378219   -0.034607   -1.547233
     89          1           0      -13.378574   -1.695380   -3.223707
     90          1           0      -12.378115   -0.396113   -3.704966
     91          1           0      -11.503988   -1.977018   -3.148927
     92          1           0       -8.772029   -5.049894   -2.045207
     93          1           0       -8.151433   -5.894927   -0.372005
     94          1           0       -9.750388   -4.554940   -0.609642
     95          1           0       -3.319516   -3.399388   -0.323645
     96          1           0       -1.732801   -4.327191    3.580224
     97          1           0       -2.723592   -5.886356    3.468310
     98          1           0       -1.337221   -5.947464    2.343400
     99          1           0        2.723001   -1.728101   -1.794805
    100          1           0        2.788872   -0.019782   -2.067370
    101          1           0        4.362958   -0.818135    0.389759
    102          1           0        3.996071    1.137228   -2.700722
    103          1           0        5.173258    2.197921   -2.054367
    104          1           0        5.706687    0.720548   -2.766684
    105          1           0        6.489651    1.455251    0.162470
    106          1           0        6.618528    0.084884    0.865882
    107          1           0        7.151387   -1.371756   -1.196962
    108          1           0        7.755361    0.387344   -1.875400
    109          1           0        9.265027    1.194720   -0.060914
    110          1           0        8.904174   -0.554747    0.966418
    111          1           0       10.297575   -0.019301   -1.577405
    112          1           0        9.455461   -2.011983   -1.974392
    113          1           0       11.070586   -2.670713   -1.427222
    114          1           0        9.601320   -2.797525   -0.395596
    115          1           0       11.545315    0.653186    0.325088
    116          1           0       11.282880   -1.208879    0.984285
    117          1           0       13.039910   -1.679577   -0.667787
    118          1           0       12.608058   -0.165790   -1.684033
    119          1           0       13.903666    0.993889    0.408295
    120          1           0       13.922494   -0.540727    1.063631
    121          1           0       15.316126    0.280653   -1.515977
    122          1           0       15.871139   -2.316097    0.167295
    123          1           0       15.099164   -1.901594   -1.612904
    124          1           0       16.622916   -1.491048   -1.606204
    125          1           0       16.040925    1.388489    0.825805
    126          1           0       16.176000   -0.582918    1.300523
    127          1           0       18.298631   -0.255258   -0.774603
    128          1           0       17.461332    1.417795   -1.089433
    129          1           0       18.838948    2.519317    0.716608
    130          1           0       19.004444    0.977435    1.735494
    131          1           0       20.632764    0.294915   -0.089948
    132          1           0       19.923644    3.263290   -0.890962
    133          1           0       21.210091    2.253612   -1.615170
    134          1           0       19.645956    1.815768   -1.889698
    135          1           0       21.441360    1.417550    2.111565
    136          1           0       22.384889    2.110290    0.895235
    137          1           0       20.852515    2.707136    1.495248
 ---------------------------------------------------------------------

 SCF Done:  E(RCAM-B3LYP) =  -2932.52124821     A.U. after   18 cycles

 Excitation energies and oscillator strengths:

 Excited State   1:      Singlet-A      1.9667 eV  630.42 nm  f=0.2325  <S**2>=0.000
     240 -> 243       -0.25471
     241 -> 242        0.65643
 This state for optimization and/or second-order correction.
 Total Energy, E(TD-HF/TD-KS) =  -2932.44897387
 Copying the excited state density for this state as the 1-particle RhoCI density.

 The electronic state is 1-A.
 Alpha  occ. eigenvalues --  -46.85103 -19.28029 -19.25425 -19.21816 -19.20712
 Alpha  occ. eigenvalues --  -19.20151 -14.42393 -14.39447 -14.39381 -14.38747
 Alpha  occ. eigenvalues --  -10.40100 -10.39812 -10.35832 -10.33615 -10.32242
 Alpha  occ. eigenvalues --  -10.31553 -10.30744 -10.30286 -10.29950 -10.29609
 Alpha  occ. eigenvalues --  -10.29105 -10.29047 -10.28935 -10.28775 -10.28718
 Alpha  occ. eigenvalues --  -10.28691 -10.28646 -10.28606 -10.28503 -10.28311
 Alpha  occ. eigenvalues --  -10.28173 -10.28032 -10.28022 -10.27900 -10.27180
 Alpha  occ. eigenvalues --  -10.27062 -10.26908 -10.26861 -10.26801 -10.26706
 Alpha  occ. eigenvalues --  -10.26699 -10.26574 -10.26484 -10.26379 -10.26111
 Alpha  occ. eigenvalues --  -10.25794 -10.25764 -10.25711 -10.25656 -10.25653
 Alpha  occ. eigenvalues --  -10.25545 -10.25414 -10.25347 -10.25181 -10.25165
 Alpha  occ. eigenvalues --  -10.24985 -10.24974 -10.24914 -10.24795 -10.24730
 Alpha  occ. eigenvalues --  -10.24657 -10.24427 -10.24377 -10.23616 -10.22636
 Alpha  occ. eigenvalues --   -3.14055  -1.88772  -1.88267  -1.88248  -1.18450
 Alpha  occ. eigenvalues --   -1.16168  -1.09546  -1.08693  -1.05538  -1.04899
 Alpha  occ. eigenvalues --   -1.04673  -1.04372  -1.03455  -0.92610  -0.91915
 Alpha  occ. eigenvalues --   -0.90749  -0.90081  -0.89456  -0.89140  -0.88409
 Alpha  occ. eigenvalues --   -0.88250  -0.88237  -0.87310  -0.86320  -0.85800
 Alpha  occ. eigenvalues --   -0.85150  -0.83877  -0.83548  -0.82900  -0.82404
 Alpha  occ. eigenvalues --   -0.81599  -0.81454  -0.79939  -0.79853  -0.77914
 Alpha  occ. eigenvalues --   -0.77590  -0.77021  -0.76674  -0.76607  -0.76400
 Alpha  occ. eigenvalues --   -0.75586  -0.75077  -0.74426  -0.73392  -0.71761
 Alpha  occ. eigenvalues --   -0.71560  -0.70384  -0.69063  -0.68746  -0.68047
 Alpha  occ. eigenvalues --   -0.66490  -0.66224  -0.65268  -0.64576  -0.63940
 Alpha  occ. eigenvalues --   -0.63880  -0.63117  -0.62750  -0.62668  -0.62069
 Alpha  occ. eigenvalues --   -0.60925  -0.60323  -0.60083  -0.59442  -0.58740
 Alpha  occ. eigenvalues --   -0.58343  -0.57860  -0.57715  -0.56642  -0.56123
 Alpha  occ. eigenvalues --   -0.55997  -0.55700  -0.55074  -0.54833  -0.54772
 Alpha  occ. eigenvalues --   -0.54425  -0.54212  -0.54042  -0.53690  -0.53565
 Alpha  occ. eigenvalues --   -0.52762  -0.52581  -0.52284  -0.51677  -0.51461
 Alpha  occ. eigenvalues --   -0.51268  -0.51117  -0.50984  -0.50680  -0.50395
 Alpha  occ. eigenvalues --   -0.50343  -0.50148  -0.50052  -0.49895  -0.49791
 Alpha  occ. eigenvalues --   -0.49583  -0.49204  -0.48938  -0.48741  -0.48540
 Alpha  occ. eigenvalues --   -0.48285  -0.48062  -0.47735  -0.47486  -0.47284
 Alpha  occ. eigenvalues --   -0.46917  -0.46824  -0.46439  -0.46084  -0.45918
 Alpha  occ. eigenvalues --   -0.45903  -0.45775  -0.45624  -0.45388  -0.45165
 Alpha  occ. eigenvalues --   -0.44788  -0.44580  -0.44436  -0.44189  -0.43951
 Alpha  occ. eigenvalues --   -0.43842  -0.43671  -0.43459  -0.43356  -0.43296
 Alpha  occ. eigenvalues --   -0.42781  -0.42657  -0.42418  -0.42254  -0.42147
 Alpha  occ. eigenvalues --   -0.42071  -0.41784  -0.41749  -0.41451  -0.41327
 Alpha  occ. eigenvalues --   -0.41216  -0.40817  -0.40492  -0.40278  -0.40145
 Alpha  occ. eigenvalues --   -0.40092  -0.39617  -0.39490  -0.39311  -0.39208
 Alpha  occ. eigenvalues --   -0.39124  -0.38701  -0.38089  -0.37848  -0.37439
 Alpha  occ. eigenvalues --   -0.36857  -0.36627  -0.36370  -0.36332  -0.36250
 Alpha  occ. eigenvalues --   -0.36007  -0.35951  -0.35818  -0.35634  -0.35407
 Alpha  occ. eigenvalues --   -0.35092  -0.34783  -0.34070  -0.33628  -0.33218
 Alpha  occ. eigenvalues --   -0.33069  -0.32617  -0.32359  -0.30548  -0.29891
 Alpha  occ. eigenvalues --   -0.29312  -0.28944  -0.28853  -0.27239  -0.22613
 Alpha  occ. eigenvalues --   -0.20041
 Alpha virt. eigenvalues --   -0.05769  -0.02868   0.01102   0.03612   0.05042
 Alpha virt. eigenvalues --    0.05194   0.05688   0.06131   0.06438   0.07334
 Alpha virt. eigenvalues --    0.08297   0.09999   0.10419   0.10946   0.11123

 Mulliken charges:
               1
     1  Mg   0.833715
     2  C    0.074612
     3  C   -0.170658
     4  C   -0.170750
     5  C   -0.139842
     6  N   -0.626143
     7  C    0.316349
     8  C   -0.185795
     9  C   -0.126160
    10  C    0.290789
    11  C   -0.318135
    12  C   -0.178348
    13  C   -0.262787
    14  C    0.611362
    15  O   -0.460015
    16  O   -0.505499
    17  N   -0.681358
    18  C    0.296637
    19  C    0.028539
    20  C   -0.041369
    21  C    0.341341
    22  C   -0.373530
    23  C   -0.042066
    24  C   -0.268406
    25  N   -0.647406
    26  C    0.281453
    27  C   -0.026437
    28  C    0.059813
    29  C    0.226621
    30  C   -0.360399
    31  C   -0.255591
    32  C   -0.284989
    33  N   -0.735220
    34  C    0.294296
    35  C   -0.033129
    36  C    0.022592
    37  C    0.279136
    38  C   -0.353056
    39  C    0.402522
    40  O   -0.480045
    41  C   -0.327104
    42  C    0.609918
    43  O   -0.529160
    44  O   -0.419962
    45  C   -0.090519
    46  C    0.021878
    47  C   -0.067062
    48  C    0.025947
    49  C   -0.348156
    50  C   -0.225724
    51  C   -0.160335
    52  C   -0.160814
    53  C   -0.069030
    54  C   -0.302400
    55  C   -0.165936
    56  C   -0.189373
    57  C   -0.163746
    58  C   -0.071987
    59  C   -0.298628
    60  C   -0.129718
    61  C   -0.172894
    62  C   -0.156228
    63  C   -0.091668
    64  C   -0.304989
    65  C   -0.320908
    66  H    0.076688
    67  H    0.091752
    68  H    0.068927
    69  H    0.133000
    70  H    0.094845
    71  H    0.124693
    72  H    0.109956
    73  H    0.129066
    74  H    0.106335
    75  H    0.127486
    76  H    0.133448
    77  H    0.142858
    78  H    0.138345
    79  H    0.117233
    80  H    0.075905
    81  H    0.101429
    82  H    0.107967
    83  H    0.094349
    84  H    0.131996
    85  H    0.115684
    86  H    0.124190
    87  H    0.108556
    88  H    0.065810
    89  H    0.111207
    90  H    0.118632
    91  H    0.092953
    92  H    0.134011
    93  H    0.150880
    94  H    0.099370
    95  H    0.148698
    96  H    0.143318
    97  H    0.158344
    98  H    0.123923
    99  H    0.089227
   100  H    0.124643
   101  H    0.084621
   102  H    0.112758
   103  H    0.108215
   104  H    0.134632
   105  H    0.114275
   106  H    0.086401
   107  H    0.104999
   108  H    0.087407
   109  H    0.087250
   110  H    0.092012
   111  H    0.089974
   112  H    0.117401
   113  H    0.097919
   114  H    0.080853
   115  H    0.093394
   116  H    0.076069
   117  H    0.083351
   118  H    0.096352
   119  H    0.071614
   120  H    0.097764
   121  H    0.058894
   122  H    0.090126
   123  H    0.091330
   124  H    0.111211
   125  H    0.095202
   126  H    0.053136
   127  H    0.098880
   128  H    0.054046
   129  H    0.086492
   130  H    0.106711
   131  H    0.077817
   132  H    0.088602
   133  H    0.113509
   134  H    0.110958
   135  H    0.107673
   136  H    0.095854
   137  H    0.102527
 Sum of Mulliken charges =   0.00000

 Dipole moment (field-independent basis, Debye):
    X=              3.3119    Y=              3.6393    Z=              0.2374  Tot=              4.9264
 Quadrupole moment (field-independent basis, Debye-Ang):
   XX=           -364.0447   YY=           -396.4139   ZZ=           -395.9262
   XY=            -17.5246   XZ=              5.6177   YZ=             -3.2403

 Normal termination of Gaussian 09 at Wed Jul  3 14:40:52 2019.
