 Gaussian 16, Revision A.03,
 Gaussian 16:  ES64L-G16RevA.03 25-Dec-2016

 ----------------------------------------------------------------------
 # td=(NStates=1) iop(3/107=0140000000,3/108=0140000000) CAM-B3LYP/6-31
 G(d,p)
 ----------------------------------------------------------------------

 --
 TD
 --
 Symbolic Z-matrix:
 Charge =  0 Multiplicity = 1

                         Standard orientation:
 ---------------------------------------------------------------------
 Center     Atomic      Atomic             Coordinates (Angstroms)
 Number     Number       Type             X           Y           Z
 ---------------------------------------------------------------------
      1         12           0       -7.050066    0.579113    0.227553
      2          6           0       -4.805586   -1.977213    0.487398
      3          6           0       -4.783296    2.738761    1.151562
      4          6           0       -9.378485    3.087273   -0.430306
      5          6           0       -9.491971   -1.730649   -0.860943
      6          7           0       -5.081763    0.403007    0.764752
      7          6           0       -4.387975   -0.684910    0.917662
      8          6           0       -2.811962   -0.457717    1.262885
      9          6           0       -2.911421    1.031070    1.745348
     10          6           0       -4.394272    1.497520    1.137109
     11          6           0       -2.983263    1.152945    3.295951
     12          6           0       -1.966498   -0.593230    0.065763
     13          6           0       -0.469153   -0.427910    0.494776
     14          6           0        0.489399   -0.580248   -0.577003
     15          8           0        0.099504   -1.061377   -1.686929
     16          8           0        1.719504   -0.250946   -0.246910
     17          7           0       -7.131651    2.638045    0.373588
     18          6           0       -6.063396    3.294402    0.847549
     19          6           0       -6.391248    4.678149    0.891562
     20          6           0       -7.639086    4.815004    0.423638
     21          6           0       -8.099343    3.455923    0.115460
     22          6           0       -5.456220    5.821820    1.230741
     23          6           0       -8.358536    6.006042    0.081807
     24          6           0       -8.356295    7.210034    0.734018
     25          7           0       -9.023615    0.662661   -0.541427
     26          6           0       -9.806926    1.870175   -0.700600
     27          6           0      -11.136641    1.495820   -1.168203
     28          6           0      -11.189491    0.218531   -1.241879
     29          6           0       -9.807607   -0.381827   -0.895226
     30          6           0      -12.264497    2.538101   -1.357588
     31          6           0      -12.303636   -0.774764   -1.730553
     32          6           0      -12.238124   -1.103292   -3.289250
     33          7           0       -7.235652   -1.432280   -0.182040
     34          6           0       -8.233156   -2.228086   -0.510849
     35          6           0       -7.870829   -3.650755   -0.530722
     36          6           0       -6.481989   -3.615853   -0.145528
     37          6           0       -6.205338   -2.196539    0.030506
     38          6           0       -8.590593   -4.793424   -0.951310
     39          6           0       -5.335264   -4.445038    0.191668
     40          8           0       -5.162610   -5.613944    0.164787
     41          6           0       -4.198072   -3.380268    0.575228
     42          6           0       -3.525747   -3.695965    1.923825
     43          8           0       -3.852889   -3.170728    2.948954
     44          8           0       -2.684344   -4.688116    1.702854
     45          6           0       -2.120737   -5.331825    2.954076
     46          6           0        2.772745   -0.557303   -1.189333
     47          6           0        4.056105   -0.167451   -0.472740
     48          6           0        5.085638    0.472048   -1.045192
     49          6           0        4.895340    1.349465   -2.301676
     50          6           0        6.403710    0.505482   -0.281803
     51          6           0        7.522811   -0.132909   -0.976795
     52          6           0        8.920634   -0.069313   -0.181949
     53          6           0       10.151019   -0.616903   -0.998929
     54          6           0       10.092875   -2.141697   -1.271751
     55          6           0       11.388052   -0.265783   -0.112995
     56          6           0       12.733415   -0.473855   -0.697745
     57          6           0       13.907143   -0.099147    0.147415
     58          6           0       15.287075   -0.147320   -0.535056
     59          6           0       15.656209   -1.709381   -1.009944
     60          6           0       16.303318    0.422846    0.379252
     61          6           0       17.770223    0.599203   -0.149433
     62          6           0       18.758083    1.265868    0.832006
     63          6           0       20.179331    1.377129    0.344491
     64          6           0       20.366325    2.095252   -1.091804
     65          6           0       21.219055    1.754348    1.358598
     66          1           0       -3.943585    3.510642    1.262182
     67          1           0       -9.942527    3.931499   -0.672453
     68          1           0      -10.319532   -2.387447   -0.918329
     69          1           0       -2.543466   -1.131973    1.972953
     70          1           0       -2.238238    1.619084    1.425281
     71          1           0       -1.934661    0.822264    3.477554
     72          1           0       -3.010921    2.448985    3.715396
     73          1           0       -3.945123    0.567665    3.720024
     74          1           0       -2.097041   -1.515783   -0.471346
     75          1           0       -2.341334    0.312609   -0.474665
     76          1           0       -0.145197    0.587606    0.957606
     77          1           0       -0.180933   -1.039135    1.349279
     78          1           0       -5.869706    6.810393    0.590784
     79          1           0       -5.767633    6.069591    2.240529
     80          1           0       -4.468965    5.453383    1.047221
     81          1           0       -9.085319    5.926079   -0.946515
     82          1           0       -9.008331    8.001053    0.284076
     83          1           0       -7.566876    7.437044    1.494010
     84          1           0      -12.046507    3.398499   -1.980685
     85          1           0      -13.167605    2.170213   -1.891606
     86          1           0      -12.550750    2.859551   -0.474219
     87          1           0      -12.244789   -1.740004   -1.133152
     88          1           0      -13.236975   -0.173130   -1.646509
     89          1           0      -13.004255   -1.569152   -3.562756
     90          1           0      -12.274414   -0.173780   -3.634241
     91          1           0      -11.221373   -1.502395   -3.521381
     92          1           0       -9.117839   -4.323452   -1.921895
     93          1           0       -7.729640   -5.630140   -1.159849
     94          1           0       -9.515507   -5.237939   -0.305615
     95          1           0       -3.455813   -3.631725   -0.325036
     96          1           0       -1.221205   -4.757561    3.242445
     97          1           0       -2.891826   -5.557572    3.866630
     98          1           0       -1.690420   -6.260242    2.444965
     99          1           0        2.788674   -1.608441   -1.424525
    100          1           0        2.443303    0.005609   -2.088115
    101          1           0        4.182446   -0.701529    0.564204
    102          1           0        3.917252    1.083788   -2.822217
    103          1           0        5.154083    2.310316   -2.130924
    104          1           0        5.815430    1.218809   -3.009580
    105          1           0        6.650601    1.622644   -0.030667
    106          1           0        6.336544   -0.093960    0.781497
    107          1           0        7.134280   -1.121719   -1.136894
    108          1           0        7.528979    0.389767   -2.119022
    109          1           0        9.154761    0.924782    0.071718
    110          1           0        8.771302   -0.734203    0.699410
    111          1           0       10.339378    0.013325   -1.882945
    112          1           0        9.276544   -2.250538   -1.679102
    113          1           0       10.962494   -2.550758   -1.755941
    114          1           0        9.881077   -2.688308   -0.363070
    115          1           0       11.210873    0.870643    0.154489
    116          1           0       11.200233   -0.900712    0.988720
    117          1           0       12.506291   -1.729334   -0.792926
    118          1           0       12.594298    0.315003   -1.524941
    119          1           0       13.723860    0.949028    0.732811
    120          1           0       13.854775   -1.083190    0.993071
    121          1           0       15.323558    0.492972   -1.397822
    122          1           0       15.560831   -2.309303    0.021999
    123          1           0       14.832318   -2.122830   -1.623160
    124          1           0       16.719802   -1.769356   -1.465419
    125          1           0       16.016474    1.279234    0.542138
    126          1           0       16.424663   -0.063438    1.505571
    127          1           0       18.248587   -0.287470   -0.544173
    128          1           0       17.694244    1.010523   -1.000226
    129          1           0       18.361687    2.230385    1.071853
    130          1           0       18.568974    0.763552    1.792071
    131          1           0       20.486204    0.240438   -0.117567
    132          1           0       19.903510    2.991162   -0.988555
    133          1           0       21.438157    2.372400   -1.260775
    134          1           0       20.066484    1.499850   -1.880763
    135          1           0       21.192266    1.291688    2.241789
    136          1           0       22.069979    1.581602    0.880029
    137          1           0       20.988212    2.758533    1.771365
 ---------------------------------------------------------------------

 SCF Done:  E(RCAM-B3LYP) =  -2933.34526530     A.U. after   16 cycles

 Excitation energies and oscillator strengths:

 Excited State   1:      Singlet-A      1.9586 eV  633.03 nm  f=0.3434  <S**2>=0.000
     240 -> 243       -0.18027
     241 -> 242        0.68352
 This state for optimization and/or second-order correction.
 Total Energy, E(TD-HF/TD-DFT) =  -2933.27328891
 Copying the excited state density for this state as the 1-particle RhoCI density.

 The electronic state is 1-A.
 Alpha  occ. eigenvalues --  -46.80817 -19.22909 -19.22821 -19.16459 -19.16400
 Alpha  occ. eigenvalues --  -19.15278 -14.37849 -14.35326 -14.35170 -14.34671
 Alpha  occ. eigenvalues --  -10.34049 -10.33907 -10.30419 -10.29346 -10.28211
 Alpha  occ. eigenvalues --  -10.26428 -10.24954 -10.24742 -10.24687 -10.24636
 Alpha  occ. eigenvalues --  -10.24534 -10.24365 -10.24129 -10.23977 -10.23961
 Alpha  occ. eigenvalues --  -10.23960 -10.23910 -10.23900 -10.23695 -10.23671
 Alpha  occ. eigenvalues --  -10.23490 -10.23363 -10.23063 -10.22973 -10.22897
 Alpha  occ. eigenvalues --  -10.22883 -10.22774 -10.22742 -10.22736 -10.22546
 Alpha  occ. eigenvalues --  -10.22387 -10.22253 -10.22215 -10.22196 -10.22159
 Alpha  occ. eigenvalues --  -10.21994 -10.21975 -10.21951 -10.21844 -10.21654
 Alpha  occ. eigenvalues --  -10.21554 -10.21523 -10.21369 -10.21269 -10.21080
 Alpha  occ. eigenvalues --  -10.20945 -10.20595 -10.20348 -10.20222 -10.19656
 Alpha  occ. eigenvalues --  -10.19339 -10.18667 -10.18624 -10.18435 -10.18152
 Alpha  occ. eigenvalues --   -3.09334  -1.84282  -1.83776  -1.83759  -1.13694
 Alpha  occ. eigenvalues --   -1.13152  -1.08169  -1.04955  -1.01702  -1.01274
 Alpha  occ. eigenvalues --   -1.00500  -0.99762  -0.96259  -0.86442  -0.86171
 Alpha  occ. eigenvalues --   -0.85664  -0.85436  -0.84548  -0.83994  -0.83656
 Alpha  occ. eigenvalues --   -0.83279  -0.82999  -0.82880  -0.82317  -0.81673
 Alpha  occ. eigenvalues --   -0.80081  -0.79323  -0.78604  -0.78489  -0.77485
 Alpha  occ. eigenvalues --   -0.76845  -0.76185  -0.76133  -0.75154  -0.73411
 Alpha  occ. eigenvalues --   -0.73352  -0.72778  -0.72516  -0.72461  -0.71107
 Alpha  occ. eigenvalues --   -0.70897  -0.70651  -0.69965  -0.68576  -0.68000
 Alpha  occ. eigenvalues --   -0.66580  -0.65795  -0.64852  -0.64696  -0.63739
 Alpha  occ. eigenvalues --   -0.62630  -0.62261  -0.61690  -0.60717  -0.60275
 Alpha  occ. eigenvalues --   -0.59839  -0.59642  -0.58797  -0.57817  -0.57449
 Alpha  occ. eigenvalues --   -0.56431  -0.56162  -0.55535  -0.55430  -0.55155
 Alpha  occ. eigenvalues --   -0.54667  -0.54153  -0.53351  -0.53070  -0.52297
 Alpha  occ. eigenvalues --   -0.51794  -0.51617  -0.51498  -0.50937  -0.50768
 Alpha  occ. eigenvalues --   -0.50629  -0.50265  -0.50075  -0.49689  -0.49522
 Alpha  occ. eigenvalues --   -0.49316  -0.49038  -0.48474  -0.48314  -0.48180
 Alpha  occ. eigenvalues --   -0.48048  -0.47520  -0.47439  -0.47166  -0.47032
 Alpha  occ. eigenvalues --   -0.46495  -0.46461  -0.46367  -0.46298  -0.46112
 Alpha  occ. eigenvalues --   -0.46017  -0.45678  -0.45520  -0.44863  -0.44738
 Alpha  occ. eigenvalues --   -0.44636  -0.44491  -0.44225  -0.44163  -0.43940
 Alpha  occ. eigenvalues --   -0.43464  -0.43175  -0.43040  -0.42923  -0.42741
 Alpha  occ. eigenvalues --   -0.42432  -0.42366  -0.42045  -0.41892  -0.41805
 Alpha  occ. eigenvalues --   -0.41652  -0.41339  -0.41322  -0.41252  -0.40900
 Alpha  occ. eigenvalues --   -0.40788  -0.40285  -0.40151  -0.39968  -0.39860
 Alpha  occ. eigenvalues --   -0.39751  -0.39664  -0.39549  -0.39245  -0.39074
 Alpha  occ. eigenvalues --   -0.38787  -0.38456  -0.38372  -0.38312  -0.38118
 Alpha  occ. eigenvalues --   -0.38068  -0.37700  -0.37476  -0.37250  -0.36874
 Alpha  occ. eigenvalues --   -0.36672  -0.36575  -0.36415  -0.36184  -0.36113
 Alpha  occ. eigenvalues --   -0.35662  -0.35488  -0.34760  -0.34581  -0.34360
 Alpha  occ. eigenvalues --   -0.34295  -0.34247  -0.33901  -0.33824  -0.33461
 Alpha  occ. eigenvalues --   -0.32815  -0.32665  -0.32512  -0.32439  -0.31850
 Alpha  occ. eigenvalues --   -0.31632  -0.31480  -0.31357  -0.30280  -0.30268
 Alpha  occ. eigenvalues --   -0.29765  -0.29380  -0.28977  -0.28690  -0.27548
 Alpha  occ. eigenvalues --   -0.26932  -0.26809  -0.26710  -0.24743  -0.21274
 Alpha  occ. eigenvalues --   -0.19487
 Alpha virt. eigenvalues --   -0.07377  -0.02176   0.00468   0.03016   0.03664
 Alpha virt. eigenvalues --    0.03863   0.03990   0.04719   0.05456   0.06482
 Alpha virt. eigenvalues --    0.07424   0.07828   0.08596   0.09301   0.09526

 Mulliken charges:
               1
     1  Mg   0.815656
     2  C    0.064971
     3  C   -0.193893
     4  C   -0.154136
     5  C   -0.180602
     6  N   -0.627503
     7  C    0.282021
     8  C   -0.134615
     9  C   -0.112112
    10  C    0.318061
    11  C   -0.267651
    12  C   -0.131954
    13  C   -0.284577
    14  C    0.616060
    15  O   -0.517854
    16  O   -0.453097
    17  N   -0.700726
    18  C    0.300803
    19  C    0.007606
    20  C    0.029523
    21  C    0.277725
    22  C   -0.362013
    23  C   -0.097672
    24  C   -0.252752
    25  N   -0.683767
    26  C    0.289117
    27  C    0.065278
    28  C   -0.004733
    29  C    0.317372
    30  C   -0.379605
    31  C   -0.257942
    32  C   -0.294367
    33  N   -0.696076
    34  C    0.275887
    35  C    0.081986
    36  C   -0.005490
    37  C    0.281077
    38  C   -0.401408
    39  C    0.362168
    40  O   -0.434317
    41  C   -0.330691
    42  C    0.626026
    43  O   -0.472383
    44  O   -0.436543
    45  C   -0.107732
    46  C    0.002200
    47  C   -0.137894
    48  C    0.138841
    49  C   -0.356711
    50  C   -0.214737
    51  C   -0.161520
    52  C   -0.165443
    53  C   -0.059452
    54  C   -0.304835
    55  C   -0.159681
    56  C   -0.141233
    57  C   -0.138398
    58  C   -0.058648
    59  C   -0.315530
    60  C   -0.137953
    61  C   -0.189338
    62  C   -0.168972
    63  C   -0.054008
    64  C   -0.321596
    65  C   -0.296556
    66  H    0.077728
    67  H    0.071055
    68  H    0.079881
    69  H    0.101964
    70  H    0.085894
    71  H    0.110294
    72  H    0.051891
    73  H    0.123436
    74  H    0.134179
    75  H    0.107078
    76  H    0.117306
    77  H    0.137823
    78  H    0.097945
    79  H    0.135525
    80  H    0.111502
    81  H    0.071110
    82  H    0.099917
    83  H    0.097394
    84  H    0.119032
    85  H    0.105583
    86  H    0.145009
    87  H    0.096821
    88  H    0.095469
    89  H    0.114792
    90  H    0.119327
    91  H    0.104841
    92  H    0.111801
    93  H    0.138760
    94  H    0.118648
    95  H    0.139296
    96  H    0.134924
    97  H    0.144423
    98  H    0.136291
    99  H    0.140908
   100  H    0.127984
   101  H    0.088659
   102  H    0.114462
   103  H    0.140081
   104  H    0.095716
   105  H    0.082503
   106  H    0.072497
   107  H    0.104561
   108  H    0.052305
   109  H    0.103234
   110  H    0.096995
   111  H    0.084115
   112  H    0.112548
   113  H    0.111818
   114  H    0.097031
   115  H    0.052915
   116  H    0.032421
   117  H    0.081119
   118  H    0.084272
   119  H    0.075701
   120  H    0.052620
   121  H    0.088977
   122  H    0.087223
   123  H    0.109621
   124  H    0.102067
   125  H    0.101057
   126  H    0.051925
   127  H    0.082126
   128  H    0.096234
   129  H    0.085886
   130  H    0.091808
   131  H    0.033481
   132  H    0.112920
   133  H    0.092795
   134  H    0.115903
   135  H    0.113701
   136  H    0.111589
   137  H    0.087617
 Sum of Mulliken charges =  -0.00000

 Dipole moment (field-independent basis, Debye):
    X=              2.4546    Y=              2.6268    Z=              0.2754  Tot=              3.6057
 Quadrupole moment (field-independent basis, Debye-Ang):
   XX=           -354.5584   YY=           -396.7209   ZZ=           -399.1255
   XY=             -1.6618   XZ=              6.3288   YZ=             -9.2038

 Normal termination of Gaussian 16 at Mon Sep 16 00:12:53 2019.
