 Gaussian 09, Revision D.01,
 Gaussian 09:  ES64L-G09RevD.01 24-Apr-2013

 -------------------------------------
 # td=(NStates=1) CAM-B3LYP/6-31G(d,p)
 -------------------------------------

 --
 TD
 --
 Symbolic Z-matrix:
 Charge =  0 Multiplicity = 1

                         Standard orientation:
 ---------------------------------------------------------------------
 Center     Atomic      Atomic             Coordinates (Angstroms)
 Number     Number       Type             X           Y           Z
 ---------------------------------------------------------------------
      1         12           0       -7.177193    0.552047    0.072839
      2          6           0       -4.877483   -1.961026    0.486006
      3          6           0       -4.784600    2.801064    1.213522
      4          6           0       -9.334000    3.180525   -0.545103
      5          6           0       -9.483743   -1.764914   -0.920885
      6          7           0       -5.184051    0.357982    0.835439
      7          6           0       -4.407828   -0.738908    0.891870
      8          6           0       -2.970118   -0.460031    1.310530
      9          6           0       -3.055361    1.043922    1.760457
     10          6           0       -4.467230    1.452572    1.167678
     11          6           0       -3.105217    1.261134    3.379131
     12          6           0       -1.945488   -0.628304    0.243412
     13          6           0       -0.438719   -0.511852    0.695120
     14          6           0        0.493081   -0.773225   -0.438920
     15          8           0        0.264105   -1.177101   -1.545405
     16          8           0        1.784125   -0.386569   -0.009465
     17          7           0       -7.061223    2.591824    0.299872
     18          6           0       -6.054892    3.314550    0.764444
     19          6           0       -6.452647    4.760090    0.845594
     20          6           0       -7.695901    4.890473    0.386042
     21          6           0       -8.164805    3.510113   -0.024258
     22          6           0       -5.395916    5.801323    1.299993
     23          6           0       -8.647700    5.969613    0.234397
     24          6           0       -8.407598    7.129020    0.847066
     25          7           0       -9.114400    0.643409   -0.546193
     26          6           0       -9.790040    1.792814   -0.836433
     27          6           0      -11.103182    1.467180   -1.336662
     28          6           0      -11.162579    0.086213   -1.486330
     29          6           0       -9.892531   -0.396096   -0.958182
     30          6           0      -12.107428    2.440460   -1.653121
     31          6           0      -12.286435   -0.653784   -1.917056
     32          6           0      -12.224757   -1.176866   -3.380180
     33          7           0       -7.203565   -1.381289   -0.276236
     34          6           0       -8.215787   -2.272547   -0.675475
     35          6           0       -7.767153   -3.559618   -0.670187
     36          6           0       -6.469499   -3.553227   -0.132046
     37          6           0       -6.201646   -2.159749    0.024890
     38          6           0       -8.569072   -4.833599   -1.050867
     39          6           0       -5.387748   -4.357159    0.236581
     40          8           0       -5.072527   -5.504358    0.166763
     41          6           0       -4.332620   -3.311102    0.649072
     42          6           0       -3.719330   -3.690514    1.958966
     43          8           0       -3.927120   -3.076112    2.978124
     44          8           0       -2.733528   -4.725337    1.881995
     45          6           0       -2.096487   -5.105177    3.142205
     46          6           0        2.770504   -0.527421   -1.017116
     47          6           0        4.079753   -0.289511   -0.423676
     48          6           0        5.069568    0.489461   -0.959989
     49          6           0        5.011077    1.306670   -2.169920
     50          6           0        6.431591    0.553435   -0.118204
     51          6           0        7.593856   -0.060556   -0.817111
     52          6           0        8.931861    0.008174   -0.079245
     53          6           0       10.150158   -0.527907   -0.819137
     54          6           0       10.063590   -2.021740   -1.297948
     55          6           0       11.508863   -0.318083   -0.061346
     56          6           0       12.825980   -0.480510   -0.733867
     57          6           0       13.878820   -0.061004    0.180280
     58          6           0       15.356205   -0.264445   -0.551776
     59          6           0       15.713842   -1.623322   -0.994380
     60          6           0       16.366420    0.472442    0.266228
     61          6           0       17.771655    0.465002   -0.295400
     62          6           0       18.784512    1.271414    0.591158
     63          6           0       20.250339    1.257579    0.192627
     64          6           0       20.478813    1.945565   -1.204817
     65          6           0       21.087278    1.860930    1.235044
     66          1           0       -4.042284    3.573624    1.432638
     67          1           0       -9.882328    4.030736   -1.199774
     68          1           0      -10.226072   -2.441064   -1.147014
     69          1           0       -2.845997   -1.073870    2.259737
     70          1           0       -2.248634    1.724959    1.359565
     71          1           0       -2.164236    0.710929    3.813786
     72          1           0       -3.121833    2.218358    3.545242
     73          1           0       -4.022473    0.862315    3.656675
     74          1           0       -2.031934   -1.544671   -0.126411
     75          1           0       -2.180177    0.172381   -0.524034
     76          1           0       -0.252015    0.394496    1.509661
     77          1           0       -0.282174   -1.483221    1.333643
     78          1           0       -5.641980    7.017344    0.995132
     79          1           0       -5.382036    5.818194    2.497657
     80          1           0       -4.421913    5.604004    0.942780
     81          1           0       -9.453572    5.819951   -0.443813
     82          1           0       -9.111248    7.771721    0.460604
     83          1           0       -7.673847    7.412032    1.413161
     84          1           0      -11.965932    3.260232   -2.475103
     85          1           0      -13.040869    1.915807   -2.031444
     86          1           0      -12.295388    2.985922   -0.668033
     87          1           0      -12.135375   -1.626126   -1.226989
     88          1           0      -13.314109   -0.290624   -1.476787
     89          1           0      -12.975914   -1.822350   -3.545976
     90          1           0      -12.042012   -0.423343   -4.019970
     91          1           0      -11.280435   -1.652691   -3.398347
     92          1           0       -9.165969   -4.763693   -2.085978
     93          1           0       -7.643311   -5.589590   -1.411283
     94          1           0       -9.382735   -5.133628   -0.179419
     95          1           0       -3.502532   -3.618508    0.127465
     96          1           0       -1.808351   -3.896400    3.676425
     97          1           0       -2.689087   -5.271951    4.005941
     98          1           0       -1.442539   -5.930867    2.892146
     99          1           0        2.707556   -1.648097   -1.180339
    100          1           0        2.482055    0.056187   -2.064178
    101          1           0        4.206353   -0.873511    0.533768
    102          1           0        4.004876    1.209497   -2.701708
    103          1           0        5.138788    2.430990   -1.921803
    104          1           0        5.739050    1.057678   -2.813805
    105          1           0        6.594500    1.675749    0.068943
    106          1           0        6.511270    0.161261    0.922649
    107          1           0        7.296316   -1.098827   -1.065324
    108          1           0        7.636568    0.433899   -1.643830
    109          1           0        9.091255    0.961298    0.083653
    110          1           0        8.977229   -0.593838    0.931137
    111          1           0       10.353262   -0.029067   -1.906748
    112          1           0        9.194762   -2.038080   -2.110116
    113          1           0       11.131494   -2.406214   -1.452524
    114          1           0        9.818335   -2.707090   -0.409272
    115          1           0       11.366856    0.586069    0.540693
    116          1           0       11.557859   -1.125554    0.767502
    117          1           0       13.104618   -1.371911   -1.392343
    118          1           0       12.771284    0.323865   -1.670859
    119          1           0       13.755904    1.007924    0.588128
    120          1           0       13.832757   -0.841465    1.068762
    121          1           0       15.242085    0.292919   -1.512147
    122          1           0       15.878777   -2.276523   -0.093538
    123          1           0       15.002336   -2.023642   -1.704192
    124          1           0       16.602150   -1.631293   -1.620857
    125          1           0       15.862510    1.538408    0.352055
    126          1           0       16.341594    0.116008    1.343364
    127          1           0       18.144519   -0.590074   -0.367626
    128          1           0       17.737048    0.571655   -1.451222
    129          1           0       18.209782    2.228544    0.660353
    130          1           0       18.694498    1.104514    1.656560
    131          1           0       20.663226    0.227208    0.283555
    132          1           0       20.416941    3.001742   -1.345117
    133          1           0       21.445219    1.925661   -1.323171
    134          1           0       19.959822    1.549152   -2.185899
    135          1           0       21.304974    1.172706    2.241593
    136          1           0       22.165745    2.107865    1.016680
    137          1           0       20.660311    2.934511    1.478958
 ---------------------------------------------------------------------

 SCF Done:  E(RCAM-B3LYP) =  -2932.61689921     A.U. after   17 cycles

 Excitation energies and oscillator strengths:

 Excited State   1:      Singlet-A      2.2727 eV  545.54 nm  f=0.2284  <S**2>=0.000
     240 -> 242       -0.21881
     240 -> 243        0.23331
     241 -> 242        0.59923
     241 -> 243        0.15966
 This state for optimization and/or second-order correction.
 Total Energy, E(TD-HF/TD-KS) =  -2932.53337997
 Copying the excited state density for this state as the 1-particle RhoCI density.

 The electronic state is 1-A.
 Alpha  occ. eigenvalues --  -46.84248 -19.25357 -19.24870 -19.22116 -19.21026
 Alpha  occ. eigenvalues --  -19.19198 -14.41486 -14.40630 -14.39847 -14.39208
 Alpha  occ. eigenvalues --  -10.39652 -10.38877 -10.33627 -10.32227 -10.31677
 Alpha  occ. eigenvalues --  -10.31599 -10.31580 -10.30387 -10.30381 -10.29743
 Alpha  occ. eigenvalues --  -10.29686 -10.29668 -10.29536 -10.28811 -10.28743
 Alpha  occ. eigenvalues --  -10.28672 -10.28272 -10.28268 -10.28201 -10.28102
 Alpha  occ. eigenvalues --  -10.28045 -10.27774 -10.27726 -10.27495 -10.27489
 Alpha  occ. eigenvalues --  -10.27102 -10.26758 -10.26715 -10.26663 -10.26511
 Alpha  occ. eigenvalues --  -10.26430 -10.26150 -10.26149 -10.26085 -10.25998
 Alpha  occ. eigenvalues --  -10.25986 -10.25970 -10.25901 -10.25859 -10.25765
 Alpha  occ. eigenvalues --  -10.25629 -10.25549 -10.25491 -10.25388 -10.25357
 Alpha  occ. eigenvalues --  -10.25290 -10.25048 -10.25005 -10.24924 -10.24850
 Alpha  occ. eigenvalues --  -10.24297 -10.24250 -10.23736 -10.23674 -10.23598
 Alpha  occ. eigenvalues --   -3.13418  -1.88116  -1.87653  -1.87614  -1.17291
 Alpha  occ. eigenvalues --   -1.15671  -1.11668  -1.09733  -1.07974  -1.05548
 Alpha  occ. eigenvalues --   -1.04258  -1.03508  -1.02619  -0.93406  -0.91009
 Alpha  occ. eigenvalues --   -0.90851  -0.90444  -0.89937  -0.89806  -0.89267
 Alpha  occ. eigenvalues --   -0.88737  -0.88309  -0.87557  -0.87285  -0.86214
 Alpha  occ. eigenvalues --   -0.85234  -0.84613  -0.84113  -0.83951  -0.82793
 Alpha  occ. eigenvalues --   -0.81551  -0.80954  -0.80714  -0.80403  -0.78405
 Alpha  occ. eigenvalues --   -0.77952  -0.77459  -0.76469  -0.75677  -0.75473
 Alpha  occ. eigenvalues --   -0.75083  -0.74442  -0.73568  -0.73137  -0.72411
 Alpha  occ. eigenvalues --   -0.71722  -0.70822  -0.70260  -0.69510  -0.68445
 Alpha  occ. eigenvalues --   -0.68061  -0.66350  -0.65679  -0.64951  -0.63895
 Alpha  occ. eigenvalues --   -0.63772  -0.63622  -0.62055  -0.61647  -0.61543
 Alpha  occ. eigenvalues --   -0.61192  -0.60768  -0.60041  -0.59745  -0.59249
 Alpha  occ. eigenvalues --   -0.58988  -0.58405  -0.58032  -0.57090  -0.56357
 Alpha  occ. eigenvalues --   -0.56110  -0.55599  -0.55091  -0.54970  -0.54479
 Alpha  occ. eigenvalues --   -0.54013  -0.53852  -0.53272  -0.53097  -0.52892
 Alpha  occ. eigenvalues --   -0.52736  -0.52393  -0.52212  -0.51937  -0.51876
 Alpha  occ. eigenvalues --   -0.51554  -0.51121  -0.51101  -0.50886  -0.50782
 Alpha  occ. eigenvalues --   -0.50329  -0.50105  -0.49972  -0.49924  -0.49674
 Alpha  occ. eigenvalues --   -0.49534  -0.49320  -0.49097  -0.48875  -0.48853
 Alpha  occ. eigenvalues --   -0.48671  -0.48251  -0.47838  -0.47359  -0.47224
 Alpha  occ. eigenvalues --   -0.47141  -0.46871  -0.46674  -0.46472  -0.46367
 Alpha  occ. eigenvalues --   -0.45874  -0.45773  -0.45608  -0.45195  -0.45135
 Alpha  occ. eigenvalues --   -0.44868  -0.44463  -0.44347  -0.44125  -0.44022
 Alpha  occ. eigenvalues --   -0.43847  -0.43717  -0.43430  -0.43349  -0.43260
 Alpha  occ. eigenvalues --   -0.43059  -0.42935  -0.42707  -0.42361  -0.42121
 Alpha  occ. eigenvalues --   -0.42006  -0.41735  -0.41684  -0.41643  -0.41375
 Alpha  occ. eigenvalues --   -0.41007  -0.40962  -0.40784  -0.40639  -0.40395
 Alpha  occ. eigenvalues --   -0.40332  -0.39998  -0.39900  -0.39545  -0.39114
 Alpha  occ. eigenvalues --   -0.39007  -0.38661  -0.38321  -0.38119  -0.38096
 Alpha  occ. eigenvalues --   -0.37525  -0.36749  -0.36534  -0.36381  -0.36344
 Alpha  occ. eigenvalues --   -0.36156  -0.35617  -0.35527  -0.35346  -0.35094
 Alpha  occ. eigenvalues --   -0.34547  -0.34364  -0.33779  -0.33727  -0.33531
 Alpha  occ. eigenvalues --   -0.33188  -0.32924  -0.32285  -0.30822  -0.29960
 Alpha  occ. eigenvalues --   -0.29436  -0.28874  -0.28803  -0.27788  -0.23875
 Alpha  occ. eigenvalues --   -0.21953
 Alpha virt. eigenvalues --   -0.06171  -0.03464   0.01598   0.04028   0.05496
 Alpha virt. eigenvalues --    0.05948   0.06190   0.06262   0.06440   0.07134
 Alpha virt. eigenvalues --    0.08486   0.10314   0.10725   0.11110   0.11463

 Mulliken charges:
               1
     1  Mg   0.820428
     2  C    0.096039
     3  C   -0.207771
     4  C   -0.201053
     5  C   -0.159780
     6  N   -0.645266
     7  C    0.314532
     8  C   -0.168622
     9  C   -0.171132
    10  C    0.350694
    11  C   -0.294486
    12  C   -0.137937
    13  C   -0.285508
    14  C    0.637095
    15  O   -0.452912
    16  O   -0.504216
    17  N   -0.701930
    18  C    0.349184
    19  C   -0.013367
    20  C    0.064402
    21  C    0.275365
    22  C   -0.364200
    23  C   -0.080405
    24  C   -0.185850
    25  N   -0.687195
    26  C    0.268364
    27  C    0.036425
    28  C    0.077954
    29  C    0.275499
    30  C   -0.390544
    31  C   -0.293249
    32  C   -0.296895
    33  N   -0.751909
    34  C    0.272517
    35  C    0.034745
    36  C    0.025412
    37  C    0.307213
    38  C   -0.357523
    39  C    0.333870
    40  O   -0.451128
    41  C   -0.345957
    42  C    0.614857
    43  O   -0.462291
    44  O   -0.487496
    45  C   -0.071337
    46  C    0.027573
    47  C   -0.115601
    48  C    0.100060
    49  C   -0.361075
    50  C   -0.232057
    51  C   -0.165674
    52  C   -0.158747
    53  C   -0.053965
    54  C   -0.303229
    55  C   -0.177691
    56  C   -0.156043
    57  C   -0.165493
    58  C   -0.064697
    59  C   -0.309303
    60  C   -0.156638
    61  C   -0.185223
    62  C   -0.167143
    63  C   -0.038613
    64  C   -0.315817
    65  C   -0.312427
    66  H    0.082844
    67  H    0.108673
    68  H    0.088443
    69  H    0.131275
    70  H    0.094544
    71  H    0.097139
    72  H    0.119527
    73  H    0.132127
    74  H    0.127880
    75  H    0.108809
    76  H    0.129188
    77  H    0.139159
    78  H    0.089348
    79  H    0.115221
    80  H    0.135757
    81  H    0.095743
    82  H    0.094112
    83  H    0.097623
    84  H    0.104867
    85  H    0.104929
    86  H    0.117674
    87  H    0.078989
    88  H    0.103702
    89  H    0.117195
    90  H    0.121932
    91  H    0.110139
    92  H    0.105391
    93  H    0.131319
    94  H    0.122071
    95  H    0.166381
    96  H    0.071057
    97  H    0.145382
    98  H    0.136388
    99  H    0.112009
   100  H    0.098548
   101  H    0.100766
   102  H    0.105726
   103  H    0.111302
   104  H    0.136470
   105  H    0.077106
   106  H    0.096785
   107  H    0.097263
   108  H    0.103166
   109  H    0.103898
   110  H    0.078550
   111  H    0.054128
   112  H    0.096274
   113  H    0.100571
   114  H    0.083143
   115  H    0.092811
   116  H    0.069304
   117  H    0.104265
   118  H    0.051302
   119  H    0.094747
   120  H    0.074594
   121  H    0.080406
   122  H    0.096742
   123  H    0.099988
   124  H    0.106495
   125  H    0.071688
   126  H    0.083980
   127  H    0.089042
   128  H    0.083392
   129  H    0.088193
   130  H    0.092314
   131  H    0.096652
   132  H    0.105209
   133  H    0.111165
   134  H    0.089700
   135  H    0.078979
   136  H    0.099257
   137  H    0.086409
 Sum of Mulliken charges =   0.00000

 Dipole moment (field-independent basis, Debye):
    X=             -0.1740    Y=              6.3102    Z=             -0.1020  Tot=              6.3134
 Quadrupole moment (field-independent basis, Debye-Ang):
   XX=           -325.9162   YY=           -392.9214   ZZ=           -394.8962
   XY=            -27.1286   XZ=             13.2588   YZ=             -3.2328

 Normal termination of Gaussian 09 at Fri Jul  5 10:10:54 2019.
