 Gaussian 16, Revision A.03,
 Gaussian 16:  ES64L-G16RevA.03 25-Dec-2016

 ----------------------------------------------------------------------
 # td=(NStates=1) iop(3/107=0140000000,3/108=0140000000) CAM-B3LYP/6-31
 G(d,p)
 ----------------------------------------------------------------------

 --
 TD
 --
 Symbolic Z-matrix:
 Charge =  0 Multiplicity = 1

                         Standard orientation:
 ---------------------------------------------------------------------
 Center     Atomic      Atomic             Coordinates (Angstroms)
 Number     Number       Type             X           Y           Z
 ---------------------------------------------------------------------
      1         12           0       -7.200054    0.672234    0.035799
      2          6           0       -4.899032   -1.943797    0.373938
      3          6           0       -4.707315    2.825045    1.097880
      4          6           0       -9.394563    3.134198   -0.312926
      5          6           0       -9.538229   -1.707373   -0.895199
      6          7           0       -5.100078    0.469556    0.651621
      7          6           0       -4.368400   -0.692284    0.712343
      8          6           0       -2.913114   -0.510798    1.065902
      9          6           0       -2.994819    0.945818    1.667887
     10          6           0       -4.295435    1.405509    1.119065
     11          6           0       -2.949502    1.054879    3.191442
     12          6           0       -1.962343   -0.586062   -0.117476
     13          6           0       -0.491800   -0.564583    0.479681
     14          6           0        0.537298   -0.735132   -0.647926
     15          8           0        0.298836   -1.020884   -1.820413
     16          8           0        1.774016   -0.520377   -0.173544
     17          7           0       -7.046090    2.588448    0.377707
     18          6           0       -5.995106    3.317115    0.760435
     19          6           0       -6.206989    4.729131    0.681785
     20          6           0       -7.544241    4.874672    0.365662
     21          6           0       -8.106506    3.463749    0.163075
     22          6           0       -5.333263    5.833122    1.140067
     23          6           0       -8.434130    6.073661    0.025321
     24          6           0       -8.383422    7.176470    0.700836
     25          7           0       -9.224031    0.734806   -0.492184
     26          6           0       -9.985459    1.901529   -0.599086
     27          6           0      -11.282148    1.516306   -1.053158
     28          6           0      -11.334779    0.244029   -1.111076
     29          6           0       -9.970090   -0.387357   -0.817539
     30          6           0      -12.304469    2.565117   -1.321162
     31          6           0      -12.404150   -0.703997   -1.698516
     32          6           0      -12.069399   -1.059030   -3.160377
     33          7           0       -7.271126   -1.351870   -0.112329
     34          6           0       -8.347488   -2.184826   -0.466571
     35          6           0       -7.940597   -3.625394   -0.505141
     36          6           0       -6.560045   -3.544067   -0.131961
     37          6           0       -6.204332   -2.226568    0.099140
     38          6           0       -8.780155   -4.776546   -1.004389
     39          6           0       -5.394283   -4.372542    0.166799
     40          8           0       -5.200960   -5.558825    0.130911
     41          6           0       -4.235342   -3.324971    0.406344
     42          6           0       -3.633865   -3.632662    1.863332
     43          8           0       -3.850268   -3.034666    2.873425
     44          8           0       -2.683278   -4.607928    1.688730
     45          6           0       -2.353503   -5.276597    2.991995
     46          6           0        2.787772   -0.801986   -1.257772
     47          6           0        4.136924   -0.608457   -0.521730
     48          6           0        5.060701    0.260827   -0.828718
     49          6           0        4.963668    1.467404   -1.760489
     50          6           0        6.410147    0.364695   -0.038469
     51          6           0        7.681708   -0.113933   -0.910135
     52          6           0        9.030285   -0.076606    0.033250
     53          6           0       10.222166   -0.571217   -0.640908
     54          6           0       10.072328   -1.983902   -1.349994
     55          6           0       11.488146   -0.422653    0.111316
     56          6           0       12.804406   -0.641233   -0.590960
     57          6           0       14.028191   -0.205073    0.248632
     58          6           0       15.376917   -0.272193   -0.455781
     59          6           0       15.767459   -1.724702   -0.893290
     60          6           0       16.450393    0.307291    0.521104
     61          6           0       17.850995    0.506382   -0.183509
     62          6           0       18.762553    1.394908    0.674251
     63          6           0       20.217422    1.512053    0.002924
     64          6           0       20.130076    2.416371   -1.151801
     65          6           0       21.232521    1.871939    1.078914
     66          1           0       -4.231512    3.681897    1.476423
     67          1           0      -10.194485    4.007559   -0.498600
     68          1           0      -10.180483   -2.321170   -1.260248
     69          1           0       -2.673895   -1.128557    1.754427
     70          1           0       -2.304981    1.484883    1.170811
     71          1           0       -1.980930    0.611952    3.628830
     72          1           0       -3.242983    1.999307    3.595340
     73          1           0       -3.696890    0.614510    3.752480
     74          1           0       -2.258788   -1.639241   -0.530586
     75          1           0       -1.893744    0.308847   -0.821493
     76          1           0       -0.228624    0.210536    0.770921
     77          1           0       -0.201439   -1.154953    1.287704
     78          1           0       -5.691990    6.698912    0.653115
     79          1           0       -5.380735    6.153944    2.230594
     80          1           0       -4.195699    5.636274    0.945895
     81          1           0       -9.244939    5.868312   -0.774834
     82          1           0       -9.118041    7.845854    0.416287
     83          1           0       -7.714224    7.481445    1.610171
     84          1           0      -11.982567    3.192501   -2.115966
     85          1           0      -13.188070    1.941561   -1.337513
     86          1           0      -12.366533    3.189698   -0.468710
     87          1           0      -12.487066   -1.528766   -0.968998
     88          1           0      -13.498508   -0.322264   -1.659212
     89          1           0      -12.700702   -1.684827   -3.633806
     90          1           0      -12.077613   -0.122964   -3.789619
     91          1           0      -11.011552   -1.465066   -3.432884
     92          1           0       -9.260429   -4.631658   -2.030305
     93          1           0       -8.087279   -5.603248   -0.841127
     94          1           0       -9.482723   -4.973811   -0.312401
     95          1           0       -3.343416   -3.628521   -0.250922
     96          1           0       -1.916494   -4.326188    3.548002
     97          1           0       -3.227929   -5.645203    3.374712
     98          1           0       -1.723512   -6.038947    2.677579
     99          1           0        2.508811   -1.815206   -1.597349
    100          1           0        2.833601    0.011739   -2.014129
    101          1           0        4.414091   -1.323002    0.294319
    102          1           0        4.064887    1.568420   -2.279715
    103          1           0        5.358573    2.360217   -1.126663
    104          1           0        5.692681    1.393781   -2.687043
    105          1           0        6.489620    1.326864    0.465707
    106          1           0        6.267696   -0.465366    0.790235
    107          1           0        7.442532   -1.094439   -1.490193
    108          1           0        7.769772    0.647079   -1.633293
    109          1           0        9.224163    0.987178    0.595691
    110          1           0        8.614104   -0.822140    1.026770
    111          1           0       10.457437    0.076051   -1.552444
    112          1           0        9.258401   -2.265244   -2.075171
    113          1           0       11.036395   -2.220244   -1.793972
    114          1           0       10.160766   -2.736229   -0.445810
    115          1           0       11.662175    0.835102    0.260239
    116          1           0       11.328136   -0.902882    1.046086
    117          1           0       12.895903   -1.607184   -0.866493
    118          1           0       12.873811   -0.159115   -1.650900
    119          1           0       13.698600    0.826856    0.632162
    120          1           0       14.047044   -0.882099    1.112816
    121          1           0       15.321989    0.304437   -1.270833
    122          1           0       15.643033   -2.330187   -0.040922
    123          1           0       15.109090   -2.291694   -1.850415
    124          1           0       16.532034   -1.693684   -1.362154
    125          1           0       16.322486    1.305983    0.940636
    126          1           0       16.500225   -0.565527    1.345670
    127          1           0       18.444241   -0.275639   -0.366005
    128          1           0       17.791245    0.883627   -1.209721
    129          1           0       18.193109    2.316659    1.006403
    130          1           0       19.029889    0.903516    1.724052
    131          1           0       20.556114    0.427996   -0.438811
    132          1           0       19.768957    3.406659   -0.818787
    133          1           0       21.312224    2.356756   -1.628396
    134          1           0       19.513209    2.159212   -2.069790
    135          1           0       21.377677    1.173754    1.986393
    136          1           0       22.253814    2.056143    0.569264
    137          1           0       21.040802    2.883232    1.406765
 ---------------------------------------------------------------------

 SCF Done:  E(RCAM-B3LYP) =  -2933.42019812     A.U. after   16 cycles

 Excitation energies and oscillator strengths:

 Excited State   1:      Singlet-A      2.0328 eV  609.92 nm  f=0.2266  <S**2>=0.000
     240 -> 243       -0.25441
     241 -> 242        0.65462
 This state for optimization and/or second-order correction.
 Total Energy, E(TD-HF/TD-DFT) =  -2933.34549457
 Copying the excited state density for this state as the 1-particle RhoCI density.

 The electronic state is 1-A.
 Alpha  occ. eigenvalues --  -46.79280 -19.21800 -19.20984 -19.17240 -19.15825
 Alpha  occ. eigenvalues --  -19.15682 -14.37734 -14.34946 -14.34639 -14.34423
 Alpha  occ. eigenvalues --  -10.34200 -10.33639 -10.29757 -10.28121 -10.26463
 Alpha  occ. eigenvalues --  -10.26421 -10.25602 -10.25519 -10.24451 -10.24323
 Alpha  occ. eigenvalues --  -10.24267 -10.24117 -10.24087 -10.23955 -10.23947
 Alpha  occ. eigenvalues --  -10.23719 -10.23448 -10.23430 -10.23347 -10.23182
 Alpha  occ. eigenvalues --  -10.22990 -10.22975 -10.22914 -10.22755 -10.22685
 Alpha  occ. eigenvalues --  -10.22635 -10.22330 -10.22246 -10.22130 -10.22122
 Alpha  occ. eigenvalues --  -10.22062 -10.21944 -10.21903 -10.21763 -10.21738
 Alpha  occ. eigenvalues --  -10.21538 -10.21533 -10.21427 -10.21309 -10.21257
 Alpha  occ. eigenvalues --  -10.21230 -10.21175 -10.21076 -10.20962 -10.20929
 Alpha  occ. eigenvalues --  -10.20880 -10.20811 -10.20776 -10.20668 -10.20528
 Alpha  occ. eigenvalues --  -10.20427 -10.20237 -10.20206 -10.20082 -10.19609
 Alpha  occ. eigenvalues --   -3.07937  -1.82872  -1.82410  -1.82345  -1.12037
 Alpha  occ. eigenvalues --   -1.11913  -1.06339  -1.04210  -1.02598  -1.00064
 Alpha  occ. eigenvalues --   -0.98035  -0.96948  -0.96048  -0.87183  -0.85885
 Alpha  occ. eigenvalues --   -0.85767  -0.84953  -0.84476  -0.83748  -0.83349
 Alpha  occ. eigenvalues --   -0.83244  -0.82995  -0.82167  -0.81591  -0.81348
 Alpha  occ. eigenvalues --   -0.79697  -0.79294  -0.78425  -0.78200  -0.77567
 Alpha  occ. eigenvalues --   -0.76527  -0.76131  -0.75766  -0.74827  -0.73931
 Alpha  occ. eigenvalues --   -0.72725  -0.72063  -0.71408  -0.71207  -0.70747
 Alpha  occ. eigenvalues --   -0.70672  -0.70569  -0.69600  -0.68591  -0.67952
 Alpha  occ. eigenvalues --   -0.67440  -0.66485  -0.65348  -0.64606  -0.63280
 Alpha  occ. eigenvalues --   -0.62682  -0.62386  -0.61682  -0.60810  -0.60170
 Alpha  occ. eigenvalues --   -0.59816  -0.59420  -0.58283  -0.57699  -0.57133
 Alpha  occ. eigenvalues --   -0.56969  -0.56099  -0.55720  -0.54829  -0.54432
 Alpha  occ. eigenvalues --   -0.54186  -0.53952  -0.53027  -0.52869  -0.52455
 Alpha  occ. eigenvalues --   -0.52249  -0.52006  -0.51763  -0.51220  -0.50635
 Alpha  occ. eigenvalues --   -0.50258  -0.50018  -0.49898  -0.49653  -0.48618
 Alpha  occ. eigenvalues --   -0.48428  -0.48415  -0.48287  -0.48134  -0.47924
 Alpha  occ. eigenvalues --   -0.47693  -0.47403  -0.47080  -0.46863  -0.46466
 Alpha  occ. eigenvalues --   -0.46351  -0.45972  -0.45892  -0.45706  -0.45463
 Alpha  occ. eigenvalues --   -0.45415  -0.45292  -0.45178  -0.45070  -0.44929
 Alpha  occ. eigenvalues --   -0.44756  -0.44032  -0.43863  -0.43816  -0.43592
 Alpha  occ. eigenvalues --   -0.43569  -0.43523  -0.43348  -0.42755  -0.42570
 Alpha  occ. eigenvalues --   -0.42357  -0.41882  -0.41818  -0.41761  -0.41647
 Alpha  occ. eigenvalues --   -0.41246  -0.40925  -0.40907  -0.40783  -0.40555
 Alpha  occ. eigenvalues --   -0.40447  -0.40306  -0.40061  -0.40013  -0.39977
 Alpha  occ. eigenvalues --   -0.39733  -0.39530  -0.39393  -0.39300  -0.39119
 Alpha  occ. eigenvalues --   -0.38798  -0.38751  -0.38677  -0.38508  -0.38312
 Alpha  occ. eigenvalues --   -0.38151  -0.37574  -0.37476  -0.37105  -0.36856
 Alpha  occ. eigenvalues --   -0.36319  -0.36232  -0.36152  -0.35630  -0.35595
 Alpha  occ. eigenvalues --   -0.35505  -0.35325  -0.35160  -0.35020  -0.34675
 Alpha  occ. eigenvalues --   -0.34410  -0.34253  -0.33907  -0.33848  -0.33399
 Alpha  occ. eigenvalues --   -0.33316  -0.32986  -0.32881  -0.32584  -0.32337
 Alpha  occ. eigenvalues --   -0.32261  -0.31954  -0.30752  -0.30513  -0.30105
 Alpha  occ. eigenvalues --   -0.29931  -0.29733  -0.29556  -0.27861  -0.27611
 Alpha  occ. eigenvalues --   -0.26417  -0.26388  -0.26111  -0.25667  -0.21228
 Alpha  occ. eigenvalues --   -0.19273
 Alpha virt. eigenvalues --   -0.06377  -0.03348   0.00207   0.03183   0.04415
 Alpha virt. eigenvalues --    0.04605   0.04823   0.05337   0.05744   0.06228
 Alpha virt. eigenvalues --    0.06825   0.08849   0.09296   0.09430   0.09503

 Mulliken charges:
               1
     1  Mg   0.815276
     2  C    0.073604
     3  C   -0.180702
     4  C   -0.198068
     5  C   -0.124100
     6  N   -0.581717
     7  C    0.279735
     8  C   -0.112364
     9  C   -0.123145
    10  C    0.312488
    11  C   -0.319882
    12  C   -0.163871
    13  C   -0.230914
    14  C    0.577071
    15  O   -0.490526
    16  O   -0.471186
    17  N   -0.725010
    18  C    0.315712
    19  C    0.032284
    20  C   -0.007359
    21  C    0.290925
    22  C   -0.379831
    23  C   -0.080107
    24  C   -0.220820
    25  N   -0.707590
    26  C    0.297134
    27  C    0.071391
    28  C   -0.030493
    29  C    0.297528
    30  C   -0.361900
    31  C   -0.242754
    32  C   -0.308817
    33  N   -0.721820
    34  C    0.279247
    35  C    0.004492
    36  C    0.009704
    37  C    0.287234
    38  C   -0.375521
    39  C    0.363949
    40  O   -0.457799
    41  C   -0.349470
    42  C    0.602874
    43  O   -0.451771
    44  O   -0.472963
    45  C   -0.088040
    46  C    0.005849
    47  C   -0.134322
    48  C    0.133903
    49  C   -0.355321
    50  C   -0.236043
    51  C   -0.176167
    52  C   -0.141230
    53  C   -0.028069
    54  C   -0.323999
    55  C   -0.160212
    56  C   -0.179620
    57  C   -0.162073
    58  C   -0.074372
    59  C   -0.267152
    60  C   -0.158197
    61  C   -0.174284
    62  C   -0.184813
    63  C   -0.039288
    64  C   -0.277321
    65  C   -0.308372
    66  H    0.061636
    67  H    0.066604
    68  H    0.052348
    69  H    0.106212
    70  H    0.105755
    71  H    0.099171
    72  H    0.112607
    73  H    0.135036
    74  H    0.116452
    75  H    0.115865
    76  H    0.129300
    77  H    0.132408
    78  H    0.128115
    79  H    0.119736
    80  H    0.101488
    81  H    0.099582
    82  H    0.096961
    83  H    0.104175
    84  H    0.128268
    85  H    0.111976
    86  H    0.125867
    87  H    0.106972
    88  H    0.087768
    89  H    0.116587
    90  H    0.105677
    91  H    0.098854
    92  H    0.126010
    93  H    0.145514
    94  H    0.142507
    95  H    0.156248
    96  H    0.129060
    97  H    0.147815
    98  H    0.136362
    99  H    0.144082
   100  H    0.119813
   101  H    0.081672
   102  H    0.116754
   103  H    0.112360
   104  H    0.103298
   105  H    0.107523
   106  H    0.078047
   107  H    0.099994
   108  H    0.110124
   109  H    0.079271
   110  H    0.040845
   111  H    0.080641
   112  H    0.109734
   113  H    0.109108
   114  H    0.078540
   115  H    0.048728
   116  H    0.097122
   117  H    0.106567
   118  H    0.070641
   119  H    0.075271
   120  H    0.084423
   121  H    0.090095
   122  H    0.110987
   123  H    0.046032
   124  H    0.113889
   125  H    0.097430
   126  H    0.072139
   127  H    0.106909
   128  H    0.084430
   129  H    0.082069
   130  H    0.069864
   131  H    0.064062
   132  H    0.104597
   133  H    0.056664
   134  H    0.108909
   135  H    0.105560
   136  H    0.084232
   137  H    0.107629
 Sum of Mulliken charges =  -0.00000

 Dipole moment (field-independent basis, Debye):
    X=              2.2507    Y=              3.7835    Z=              0.5124  Tot=              4.4320
 Quadrupole moment (field-independent basis, Debye-Ang):
   XX=           -332.7273   YY=           -387.4632   ZZ=           -393.4925
   XY=            -17.6785   XZ=              3.9340   YZ=             -2.4099

 Normal termination of Gaussian 16 at Tue Sep 24 10:39:31 2019.
