 Gaussian 16, Revision A.03,
 Gaussian 16:  ES64L-G16RevA.03 25-Dec-2016

 ----------------------------------------------------------------------
 # td=(NStates=1) iop(3/107=0140000000,3/108=0140000000) CAM-B3LYP/6-31
 G(d,p)
 ----------------------------------------------------------------------

 --
 TD
 --
 Symbolic Z-matrix:
 Charge =  0 Multiplicity = 1

                         Standard orientation:
 ---------------------------------------------------------------------
 Center     Atomic      Atomic             Coordinates (Angstroms)
 Number     Number       Type             X           Y           Z
 ---------------------------------------------------------------------
      1         12           0       -7.155097    0.485785    0.137891
      2          6           0       -4.866489   -1.958816    0.559662
      3          6           0       -4.785792    2.713242    1.195781
      4          6           0       -9.447195    3.096276   -0.315280
      5          6           0       -9.513933   -1.751027   -0.885403
      6          7           0       -5.120444    0.379380    0.799121
      7          6           0       -4.313954   -0.757516    0.799092
      8          6           0       -2.965370   -0.421926    1.295172
      9          6           0       -3.007844    1.001021    1.704779
     10          6           0       -4.371639    1.408152    1.192570
     11          6           0       -3.075461    1.164803    3.183651
     12          6           0       -1.982971   -0.550913    0.114025
     13          6           0       -0.476326   -0.480052    0.496187
     14          6           0        0.437967   -0.628934   -0.634106
     15          8           0        0.181185   -0.863463   -1.736056
     16          8           0        1.786100   -0.437593   -0.253741
     17          7           0       -7.035371    2.563316    0.325241
     18          6           0       -6.011917    3.331065    0.834528
     19          6           0       -6.389233    4.776258    0.918450
     20          6           0       -7.680063    4.858055    0.422497
     21          6           0       -8.091284    3.392139   -0.011110
     22          6           0       -5.432584    5.850089    1.203020
     23          6           0       -8.553451    6.062436    0.146437
     24          6           0       -8.477757    7.124695    0.934133
     25          7           0       -9.156424    0.670412   -0.569815
     26          6           0       -9.912327    1.821628   -0.747019
     27          6           0      -11.275345    1.447710   -1.138289
     28          6           0      -11.258948    0.055592   -1.347511
     29          6           0       -9.975509   -0.350353   -0.903434
     30          6           0      -12.320249    2.523693   -1.394429
     31          6           0      -12.366285   -0.758125   -1.738962
     32          6           0      -12.444530   -0.990174   -3.270417
     33          7           0       -7.290266   -1.383335   -0.090304
     34          6           0       -8.265714   -2.125752   -0.603891
     35          6           0       -7.868550   -3.550980   -0.484225
     36          6           0       -6.563453   -3.572635   -0.050632
     37          6           0       -6.151596   -2.220779    0.165850
     38          6           0       -8.788811   -4.735001   -0.916382
     39          6           0       -5.358778   -4.445222    0.283422
     40          8           0       -5.178598   -5.636682    0.204134
     41          6           0       -4.147578   -3.307191    0.633918
     42          6           0       -3.405208   -3.738389    1.902031
     43          8           0       -3.681774   -3.235935    2.964921
     44          8           0       -2.539666   -4.701527    1.733072
     45          6           0       -1.999931   -5.167152    2.879432
     46          6           0        2.729808   -0.482181   -1.290504
     47          6           0        4.102889   -0.336628   -0.749498
     48          6           0        5.160129    0.300687   -1.174166
     49          6           0        5.047842    1.325957   -2.376722
     50          6           0        6.455577    0.318591   -0.373194
     51          6           0        7.699055   -0.032214   -1.109378
     52          6           0        8.954264   -0.000728   -0.152571
     53          6           0       10.338354   -0.499806   -0.809104
     54          6           0       10.252098   -1.969972   -1.338189
     55          6           0       11.426002   -0.265430    0.170938
     56          6           0       12.866269   -0.492633   -0.598732
     57          6           0       14.048769   -0.210227    0.268147
     58          6           0       15.287761   -0.366678   -0.407554
     59          6           0       15.708136   -1.806014   -0.756460
     60          6           0       16.465090    0.316912    0.434356
     61          6           0       17.753757    0.558446   -0.191897
     62          6           0       18.766526    1.227332    0.758967
     63          6           0       20.181046    1.388067    0.154158
     64          6           0       20.241525    2.077580   -1.159085
     65          6           0       21.186568    2.057767    1.236688
     66          1           0       -4.121315    3.622816    1.651289
     67          1           0      -10.200762    4.055669   -0.472498
     68          1           0      -10.140652   -2.366029   -1.640838
     69          1           0       -2.782236   -1.127545    2.134407
     70          1           0       -2.197747    1.735273    1.406219
     71          1           0       -2.100985    0.827639    3.623714
     72          1           0       -3.211626    2.348398    3.442871
     73          1           0       -4.023105    0.723664    3.732061
     74          1           0       -1.875405   -1.515398   -0.660483
     75          1           0       -2.233695    0.246887   -0.770194
     76          1           0       -0.234688    0.397663    0.872665
     77          1           0       -0.208277   -1.336829    1.150971
     78          1           0       -5.688300    6.846496    0.866171
     79          1           0       -5.107170    5.986224    2.374793
     80          1           0       -4.348173    5.769893    0.801409
     81          1           0       -9.378482    5.804467   -0.576855
     82          1           0       -9.151393    7.822722    0.743395
     83          1           0       -7.813182    7.275395    1.609036
     84          1           0      -12.037444    3.318788   -2.133537
     85          1           0      -13.163313    2.062159   -1.598404
     86          1           0      -12.556046    3.025634   -0.443386
     87          1           0      -12.166175   -1.823271   -1.361683
     88          1           0      -13.380798   -0.349040   -1.608619
     89          1           0      -13.543769   -1.700523   -3.371673
     90          1           0      -12.662621   -0.040467   -3.895091
     91          1           0      -11.610807   -1.454058   -3.679843
     92          1           0       -9.194586   -4.632848   -1.811038
     93          1           0       -8.295559   -5.700402   -0.730766
     94          1           0       -9.547406   -4.778555   -0.201264
     95          1           0       -3.256890   -3.409090   -0.319096
     96          1           0       -1.663398   -4.424604    3.651760
     97          1           0       -2.913537   -5.693336    3.341106
     98          1           0       -1.089975   -5.895127    2.643274
     99          1           0        2.532243   -1.423638   -1.856115
    100          1           0        2.467388    0.587991   -1.917758
    101          1           0        4.165127   -0.801148    0.183125
    102          1           0        4.085444    1.325299   -2.729156
    103          1           0        5.492847    2.259561   -1.979297
    104          1           0        5.615881    0.872743   -3.037502
    105          1           0        6.515555    1.263156   -0.169362
    106          1           0        6.223580   -0.245802    0.564939
    107          1           0        7.715631   -0.986595   -1.753127
    108          1           0        7.904657    0.688470   -2.036725
    109          1           0        9.084333    1.053979    0.480478
    110          1           0        8.749119   -0.694880    0.670016
    111          1           0       10.237723    0.229492   -1.664781
    112          1           0        9.285793   -2.314895   -1.909155
    113          1           0       11.198617   -2.204143   -1.777498
    114          1           0       10.025708   -2.715848   -0.435758
    115          1           0       11.542086    0.840496    0.441768
    116          1           0       11.422956   -1.002868    1.044270
    117          1           0       13.115188   -1.583187   -0.886598
    118          1           0       12.904586    0.035594   -1.592041
    119          1           0       14.013672    0.797084    0.487561
    120          1           0       13.943206   -0.694729    1.305597
    121          1           0       15.123236    0.270977   -1.396905
    122          1           0       16.118608   -2.392754    0.242584
    123          1           0       14.785695   -2.353321   -1.354846
    124          1           0       16.609231   -1.689080   -1.430969
    125          1           0       16.104170    1.357003    0.843023
    126          1           0       16.474135   -0.196357    1.375138
    127          1           0       18.209975   -0.377693   -0.477087
    128          1           0       17.653568    1.314380   -1.033610
    129          1           0       18.566320    2.500088    1.083190
    130          1           0       18.909248    0.639634    1.785053
    131          1           0       20.682843    0.430492    0.045754
    132          1           0       20.070708    3.160335   -0.834044
    133          1           0       21.097956    1.999882   -1.809777
    134          1           0       19.243857    1.768753   -1.838023
    135          1           0       21.279970    1.620363    2.242107
    136          1           0       22.189005    2.157133    0.904895
    137          1           0       20.700215    3.096674    1.489251
 ---------------------------------------------------------------------

 SCF Done:  E(RCAM-B3LYP) =  -2933.44495291     A.U. after   16 cycles

 Excitation energies and oscillator strengths:

 Excited State   1:      Singlet-A      2.0609 eV  601.60 nm  f=0.1968  <S**2>=0.000
     240 -> 243       -0.25776
     241 -> 242        0.64391
     241 -> 243       -0.10022
 This state for optimization and/or second-order correction.
 Total Energy, E(TD-HF/TD-DFT) =  -2933.36921538
 Copying the excited state density for this state as the 1-particle RhoCI density.

 The electronic state is 1-A.
 Alpha  occ. eigenvalues --  -46.79541 -19.23693 -19.20158 -19.17983 -19.17563
 Alpha  occ. eigenvalues --  -19.16586 -14.37578 -14.35875 -14.35216 -14.34602
 Alpha  occ. eigenvalues --  -10.34864 -10.34047 -10.32529 -10.28218 -10.27877
 Alpha  occ. eigenvalues --  -10.26328 -10.26113 -10.26037 -10.25943 -10.25822
 Alpha  occ. eigenvalues --  -10.25463 -10.25270 -10.24460 -10.24431 -10.24291
 Alpha  occ. eigenvalues --  -10.24188 -10.23976 -10.23838 -10.23813 -10.23648
 Alpha  occ. eigenvalues --  -10.23440 -10.23406 -10.23309 -10.23267 -10.23052
 Alpha  occ. eigenvalues --  -10.23035 -10.22929 -10.22809 -10.22797 -10.22721
 Alpha  occ. eigenvalues --  -10.22608 -10.22600 -10.22523 -10.22281 -10.22266
 Alpha  occ. eigenvalues --  -10.22262 -10.22167 -10.21979 -10.21935 -10.21898
 Alpha  occ. eigenvalues --  -10.21885 -10.21804 -10.21452 -10.21312 -10.21239
 Alpha  occ. eigenvalues --  -10.20991 -10.20729 -10.20697 -10.20690 -10.20535
 Alpha  occ. eigenvalues --  -10.20484 -10.19596 -10.19574 -10.19531 -10.19139
 Alpha  occ. eigenvalues --   -3.08286  -1.83212  -1.82762  -1.82705  -1.17334
 Alpha  occ. eigenvalues --   -1.14184  -1.07620  -1.05922  -1.05673  -1.00323
 Alpha  occ. eigenvalues --   -0.98557  -0.97266  -0.96357  -0.87835  -0.86397
 Alpha  occ. eigenvalues --   -0.86291  -0.85784  -0.83974  -0.83866  -0.83756
 Alpha  occ. eigenvalues --   -0.83320  -0.82954  -0.82313  -0.82032  -0.81463
 Alpha  occ. eigenvalues --   -0.79930  -0.79711  -0.79176  -0.78855  -0.78022
 Alpha  occ. eigenvalues --   -0.77084  -0.76068  -0.75593  -0.74563  -0.74239
 Alpha  occ. eigenvalues --   -0.72909  -0.72076  -0.71593  -0.71323  -0.70414
 Alpha  occ. eigenvalues --   -0.70282  -0.70083  -0.69093  -0.68613  -0.67853
 Alpha  occ. eigenvalues --   -0.66882  -0.65664  -0.64616  -0.64368  -0.63894
 Alpha  occ. eigenvalues --   -0.63040  -0.61961  -0.61270  -0.60849  -0.60401
 Alpha  occ. eigenvalues --   -0.60074  -0.58353  -0.58216  -0.57454  -0.57159
 Alpha  occ. eigenvalues --   -0.56980  -0.56712  -0.56384  -0.55650  -0.55006
 Alpha  occ. eigenvalues --   -0.54212  -0.54153  -0.53918  -0.53662  -0.53188
 Alpha  occ. eigenvalues --   -0.52959  -0.52421  -0.51913  -0.51227  -0.50967
 Alpha  occ. eigenvalues --   -0.50932  -0.50652  -0.50395  -0.50136  -0.49466
 Alpha  occ. eigenvalues --   -0.49332  -0.49105  -0.48921  -0.48749  -0.48325
 Alpha  occ. eigenvalues --   -0.47864  -0.47853  -0.47521  -0.47374  -0.47067
 Alpha  occ. eigenvalues --   -0.46856  -0.46614  -0.46490  -0.46116  -0.45992
 Alpha  occ. eigenvalues --   -0.45784  -0.45510  -0.45325  -0.45072  -0.44923
 Alpha  occ. eigenvalues --   -0.44552  -0.44216  -0.44152  -0.43975  -0.43796
 Alpha  occ. eigenvalues --   -0.43414  -0.43371  -0.42954  -0.42585  -0.42506
 Alpha  occ. eigenvalues --   -0.42236  -0.42046  -0.41783  -0.41606  -0.41485
 Alpha  occ. eigenvalues --   -0.41026  -0.40954  -0.40903  -0.40693  -0.40548
 Alpha  occ. eigenvalues --   -0.40417  -0.40334  -0.40173  -0.40047  -0.39956
 Alpha  occ. eigenvalues --   -0.39756  -0.39241  -0.39009  -0.38950  -0.38787
 Alpha  occ. eigenvalues --   -0.38537  -0.38410  -0.38401  -0.38284  -0.38190
 Alpha  occ. eigenvalues --   -0.37701  -0.37552  -0.37511  -0.37301  -0.37096
 Alpha  occ. eigenvalues --   -0.37032  -0.36868  -0.36720  -0.36560  -0.35992
 Alpha  occ. eigenvalues --   -0.35850  -0.35337  -0.35052  -0.34709  -0.34357
 Alpha  occ. eigenvalues --   -0.34130  -0.34018  -0.33943  -0.33644  -0.33399
 Alpha  occ. eigenvalues --   -0.33160  -0.33099  -0.33031  -0.32936  -0.32765
 Alpha  occ. eigenvalues --   -0.32008  -0.31693  -0.31037  -0.30962  -0.30646
 Alpha  occ. eigenvalues --   -0.30472  -0.29801  -0.29782  -0.28693  -0.27624
 Alpha  occ. eigenvalues --   -0.27262  -0.26688  -0.25241  -0.24752  -0.21911
 Alpha  occ. eigenvalues --   -0.19670
 Alpha virt. eigenvalues --   -0.06496  -0.04506  -0.00721   0.02041   0.03474
 Alpha virt. eigenvalues --    0.04528   0.04946   0.05138   0.05478   0.05837
 Alpha virt. eigenvalues --    0.06263   0.07716   0.09014   0.09304   0.09456

 Mulliken charges:
               1
     1  Mg   0.829225
     2  C    0.116999
     3  C   -0.201424
     4  C   -0.161766
     5  C   -0.182206
     6  N   -0.631067
     7  C    0.311360
     8  C   -0.163192
     9  C   -0.125180
    10  C    0.373676
    11  C   -0.301901
    12  C   -0.187904
    13  C   -0.239750
    14  C    0.583348
    15  O   -0.420792
    16  O   -0.511485
    17  N   -0.667417
    18  C    0.286648
    19  C    0.082037
    20  C   -0.026330
    21  C    0.272161
    22  C   -0.402997
    23  C   -0.076214
    24  C   -0.198886
    25  N   -0.656244
    26  C    0.261511
    27  C   -0.012339
    28  C    0.088322
    29  C    0.270986
    30  C   -0.365439
    31  C   -0.272201
    32  C   -0.290288
    33  N   -0.773142
    34  C    0.345675
    35  C   -0.061939
    36  C    0.059196
    37  C    0.236963
    38  C   -0.369560
    39  C    0.377394
    40  O   -0.429065
    41  C   -0.333613
    42  C    0.609076
    43  O   -0.477176
    44  O   -0.376787
    45  C   -0.101481
    46  C    0.050311
    47  C   -0.135001
    48  C    0.079833
    49  C   -0.344526
    50  C   -0.196474
    51  C   -0.183928
    52  C   -0.177389
    53  C   -0.041625
    54  C   -0.312808
    55  C   -0.164626
    56  C   -0.200627
    57  C   -0.141673
    58  C   -0.047421
    59  C   -0.293007
    60  C   -0.178407
    61  C   -0.161846
    62  C   -0.141157
    63  C   -0.052533
    64  C   -0.291003
    65  C   -0.322821
    66  H    0.061252
    67  H    0.080060
    68  H    0.090432
    69  H    0.137408
    70  H    0.115344
    71  H    0.105995
    72  H    0.087036
    73  H    0.120665
    74  H    0.100940
    75  H    0.105509
    76  H    0.139202
    77  H    0.142396
    78  H    0.126624
    79  H    0.092044
    80  H    0.115149
    81  H    0.087996
    82  H    0.096553
    83  H    0.101056
    84  H    0.121062
    85  H    0.113178
    86  H    0.119284
    87  H    0.103434
    88  H    0.114270
    89  H    0.050927
    90  H    0.101414
    91  H    0.119669
    92  H    0.133022
    93  H    0.133927
    94  H    0.137777
    95  H    0.112369
    96  H    0.129825
    97  H    0.120172
    98  H    0.110047
    99  H    0.123630
   100  H    0.067886
   101  H    0.078365
   102  H    0.109090
   103  H    0.109631
   104  H    0.134861
   105  H    0.120492
   106  H    0.095953
   107  H    0.092030
   108  H    0.072671
   109  H    0.059447
   110  H    0.090460
   111  H    0.088696
   112  H    0.097688
   113  H    0.121174
   114  H    0.079969
   115  H    0.096696
   116  H    0.098029
   117  H    0.075890
   118  H    0.087230
   119  H    0.095862
   120  H    0.073121
   121  H    0.062520
   122  H    0.082617
   123  H    0.085549
   124  H    0.105392
   125  H    0.069545
   126  H    0.092992
   127  H    0.102325
   128  H    0.101963
   129  H    0.036214
   130  H    0.081492
   131  H    0.089098
   132  H    0.092124
   133  H    0.113083
   134  H    0.072177
   135  H    0.101829
   136  H    0.107643
   137  H    0.078471
 Sum of Mulliken charges =  -0.00000

 Dipole moment (field-independent basis, Debye):
    X=              1.8735    Y=              3.3956    Z=              0.5963  Tot=              3.9237
 Quadrupole moment (field-independent basis, Debye-Ang):
   XX=           -350.1794   YY=           -393.1738   ZZ=           -401.2568
   XY=            -24.4376   XZ=             10.3658   YZ=             -0.6797

 Normal termination of Gaussian 16 at Mon Sep 23 16:52:57 2019.
