 Gaussian 16, Revision A.03,
 Gaussian 16:  ES64L-G16RevA.03 25-Dec-2016

 ----------------------------------------------------------------------
 # td=(NStates=1) iop(3/107=0140000000,3/108=0140000000) CAM-B3LYP/6-31
 G(d,p)
 ----------------------------------------------------------------------

 --
 TD
 --
 Symbolic Z-matrix:
 Charge =  0 Multiplicity = 1

                         Standard orientation:
 ---------------------------------------------------------------------
 Center     Atomic      Atomic             Coordinates (Angstroms)
 Number     Number       Type             X           Y           Z
 ---------------------------------------------------------------------
      1         12           0       -7.136693    0.619259    0.096089
      2          6           0       -4.937374   -1.994667    0.501332
      3          6           0       -4.731582    2.798497    1.148563
      4          6           0       -9.287886    3.196560   -0.290241
      5          6           0       -9.620725   -1.619741   -1.016089
      6          7           0       -5.126666    0.400951    0.682602
      7          6           0       -4.327834   -0.727501    0.828636
      8          6           0       -2.982108   -0.487636    1.266661
      9          6           0       -2.984826    0.941201    1.769254
     10          6           0       -4.358952    1.474603    1.158631
     11          6           0       -2.938254    0.915687    3.299383
     12          6           0       -1.958349   -0.745763    0.109506
     13          6           0       -0.574385   -0.578996    0.563201
     14          6           0        0.498132   -0.754914   -0.548092
     15          8           0        0.217694   -1.000758   -1.679266
     16          8           0        1.756289   -0.485979   -0.086791
     17          7           0       -6.979652    2.587475    0.358987
     18          6           0       -5.932632    3.317381    0.825624
     19          6           0       -6.306190    4.711187    0.866390
     20          6           0       -7.628563    4.810107    0.383075
     21          6           0       -8.008238    3.500110    0.208327
     22          6           0       -5.310988    5.851738    1.074169
     23          6           0       -8.436886    6.024744    0.295860
     24          6           0       -8.337421    7.316362    0.891596
     25          7           0       -9.044336    0.731895   -0.482637
     26          6           0       -9.753025    1.876672   -0.661579
     27          6           0      -11.210934    1.581523   -1.062902
     28          6           0      -11.247873    0.253249   -1.318308
     29          6           0       -9.883793   -0.286712   -0.922898
     30          6           0      -12.205917    2.630250   -1.467993
     31          6           0      -12.294011   -0.678669   -1.826523
     32          6           0      -12.298438   -0.790257   -3.301717
     33          7           0       -7.355093   -1.413757   -0.215291
     34          6           0       -8.363956   -2.188666   -0.592419
     35          6           0       -7.866506   -3.569370   -0.570320
     36          6           0       -6.635021   -3.608962   -0.160683
     37          6           0       -6.219455   -2.194193    0.057133
     38          6           0       -8.756377   -4.774322   -1.016818
     39          6           0       -5.381252   -4.338523    0.058475
     40          8           0       -5.174251   -5.613477   -0.124666
     41          6           0       -4.189396   -3.389995    0.436272
     42          6           0       -3.575084   -3.739293    1.834781
     43          8           0       -3.955974   -3.249410    2.905375
     44          8           0       -2.775094   -4.798020    1.810295
     45          6           0       -2.311014   -5.410711    3.052561
     46          6           0        2.891880   -0.616966   -1.116349
     47          6           0        4.178303   -0.412126   -0.373385
     48          6           0        5.082555    0.426386   -0.796616
     49          6           0        5.015945    1.460356   -1.959120
     50          6           0        6.472603    0.514949   -0.086087
     51          6           0        7.601983   -0.170511   -0.869483
     52          6           0        8.910823   -0.187145   -0.115088
     53          6           0       10.115552   -0.617451   -0.906871
     54          6           0       10.216383   -2.133899   -1.238336
     55          6           0       11.470962   -0.323386   -0.102686
     56          6           0       12.794645   -0.569855   -0.694005
     57          6           0       13.914789   -0.003245    0.195241
     58          6           0       15.372004   -0.102402   -0.501557
     59          6           0       15.643112   -1.567226   -0.890829
     60          6           0       16.330938    0.526202    0.422932
     61          6           0       17.737747    0.620501   -0.226073
     62          6           0       18.799230    1.305762    0.645429
     63          6           0       20.221877    1.281802    0.116947
     64          6           0       20.321059    2.170379   -1.179393
     65          6           0       21.188408    1.752132    1.235860
     66          1           0       -3.962086    3.389092    1.631738
     67          1           0       -9.935739    3.937409   -0.795331
     68          1           0      -10.189219   -2.308660   -1.490320
     69          1           0       -2.804580   -1.135287    2.105030
     70          1           0       -2.251425    1.467742    1.216695
     71          1           0       -1.915349    0.425470    3.619635
     72          1           0       -3.090906    1.956338    3.740020
     73          1           0       -3.771842    0.284464    3.724454
     74          1           0       -2.192999   -1.639774   -0.493180
     75          1           0       -1.809264    0.109291   -0.532788
     76          1           0       -0.441023    0.390443    1.015938
     77          1           0       -0.188936   -0.955813    1.380292
     78          1           0       -5.254229    6.836170    0.515513
     79          1           0       -5.382740    6.033641    2.066550
     80          1           0       -4.384201    5.455375    0.825504
     81          1           0       -9.333815    5.945928   -0.416138
     82          1           0       -9.043812    8.121709    0.428265
     83          1           0       -7.542232    7.450146    1.619039
     84          1           0      -11.823883    3.269033   -2.311285
     85          1           0      -13.181606    2.077879   -1.627923
     86          1           0      -12.263048    3.384167   -0.509992
     87          1           0      -12.279069   -1.378087   -1.269290
     88          1           0      -13.205653   -0.357406   -1.456840
     89          1           0      -13.105571   -1.524232   -3.646898
     90          1           0      -12.526125    0.122485   -3.927965
     91          1           0      -11.324304   -1.427043   -3.766004
     92          1           0       -9.253357   -4.614987   -2.000649
     93          1           0       -8.135050   -5.578479   -1.337441
     94          1           0       -9.430605   -4.991355   -0.153298
     95          1           0       -3.328589   -3.500323   -0.268586
     96          1           0       -1.391221   -4.804942    3.416498
     97          1           0       -3.237191   -5.510899    3.700643
     98          1           0       -1.809491   -6.450226    2.734744
     99          1           0        2.782507   -1.696417   -1.470925
    100          1           0        2.572492    0.247505   -1.843726
    101          1           0        4.442237   -1.083673    0.507151
    102          1           0        4.048838    1.520108   -2.256225
    103          1           0        5.336945    2.317421   -1.696963
    104          1           0        5.636675    1.154824   -2.741958
    105          1           0        6.622430    1.523683    0.072033
    106          1           0        6.223287    0.066704    0.988486
    107          1           0        7.418167   -1.251511   -1.115111
    108          1           0        7.687941    0.421226   -1.723795
    109          1           0        9.049330    0.912637    0.323408
    110          1           0        8.751363   -0.931343    0.559348
    111          1           0       10.073650    0.037427   -1.945341
    112          1           0        9.147982   -2.494331   -1.679639
    113          1           0       10.955340   -2.424521   -1.798508
    114          1           0       10.160154   -2.564027   -0.346807
    115          1           0       11.563153    0.717906    0.137263
    116          1           0       11.296308   -1.167880    0.638276
    117          1           0       13.032452   -1.716747   -0.808566
    118          1           0       12.937413   -0.233924   -1.837557
    119          1           0       13.926977    1.181772    0.320902
    120          1           0       13.878545   -0.553808    1.134422
    121          1           0       15.278652    0.487386   -1.555395
    122          1           0       15.517434   -2.217794    0.037980
    123          1           0       14.836691   -1.942106   -1.644392
    124          1           0       16.776009   -1.848165   -1.178428
    125          1           0       16.091713    1.572069    0.767483
    126          1           0       16.335128   -0.239709    1.291580
    127          1           0       18.189774   -0.201076   -0.743591
    128          1           0       17.462939    1.327451   -1.065224
    129          1           0       18.605902    2.249069    0.976748
    130          1           0       18.664377    0.760188    1.618271
    131          1           0       20.321426    0.271635   -0.315596
    132          1           0       19.853418    3.261302   -1.015076
    133          1           0       21.464706    2.210907   -1.302642
    134          1           0       19.728540    1.737890   -2.074618
    135          1           0       21.306410    1.056655    2.126539
    136          1           0       22.158676    1.713215    0.584074
    137          1           0       20.742296    2.891457    1.580938
 ---------------------------------------------------------------------

 SCF Done:  E(RCAM-B3LYP) =  -2933.46501491     A.U. after   16 cycles

 Excitation energies and oscillator strengths:

 Excited State   1:      Singlet-A      1.9089 eV  649.52 nm  f=0.3224  <S**2>=0.000
     240 -> 243        0.20800
     241 -> 242        0.67665
 This state for optimization and/or second-order correction.
 Total Energy, E(TD-HF/TD-DFT) =  -2933.39486522
 Copying the excited state density for this state as the 1-particle RhoCI density.

 The electronic state is 1-A.
 Alpha  occ. eigenvalues --  -46.79115 -19.22228 -19.20666 -19.16373 -19.16042
 Alpha  occ. eigenvalues --  -19.15364 -14.38095 -14.35436 -14.34957 -14.34777
 Alpha  occ. eigenvalues --  -10.34811 -10.33874 -10.31066 -10.29442 -10.29184
 Alpha  occ. eigenvalues --  -10.26262 -10.25928 -10.25697 -10.25091 -10.24658
 Alpha  occ. eigenvalues --  -10.24550 -10.24542 -10.24194 -10.24130 -10.23543
 Alpha  occ. eigenvalues --  -10.23471 -10.23467 -10.23360 -10.23356 -10.23329
 Alpha  occ. eigenvalues --  -10.23238 -10.23167 -10.23096 -10.22945 -10.22753
 Alpha  occ. eigenvalues --  -10.22693 -10.22381 -10.22358 -10.22316 -10.22227
 Alpha  occ. eigenvalues --  -10.22219 -10.22211 -10.22164 -10.22160 -10.22125
 Alpha  occ. eigenvalues --  -10.22111 -10.22083 -10.21762 -10.21704 -10.21599
 Alpha  occ. eigenvalues --  -10.21418 -10.21416 -10.21342 -10.21339 -10.21323
 Alpha  occ. eigenvalues --  -10.21100 -10.21051 -10.21051 -10.21020 -10.20481
 Alpha  occ. eigenvalues --  -10.20193 -10.19759 -10.19702 -10.19572 -10.19121
 Alpha  occ. eigenvalues --   -3.07888  -1.82817  -1.82391  -1.82281  -1.12856
 Alpha  occ. eigenvalues --   -1.11453  -1.03544  -1.02786  -1.00955  -0.98911
 Alpha  occ. eigenvalues --   -0.98310  -0.97588  -0.96624  -0.86858  -0.86680
 Alpha  occ. eigenvalues --   -0.86357  -0.85549  -0.85121  -0.84766  -0.83809
 Alpha  occ. eigenvalues --   -0.83169  -0.82479  -0.82119  -0.81597  -0.81233
 Alpha  occ. eigenvalues --   -0.80923  -0.79094  -0.78914  -0.78374  -0.77123
 Alpha  occ. eigenvalues --   -0.76956  -0.76239  -0.75613  -0.75475  -0.73516
 Alpha  occ. eigenvalues --   -0.73113  -0.72845  -0.72205  -0.71283  -0.70385
 Alpha  occ. eigenvalues --   -0.69953  -0.69822  -0.69218  -0.69007  -0.67642
 Alpha  occ. eigenvalues --   -0.67288  -0.66701  -0.66254  -0.64608  -0.64103
 Alpha  occ. eigenvalues --   -0.62625  -0.62552  -0.61526  -0.60517  -0.59750
 Alpha  occ. eigenvalues --   -0.59426  -0.58403  -0.57914  -0.57687  -0.57614
 Alpha  occ. eigenvalues --   -0.56789  -0.56232  -0.55970  -0.55298  -0.54907
 Alpha  occ. eigenvalues --   -0.54654  -0.53625  -0.53277  -0.52690  -0.52497
 Alpha  occ. eigenvalues --   -0.52304  -0.51855  -0.51608  -0.51541  -0.51063
 Alpha  occ. eigenvalues --   -0.50514  -0.50268  -0.50237  -0.49535  -0.49342
 Alpha  occ. eigenvalues --   -0.49001  -0.48937  -0.48649  -0.48385  -0.47930
 Alpha  occ. eigenvalues --   -0.47457  -0.47398  -0.47315  -0.47200  -0.47033
 Alpha  occ. eigenvalues --   -0.46859  -0.46597  -0.46431  -0.46177  -0.45850
 Alpha  occ. eigenvalues --   -0.45491  -0.45237  -0.45073  -0.44900  -0.44608
 Alpha  occ. eigenvalues --   -0.44367  -0.44160  -0.44063  -0.44016  -0.43646
 Alpha  occ. eigenvalues --   -0.43508  -0.43474  -0.43318  -0.42928  -0.42672
 Alpha  occ. eigenvalues --   -0.42462  -0.42012  -0.41988  -0.41875  -0.41512
 Alpha  occ. eigenvalues --   -0.41279  -0.41208  -0.41053  -0.40950  -0.40911
 Alpha  occ. eigenvalues --   -0.40464  -0.40287  -0.40083  -0.40005  -0.39814
 Alpha  occ. eigenvalues --   -0.39732  -0.39461  -0.39161  -0.39071  -0.38737
 Alpha  occ. eigenvalues --   -0.38456  -0.38280  -0.38143  -0.38004  -0.37830
 Alpha  occ. eigenvalues --   -0.37712  -0.37486  -0.37312  -0.37202  -0.36699
 Alpha  occ. eigenvalues --   -0.36515  -0.36320  -0.36262  -0.35961  -0.35945
 Alpha  occ. eigenvalues --   -0.35786  -0.35634  -0.34861  -0.34676  -0.34429
 Alpha  occ. eigenvalues --   -0.34248  -0.33927  -0.33896  -0.33767  -0.33541
 Alpha  occ. eigenvalues --   -0.33478  -0.33107  -0.33084  -0.32517  -0.32357
 Alpha  occ. eigenvalues --   -0.31919  -0.31515  -0.31419  -0.30455  -0.30245
 Alpha  occ. eigenvalues --   -0.30015  -0.29519  -0.29186  -0.28522  -0.28245
 Alpha  occ. eigenvalues --   -0.27492  -0.26317  -0.26158  -0.24096  -0.21730
 Alpha  occ. eigenvalues --   -0.18969
 Alpha virt. eigenvalues --   -0.06845  -0.03239  -0.01099   0.01682   0.03381
 Alpha virt. eigenvalues --    0.04448   0.04925   0.04968   0.05474   0.05828
 Alpha virt. eigenvalues --    0.06210   0.09201   0.09436   0.09579   0.09988

 Mulliken charges:
               1
     1  Mg   0.806935
     2  C    0.073316
     3  C   -0.202816
     4  C   -0.187353
     5  C   -0.161365
     6  N   -0.609263
     7  C    0.320792
     8  C   -0.158063
     9  C   -0.128984
    10  C    0.285217
    11  C   -0.309653
    12  C   -0.167397
    13  C   -0.271773
    14  C    0.595093
    15  O   -0.460405
    16  O   -0.508613
    17  N   -0.721373
    18  C    0.361440
    19  C   -0.055646
    20  C    0.053829
    21  C    0.308431
    22  C   -0.368403
    23  C   -0.082818
    24  C   -0.248392
    25  N   -0.669977
    26  C    0.269482
    27  C    0.003475
    28  C    0.024036
    29  C    0.307309
    30  C   -0.368719
    31  C   -0.173569
    32  C   -0.305659
    33  N   -0.721143
    34  C    0.306252
    35  C   -0.115307
    36  C    0.173466
    37  C    0.217503
    38  C   -0.371446
    39  C    0.340908
    40  O   -0.500364
    41  C   -0.291610
    42  C    0.599349
    43  O   -0.484556
    44  O   -0.430611
    45  C   -0.080836
    46  C   -0.003447
    47  C   -0.110423
    48  C    0.096635
    49  C   -0.346199
    50  C   -0.229816
    51  C   -0.162573
    52  C   -0.144812
    53  C   -0.073883
    54  C   -0.306541
    55  C   -0.140568
    56  C   -0.181333
    57  C   -0.161783
    58  C   -0.044277
    59  C   -0.304168
    60  C   -0.155888
    61  C   -0.185074
    62  C   -0.149241
    63  C   -0.069605
    64  C   -0.291899
    65  C   -0.282311
    66  H    0.078560
    67  H    0.087780
    68  H    0.080402
    69  H    0.133205
    70  H    0.108424
    71  H    0.100538
    72  H    0.103324
    73  H    0.136897
    74  H    0.120997
    75  H    0.126470
    76  H    0.124827
    77  H    0.118482
    78  H    0.120304
    79  H    0.132518
    80  H    0.116917
    81  H    0.072408
    82  H    0.104201
    83  H    0.101171
    84  H    0.131302
    85  H    0.112657
    86  H    0.101067
    87  H    0.104806
    88  H    0.101272
    89  H    0.095841
    90  H    0.118157
    91  H    0.083615
    92  H    0.110820
    93  H    0.143170
    94  H    0.130293
    95  H    0.157128
    96  H    0.123936
    97  H    0.151015
    98  H    0.124155
    99  H    0.134620
   100  H    0.130465
   101  H    0.092718
   102  H    0.107105
   103  H    0.126220
   104  H    0.130386
   105  H    0.107044
   106  H    0.073034
   107  H    0.094217
   108  H    0.099731
   109  H    0.075222
   110  H    0.098103
   111  H    0.042102
   112  H    0.067750
   113  H    0.124575
   114  H    0.114142
   115  H    0.094140
   116  H    0.084832
   117  H    0.075626
   118  H    0.071312
   119  H    0.073810
   120  H    0.099079
   121  H    0.059784
   122  H    0.089825
   123  H    0.103459
   124  H    0.085263
   125  H    0.094684
   126  H    0.075932
   127  H    0.093850
   128  H    0.080266
   129  H    0.086491
   130  H    0.071069
   131  H    0.086696
   132  H    0.081549
   133  H    0.091035
   134  H    0.103158
   135  H    0.111126
   136  H    0.089251
   137  H    0.080151
 Sum of Mulliken charges =  -0.00000

 Dipole moment (field-independent basis, Debye):
    X=              3.3961    Y=              2.9853    Z=              0.4940  Tot=              4.5486
 Quadrupole moment (field-independent basis, Debye-Ang):
   XX=           -352.3397   YY=           -401.0789   ZZ=           -397.0247
   XY=            -18.2997   XZ=             17.4880   YZ=             -7.5268

 Normal termination of Gaussian 16 at Mon Sep 23 23:13:10 2019.
