 Gaussian 16, Revision A.03,
 Gaussian 16:  ES64L-G16RevA.03 25-Dec-2016

 ----------------------------------------------------------------------
 # td=(NStates=1) iop(3/107=0140000000,3/108=0140000000) CAM-B3LYP/6-31
 G(d,p)
 ----------------------------------------------------------------------

 --
 TD
 --
 Symbolic Z-matrix:
 Charge =  0 Multiplicity = 1

                         Standard orientation:
 ---------------------------------------------------------------------
 Center     Atomic      Atomic             Coordinates (Angstroms)
 Number     Number       Type             X           Y           Z
 ---------------------------------------------------------------------
      1         12           0       -7.048998    0.636419    0.088365
      2          6           0       -4.904059   -1.947091    0.504545
      3          6           0       -4.805734    2.798497    1.180814
      4          6           0       -9.399772    3.039596   -0.334793
      5          6           0       -9.502183   -1.713369   -0.831190
      6          7           0       -5.006276    0.399261    0.693334
      7          6           0       -4.260838   -0.818563    0.804322
      8          6           0       -2.904845   -0.575100    1.218033
      9          6           0       -3.047294    1.063689    1.689086
     10          6           0       -4.402847    1.480972    1.092088
     11          6           0       -2.985641    1.213656    3.296817
     12          6           0       -1.883005   -0.652805    0.069466
     13          6           0       -0.457265   -0.482197    0.524575
     14          6           0        0.568675   -0.703742   -0.692770
     15          8           0        0.209556   -1.046077   -1.787848
     16          8           0        1.776605   -0.582417   -0.227373
     17          7           0       -7.093551    2.617921    0.339127
     18          6           0       -5.986349    3.392746    0.839518
     19          6           0       -6.316123    4.703292    0.850332
     20          6           0       -7.736839    4.821188    0.502426
     21          6           0       -8.119518    3.487105    0.122926
     22          6           0       -5.477576    5.849164    1.220351
     23          6           0       -8.565919    6.031750    0.195916
     24          6           0       -8.498951    7.213088    0.779742
     25          7           0       -9.132033    0.696574   -0.415704
     26          6           0       -9.840170    1.817508   -0.637191
     27          6           0      -11.118979    1.505510   -1.237229
     28          6           0      -11.235679    0.152070   -1.180084
     29          6           0       -9.934301   -0.370753   -0.803048
     30          6           0      -12.203661    2.585680   -1.530173
     31          6           0      -12.392066   -0.655158   -1.775849
     32          6           0      -12.247763   -1.164128   -3.172119
     33          7           0       -7.129491   -1.337944   -0.159373
     34          6           0       -8.227304   -2.223378   -0.501873
     35          6           0       -7.820475   -3.549394   -0.561427
     36          6           0       -6.463554   -3.587142   -0.099080
     37          6           0       -6.167087   -2.202207    0.103719
     38          6           0       -8.673963   -4.711793   -0.949405
     39          6           0       -5.383774   -4.312567    0.189842
     40          8           0       -5.324523   -5.513771    0.244142
     41          6           0       -4.148709   -3.306596    0.536523
     42          6           0       -3.527952   -3.673953    1.786720
     43          8           0       -3.708511   -3.144979    2.935685
     44          8           0       -2.733848   -4.800906    1.765251
     45          6           0       -2.246316   -5.353746    3.014967
     46          6           0        2.814482   -0.800782   -1.266249
     47          6           0        4.081271   -0.417796   -0.598535
     48          6           0        5.036325    0.407058   -1.016706
     49          6           0        5.021570    1.187407   -2.257763
     50          6           0        6.367562    0.476448   -0.263417
     51          6           0        7.602704   -0.023168   -1.086156
     52          6           0        8.909173   -0.017791   -0.112287
     53          6           0       10.183312   -0.437934   -0.951451
     54          6           0       10.131516   -1.801816   -1.476667
     55          6           0       11.428335   -0.202025   -0.145144
     56          6           0       12.818352   -0.555939   -0.618727
     57          6           0       13.982593   -0.161364    0.173455
     58          6           0       15.331476   -0.230371   -0.434240
     59          6           0       15.537028   -1.718687   -0.770476
     60          6           0       16.496667    0.432117    0.560861
     61          6           0       17.800560    0.568264   -0.095413
     62          6           0       18.760913    1.187608    0.894563
     63          6           0       20.214154    1.344764    0.171555
     64          6           0       20.255388    2.238875   -1.028510
     65          6           0       21.101860    1.819043    1.271313
     66          1           0       -4.097234    3.500135    1.494554
     67          1           0      -10.037669    4.036437   -0.443510
     68          1           0      -10.405308   -2.373524   -1.050006
     69          1           0       -2.531734   -1.167013    1.997818
     70          1           0       -2.165481    1.447990    1.181514
     71          1           0       -2.133656    0.610983    3.656493
     72          1           0       -3.163783    2.269333    3.623737
     73          1           0       -3.824904    0.546513    3.717900
     74          1           0       -1.844756   -1.567555   -0.378542
     75          1           0       -2.040491   -0.006906   -0.838653
     76          1           0       -0.244837    0.547718    1.003046
     77          1           0       -0.249665   -1.248901    1.320143
     78          1           0       -5.851430    6.656031    0.588932
     79          1           0       -5.588853    5.786961    2.348076
     80          1           0       -4.491175    5.674702    0.726569
     81          1           0       -9.199933    5.774674   -0.520474
     82          1           0       -9.127111    8.059910    0.281753
     83          1           0       -7.838108    7.436417    1.532744
     84          1           0      -11.571427    3.461377   -2.116308
     85          1           0      -13.073650    2.159303   -2.267650
     86          1           0      -12.725378    3.043983   -0.567769
     87          1           0      -12.563294   -1.692353   -0.984685
     88          1           0      -13.330751   -0.158165   -1.571528
     89          1           0      -12.844670   -1.982341   -3.590443
     90          1           0      -12.220769   -0.208177   -3.739618
     91          1           0      -11.204937   -1.510211   -3.271792
     92          1           0       -9.138085   -4.654352   -1.927833
     93          1           0       -8.254943   -5.680539   -0.624806
     94          1           0       -9.539178   -4.521494   -0.187726
     95          1           0       -3.459542   -3.303044   -0.296123
     96          1           0       -1.658965   -4.709912    3.763224
     97          1           0       -3.060058   -5.582146    3.512892
     98          1           0       -1.653622   -6.046661    2.477137
     99          1           0        2.713532   -1.886303   -1.606318
    100          1           0        2.594597    0.030703   -2.137390
    101          1           0        4.266997   -1.099691    0.331748
    102          1           0        4.122228    1.569652   -2.764324
    103          1           0        5.228486    2.354528   -2.053589
    104          1           0        5.756229    0.835087   -3.105721
    105          1           0        6.601139    1.602693    0.039346
    106          1           0        6.345304   -0.312740    0.598556
    107          1           0        7.502685   -1.055437   -1.260578
    108          1           0        7.941254    0.395084   -1.995475
    109          1           0        8.992058    0.889560    0.352149
    110          1           0        8.762093   -0.778956    0.665305
    111          1           0       10.159590    0.147417   -1.859261
    112          1           0        9.183008   -2.216888   -2.275048
    113          1           0       11.080236   -2.096302   -2.193077
    114          1           0       10.131791   -2.712413   -0.794864
    115          1           0       11.650079    0.800483    0.094440
    116          1           0       11.129451   -0.812361    0.737259
    117          1           0       12.729505   -1.572107   -0.782855
    118          1           0       12.941914   -0.046544   -1.652421
    119          1           0       13.865503    0.919690    0.577789
    120          1           0       13.999930   -0.708528    1.177121
    121          1           0       15.306765    0.147970   -1.469354
    122          1           0       15.384553   -2.410638    0.128118
    123          1           0       14.576176   -2.112622   -1.524042
    124          1           0       16.452943   -1.848915   -1.181674
    125          1           0       16.083808    1.473830    0.700965
    126          1           0       16.410051   -0.184808    1.442950
    127          1           0       18.323267   -0.430613   -0.477358
    128          1           0       17.869243    1.284293   -1.114270
    129          1           0       18.257639    2.180257    1.242195
    130          1           0       18.830788    0.652183    1.927730
    131          1           0       20.782886    0.355284    0.003675
    132          1           0       20.009838    3.223012   -0.589638
    133          1           0       21.314769    2.438937   -1.278549
    134          1           0       19.591949    2.039841   -1.804873
    135          1           0       21.375956    1.136187    2.079311
    136          1           0       22.143661    2.193270    0.575094
    137          1           0       20.742281    2.779807    1.697919
 ---------------------------------------------------------------------

 SCF Done:  E(RCAM-B3LYP) =  -2933.49154885     A.U. after   16 cycles

 Excitation energies and oscillator strengths:

 Excited State   1:      Singlet-A      1.9779 eV  626.85 nm  f=0.2541  <S**2>=0.000
     240 -> 243        0.19895
     241 -> 242        0.67025
 This state for optimization and/or second-order correction.
 Total Energy, E(TD-HF/TD-DFT) =  -2933.41886257
 Copying the excited state density for this state as the 1-particle RhoCI density.

 The electronic state is 1-A.
 Alpha  occ. eigenvalues --  -46.79530 -19.22842 -19.20427 -19.16582 -19.14939
 Alpha  occ. eigenvalues --  -19.14687 -14.37094 -14.35339 -14.34882 -14.34153
 Alpha  occ. eigenvalues --  -10.34259 -10.33628 -10.29445 -10.28761 -10.26061
 Alpha  occ. eigenvalues --  -10.25368 -10.25326 -10.25026 -10.24941 -10.24839
 Alpha  occ. eigenvalues --  -10.24817 -10.24168 -10.24117 -10.24114 -10.24072
 Alpha  occ. eigenvalues --  -10.23940 -10.23901 -10.23744 -10.23693 -10.23544
 Alpha  occ. eigenvalues --  -10.23536 -10.23469 -10.23466 -10.23206 -10.22795
 Alpha  occ. eigenvalues --  -10.22750 -10.22742 -10.22693 -10.22466 -10.22424
 Alpha  occ. eigenvalues --  -10.22406 -10.22371 -10.22328 -10.22315 -10.22219
 Alpha  occ. eigenvalues --  -10.22212 -10.22098 -10.22066 -10.22043 -10.21979
 Alpha  occ. eigenvalues --  -10.21732 -10.21655 -10.21608 -10.21466 -10.21202
 Alpha  occ. eigenvalues --  -10.21167 -10.21083 -10.20962 -10.20908 -10.20907
 Alpha  occ. eigenvalues --  -10.20716 -10.20193 -10.20164 -10.20139 -10.20116
 Alpha  occ. eigenvalues --   -3.08136  -1.83080  -1.82604  -1.82548  -1.14428
 Alpha  occ. eigenvalues --   -1.09993  -1.05892  -1.05190  -0.99949  -0.99242
 Alpha  occ. eigenvalues --   -0.98382  -0.98012  -0.96606  -0.88163  -0.86659
 Alpha  occ. eigenvalues --   -0.86064  -0.84948  -0.84760  -0.84311  -0.83700
 Alpha  occ. eigenvalues --   -0.83582  -0.83274  -0.83140  -0.82197  -0.80787
 Alpha  occ. eigenvalues --   -0.80282  -0.79719  -0.78947  -0.78169  -0.77987
 Alpha  occ. eigenvalues --   -0.77191  -0.77002  -0.76456  -0.75517  -0.73636
 Alpha  occ. eigenvalues --   -0.72868  -0.72157  -0.71558  -0.71485  -0.71078
 Alpha  occ. eigenvalues --   -0.70104  -0.69886  -0.69327  -0.69076  -0.68545
 Alpha  occ. eigenvalues --   -0.66930  -0.65502  -0.65168  -0.64704  -0.64072
 Alpha  occ. eigenvalues --   -0.63051  -0.62148  -0.61648  -0.61163  -0.59842
 Alpha  occ. eigenvalues --   -0.59610  -0.58733  -0.58483  -0.58456  -0.57819
 Alpha  occ. eigenvalues --   -0.57536  -0.56679  -0.56361  -0.55933  -0.55382
 Alpha  occ. eigenvalues --   -0.54372  -0.54015  -0.53882  -0.53065  -0.52940
 Alpha  occ. eigenvalues --   -0.52599  -0.51925  -0.51135  -0.50964  -0.50897
 Alpha  occ. eigenvalues --   -0.50342  -0.50174  -0.49906  -0.49472  -0.49300
 Alpha  occ. eigenvalues --   -0.49126  -0.48839  -0.48530  -0.48165  -0.47999
 Alpha  occ. eigenvalues --   -0.47594  -0.47539  -0.47461  -0.47372  -0.47063
 Alpha  occ. eigenvalues --   -0.46826  -0.46764  -0.46716  -0.46507  -0.45846
 Alpha  occ. eigenvalues --   -0.45808  -0.45685  -0.45380  -0.45159  -0.44886
 Alpha  occ. eigenvalues --   -0.44631  -0.44359  -0.43906  -0.43647  -0.43302
 Alpha  occ. eigenvalues --   -0.43024  -0.42826  -0.42742  -0.42562  -0.42365
 Alpha  occ. eigenvalues --   -0.42278  -0.42188  -0.41936  -0.41704  -0.41462
 Alpha  occ. eigenvalues --   -0.41392  -0.41002  -0.40835  -0.40643  -0.40341
 Alpha  occ. eigenvalues --   -0.40263  -0.39861  -0.39678  -0.39609  -0.39456
 Alpha  occ. eigenvalues --   -0.39272  -0.39087  -0.38975  -0.38621  -0.38559
 Alpha  occ. eigenvalues --   -0.38313  -0.38195  -0.38089  -0.37771  -0.37523
 Alpha  occ. eigenvalues --   -0.37335  -0.37239  -0.37173  -0.37124  -0.37013
 Alpha  occ. eigenvalues --   -0.36889  -0.36821  -0.36669  -0.36606  -0.36258
 Alpha  occ. eigenvalues --   -0.36118  -0.35447  -0.35137  -0.34980  -0.34616
 Alpha  occ. eigenvalues --   -0.34269  -0.33813  -0.33701  -0.33660  -0.33443
 Alpha  occ. eigenvalues --   -0.33219  -0.32979  -0.32674  -0.32497  -0.32441
 Alpha  occ. eigenvalues --   -0.31934  -0.31128  -0.30789  -0.30527  -0.30295
 Alpha  occ. eigenvalues --   -0.30022  -0.29687  -0.29014  -0.28302  -0.27927
 Alpha  occ. eigenvalues --   -0.26974  -0.26257  -0.26064  -0.24398  -0.22039
 Alpha  occ. eigenvalues --   -0.20203
 Alpha virt. eigenvalues --   -0.07794  -0.03773  -0.00349   0.02773   0.02974
 Alpha virt. eigenvalues --    0.03419   0.05036   0.05253   0.05575   0.05947
 Alpha virt. eigenvalues --    0.06687   0.08596   0.09184   0.09509   0.09661

 Mulliken charges:
               1
     1  Mg   0.790060
     2  C    0.069298
     3  C   -0.190957
     4  C   -0.192739
     5  C   -0.198284
     6  N   -0.660261
     7  C    0.329055
     8  C   -0.176662
     9  C   -0.163680
    10  C    0.395064
    11  C   -0.319332
    12  C   -0.178757
    13  C   -0.278730
    14  C    0.599674
    15  O   -0.470559
    16  O   -0.435392
    17  N   -0.743542
    18  C    0.367245
    19  C   -0.028765
    20  C   -0.018126
    21  C    0.309593
    22  C   -0.366861
    23  C   -0.034937
    24  C   -0.248510
    25  N   -0.689161
    26  C    0.360501
    27  C    0.045582
    28  C    0.008102
    29  C    0.298261
    30  C   -0.351388
    31  C   -0.226038
    32  C   -0.301858
    33  N   -0.735356
    34  C    0.281119
    35  C    0.024668
    36  C    0.155538
    37  C    0.316348
    38  C   -0.377562
    39  C    0.248922
    40  O   -0.464390
    41  C   -0.334930
    42  C    0.622346
    43  O   -0.519572
    44  O   -0.470306
    45  C   -0.063071
    46  C   -0.007696
    47  C   -0.123031
    48  C    0.168901
    49  C   -0.381340
    50  C   -0.218611
    51  C   -0.193042
    52  C   -0.182764
    53  C   -0.057632
    54  C   -0.302831
    55  C   -0.163000
    56  C   -0.175881
    57  C   -0.146707
    58  C   -0.071507
    59  C   -0.293247
    60  C   -0.171177
    61  C   -0.150249
    62  C   -0.165261
    63  C   -0.040453
    64  C   -0.309041
    65  C   -0.288270
    66  H    0.070242
    67  H    0.070490
    68  H    0.092085
    69  H    0.122909
    70  H    0.099891
    71  H    0.118098
    72  H    0.112295
    73  H    0.122075
    74  H    0.124196
    75  H    0.111408
    76  H    0.112551
    77  H    0.123730
    78  H    0.129739
    79  H    0.137271
    80  H    0.113083
    81  H    0.085331
    82  H    0.091587
    83  H    0.106034
    84  H    0.099162
    85  H    0.098743
    86  H    0.122873
    87  H    0.039663
    88  H    0.110410
    89  H    0.117594
    90  H    0.108917
    91  H    0.110232
    92  H    0.134116
    93  H    0.149521
    94  H    0.116168
    95  H    0.164596
    96  H    0.108522
    97  H    0.144813
    98  H    0.132265
    99  H    0.139669
   100  H    0.112744
   101  H    0.083873
   102  H    0.119873
   103  H    0.089792
   104  H    0.124350
   105  H    0.090947
   106  H    0.094616
   107  H    0.113877
   108  H    0.102785
   109  H    0.103671
   110  H    0.089930
   111  H    0.090862
   112  H    0.060553
   113  H    0.086136
   114  H    0.100181
   115  H    0.091119
   116  H    0.080379
   117  H    0.106065
   118  H    0.071481
   119  H    0.059301
   120  H    0.075273
   121  H    0.084074
   122  H    0.084985
   123  H    0.066957
   124  H    0.105348
   125  H    0.097656
   126  H    0.107224
   127  H    0.082233
   128  H    0.070341
   129  H    0.078664
   130  H    0.082019
   131  H    0.083640
   132  H    0.101634
   133  H    0.104763
   134  H    0.113672
   135  H    0.111546
   136  H    0.031268
   137  H    0.097080
 Sum of Mulliken charges =  -0.00000

 Dipole moment (field-independent basis, Debye):
    X=              2.7978    Y=              4.8403    Z=             -0.9334  Tot=              5.6681
 Quadrupole moment (field-independent basis, Debye-Ang):
   XX=           -349.2781   YY=           -396.7745   ZZ=           -397.3577
   XY=            -20.5545   XZ=             17.4560   YZ=             -1.8855

 Normal termination of Gaussian 16 at Wed Sep 11 14:04:17 2019.
