 Gaussian 09, Revision D.01,
 Gaussian 09:  ES64L-G09RevD.01 24-Apr-2013

 -------------------------------------
 # td=(NStates=1) CAM-B3LYP/6-31G(d,p)
 -------------------------------------

 --
 TD
 --
 Symbolic Z-matrix:
 Charge =  0 Multiplicity = 1

                         Standard orientation:
 ---------------------------------------------------------------------
 Center     Atomic      Atomic             Coordinates (Angstroms)
 Number     Number       Type             X           Y           Z
 ---------------------------------------------------------------------
      1         12           0       -7.123483    0.577194    0.127007
      2          6           0       -4.911276   -1.956576    0.590493
      3          6           0       -4.819416    2.953494    0.990430
      4          6           0       -9.481137    3.069626   -0.539452
      5          6           0       -9.517530   -1.779646   -0.884814
      6          7           0       -5.101487    0.527718    0.691063
      7          6           0       -4.327004   -0.706685    0.746810
      8          6           0       -2.937044   -0.306312    1.136476
      9          6           0       -3.027700    1.131967    1.634114
     10          6           0       -4.450970    1.564100    1.012187
     11          6           0       -2.827228    1.378277    3.036644
     12          6           0       -1.842736   -0.541670    0.061276
     13          6           0       -0.495144   -0.401962    0.585001
     14          6           0        0.564366   -0.663063   -0.546270
     15          8           0        0.255065   -0.837112   -1.747972
     16          8           0        1.787387   -0.584009   -0.164328
     17          7           0       -7.142790    2.621772    0.253118
     18          6           0       -6.023935    3.396788    0.603454
     19          6           0       -6.526677    4.824841    0.679731
     20          6           0       -7.788379    4.852600    0.232159
     21          6           0       -8.163900    3.370068   -0.045730
     22          6           0       -5.668018    5.941682    1.220737
     23          6           0       -8.704387    5.989109    0.162771
     24          6           0       -8.793498    7.163555    0.885376
     25          7           0       -9.093539    0.602584   -0.551133
     26          6           0       -9.900064    1.760993   -0.718989
     27          6           0      -11.236173    1.414738   -1.039632
     28          6           0      -11.286440    0.054210   -1.156522
     29          6           0       -9.963000   -0.456446   -0.904570
     30          6           0      -12.325478    2.342554   -1.389240
     31          6           0      -12.474874   -0.876487   -1.619684
     32          6           0      -12.417078   -1.226957   -3.131690
     33          7           0       -7.310739   -1.429822   -0.067290
     34          6           0       -8.274822   -2.312139   -0.492340
     35          6           0       -7.915768   -3.674171   -0.550043
     36          6           0       -6.527135   -3.574448   -0.181013
     37          6           0       -6.201439   -2.194298    0.008646
     38          6           0       -8.712268   -4.949528   -0.881013
     39          6           0       -5.313032   -4.333050    0.182377
     40          8           0       -5.085260   -5.587488    0.124996
     41          6           0       -4.163875   -3.267779    0.565243
     42          6           0       -3.602532   -3.613012    2.021111
     43          8           0       -3.723180   -2.971094    3.106095
     44          8           0       -2.802640   -4.584975    1.869891
     45          6           0       -2.138882   -5.002825    3.099569
     46          6           0        2.847880   -0.829955   -1.191158
     47          6           0        4.170152   -0.546684   -0.646892
     48          6           0        5.179531    0.335900   -0.970581
     49          6           0        5.025907    1.170892   -2.231122
     50          6           0        6.470273    0.327265   -0.200319
     51          6           0        7.660520   -0.032081   -0.975534
     52          6           0        9.008192   -0.061229   -0.181205
     53          6           0       10.247834   -0.486110   -0.837319
     54          6           0       10.222068   -2.065264   -1.179475
     55          6           0       11.500572   -0.106163    0.065804
     56          6           0       12.795484   -0.466093   -0.578667
     57          6           0       14.111618   -0.082931    0.069993
     58          6           0       15.427553   -0.264192   -0.546150
     59          6           0       15.770907   -1.697533   -0.873941
     60          6           0       16.512543    0.227897    0.332576
     61          6           0       17.933215    0.396613   -0.258320
     62          6           0       18.905062    1.126202    0.700835
     63          6           0       20.366422    1.349096    0.175822
     64          6           0       20.399414    2.307942   -1.011200
     65          6           0       21.159693    2.053145    1.292042
     66          1           0       -4.170764    3.721964    1.274966
     67          1           0      -10.178672    3.969987   -0.504755
     68          1           0      -10.285643   -2.468633   -1.162564
     69          1           0       -2.504150   -0.889956    2.002616
     70          1           0       -2.125336    1.591991    0.750241
     71          1           0       -1.760565    0.884175    3.493936
     72          1           0       -2.863239    2.425800    3.373124
     73          1           0       -3.508534    0.959972    3.573611
     74          1           0       -1.825620   -1.630069   -0.361341
     75          1           0       -2.067471    0.065946   -0.890239
     76          1           0       -0.065753    0.609575    0.991990
     77          1           0       -0.201162   -1.124861    1.315817
     78          1           0       -6.089653    6.923083    0.955678
     79          1           0       -5.865539    5.856439    2.325970
     80          1           0       -4.619298    5.706173    1.033673
     81          1           0       -9.716095    5.992652   -0.631263
     82          1           0       -9.312656    7.945050    0.754307
     83          1           0       -8.121022    7.208691    1.710265
     84          1           0      -12.073743    2.822373   -2.319486
     85          1           0      -13.001282    1.559144   -1.705431
     86          1           0      -12.736746    2.944786   -0.742333
     87          1           0      -12.611419   -1.743088   -0.921893
     88          1           0      -13.391449   -0.247021   -1.296109
     89          1           0      -13.552270   -1.857294   -3.190837
     90          1           0      -12.243338   -0.195401   -3.745453
     91          1           0      -11.495792   -1.846430   -3.429852
     92          1           0       -8.938910   -4.750163   -1.863721
     93          1           0       -8.079813   -5.740889   -0.721594
     94          1           0       -9.542968   -5.058583   -0.150460
     95          1           0       -3.148555   -3.303472   -0.135730
     96          1           0       -1.598951   -4.199683    3.532797
     97          1           0       -2.696513   -5.408243    4.082781
     98          1           0       -1.426488   -5.847972    2.945575
     99          1           0        2.334379   -1.767872   -1.412272
    100          1           0        2.661067   -0.218652   -2.110049
    101          1           0        4.326351   -1.291242    0.425002
    102          1           0        3.981342    1.180949   -2.618449
    103          1           0        5.137067    2.116908   -1.929409
    104          1           0        5.660899    1.059920   -3.149259
    105          1           0        6.712820    1.284904    0.107402
    106          1           0        6.389226   -0.185965    0.682118
    107          1           0        7.393377   -1.067550   -1.527549
    108          1           0        7.818922    0.569010   -1.851781
    109          1           0        9.264431    0.906406    0.166737
    110          1           0        8.832769   -0.818251    0.644104
    111          1           0       10.342519    0.161826   -1.653569
    112          1           0        9.338673   -2.262038   -1.892065
    113          1           0       11.269964   -2.327054   -1.592069
    114          1           0        9.986394   -2.473261   -0.067734
    115          1           0       11.471034    0.979362    0.309781
    116          1           0       11.429112   -0.702435    1.045219
    117          1           0       12.770049   -1.656969   -0.732446
    118          1           0       12.587705    0.029824   -1.528323
    119          1           0       13.970608    1.002230    0.407155
    120          1           0       14.146942   -0.622462    0.877208
    121          1           0       15.432333    0.315611   -1.457914
    122          1           0       15.888230   -2.283685   -0.024724
    123          1           0       14.836384   -2.049676   -1.277736
    124          1           0       16.715208   -1.932545   -1.383558
    125          1           0       16.347833    1.254801    0.902310
    126          1           0       16.510350   -0.584836    1.273330
    127          1           0       18.289743   -0.557241   -0.662555
    128          1           0       17.814457    1.154768   -1.191730
    129          1           0       18.390004    2.089068    1.000483
    130          1           0       18.884605    0.411718    1.519703
    131          1           0       20.859548    0.424025    0.089371
    132          1           0       19.983857    3.224673   -0.579324
    133          1           0       21.504001    2.464978   -1.119673
    134          1           0       19.814730    2.002061   -1.828554
    135          1           0       21.175346    1.380487    2.008648
    136          1           0       22.239143    2.065531    1.118010
    137          1           0       20.756478    3.012372    1.383309
 ---------------------------------------------------------------------

 SCF Done:  E(RCAM-B3LYP) =  -2932.61498359     A.U. after   17 cycles

 Excitation energies and oscillator strengths:

 Excited State   1:      Singlet-A      2.1482 eV  577.17 nm  f=0.2681  <S**2>=0.000
     240 -> 243       -0.19966
     241 -> 242        0.66520
 This state for optimization and/or second-order correction.
 Total Energy, E(TD-HF/TD-KS) =  -2932.53604027
 Copying the excited state density for this state as the 1-particle RhoCI density.

 The electronic state is 1-A.
 Alpha  occ. eigenvalues --  -46.84499 -19.28392 -19.26413 -19.19797 -19.19148
 Alpha  occ. eigenvalues --  -19.18870 -14.42925 -14.40029 -14.39082 -14.38341
 Alpha  occ. eigenvalues --  -10.39329 -10.38486 -10.34773 -10.32638 -10.32584
 Alpha  occ. eigenvalues --  -10.32365 -10.31087 -10.30805 -10.30773 -10.30018
 Alpha  occ. eigenvalues --  -10.29972 -10.29894 -10.29496 -10.29339 -10.29026
 Alpha  occ. eigenvalues --  -10.28580 -10.28190 -10.27997 -10.27962 -10.27949
 Alpha  occ. eigenvalues --  -10.27944 -10.27881 -10.27781 -10.27658 -10.27408
 Alpha  occ. eigenvalues --  -10.27361 -10.27357 -10.27301 -10.27190 -10.26655
 Alpha  occ. eigenvalues --  -10.26616 -10.26535 -10.26496 -10.26258 -10.26220
 Alpha  occ. eigenvalues --  -10.26196 -10.26148 -10.26137 -10.26074 -10.26005
 Alpha  occ. eigenvalues --  -10.25863 -10.25457 -10.25452 -10.25298 -10.25249
 Alpha  occ. eigenvalues --  -10.25248 -10.25214 -10.24967 -10.24954 -10.24814
 Alpha  occ. eigenvalues --  -10.23972 -10.23937 -10.23677 -10.23441 -10.22385
 Alpha  occ. eigenvalues --   -3.13507  -1.88218  -1.87759  -1.87669  -1.20872
 Alpha  occ. eigenvalues --   -1.19186  -1.06427  -1.06367  -1.06258  -1.05391
 Alpha  occ. eigenvalues --   -1.03994  -1.03337  -1.00484  -0.92618  -0.92074
 Alpha  occ. eigenvalues --   -0.91972  -0.90832  -0.90196  -0.89599  -0.89278
 Alpha  occ. eigenvalues --   -0.88690  -0.87945  -0.87282  -0.86844  -0.86529
 Alpha  occ. eigenvalues --   -0.86027  -0.84496  -0.83911  -0.83158  -0.82724
 Alpha  occ. eigenvalues --   -0.82356  -0.81553  -0.81343  -0.80936  -0.78649
 Alpha  occ. eigenvalues --   -0.78360  -0.77210  -0.76994  -0.76282  -0.76161
 Alpha  occ. eigenvalues --   -0.75695  -0.75294  -0.74366  -0.74205  -0.72637
 Alpha  occ. eigenvalues --   -0.71082  -0.70713  -0.69323  -0.68584  -0.67934
 Alpha  occ. eigenvalues --   -0.67361  -0.67286  -0.65198  -0.64706  -0.64300
 Alpha  occ. eigenvalues --   -0.63796  -0.63471  -0.62935  -0.62700  -0.62582
 Alpha  occ. eigenvalues --   -0.62523  -0.61326  -0.59987  -0.59884  -0.59347
 Alpha  occ. eigenvalues --   -0.58418  -0.57807  -0.57272  -0.56996  -0.56174
 Alpha  occ. eigenvalues --   -0.55933  -0.55760  -0.55474  -0.55094  -0.54827
 Alpha  occ. eigenvalues --   -0.54737  -0.54292  -0.54149  -0.53945  -0.53700
 Alpha  occ. eigenvalues --   -0.53188  -0.52981  -0.52220  -0.52191  -0.52108
 Alpha  occ. eigenvalues --   -0.51811  -0.51694  -0.51423  -0.51219  -0.50950
 Alpha  occ. eigenvalues --   -0.50731  -0.50639  -0.50352  -0.50246  -0.50069
 Alpha  occ. eigenvalues --   -0.49692  -0.49609  -0.49108  -0.48774  -0.48660
 Alpha  occ. eigenvalues --   -0.48614  -0.48383  -0.47552  -0.47387  -0.47196
 Alpha  occ. eigenvalues --   -0.47099  -0.46885  -0.46705  -0.46687  -0.46248
 Alpha  occ. eigenvalues --   -0.45880  -0.45675  -0.45536  -0.45439  -0.45029
 Alpha  occ. eigenvalues --   -0.44917  -0.44679  -0.44518  -0.44220  -0.44104
 Alpha  occ. eigenvalues --   -0.44055  -0.43791  -0.43635  -0.43463  -0.43109
 Alpha  occ. eigenvalues --   -0.42882  -0.42709  -0.42665  -0.42394  -0.42115
 Alpha  occ. eigenvalues --   -0.42047  -0.41981  -0.41853  -0.41715  -0.41254
 Alpha  occ. eigenvalues --   -0.41182  -0.40527  -0.40381  -0.40357  -0.40332
 Alpha  occ. eigenvalues --   -0.39483  -0.39327  -0.39266  -0.39202  -0.39014
 Alpha  occ. eigenvalues --   -0.38695  -0.38559  -0.38208  -0.37843  -0.37356
 Alpha  occ. eigenvalues --   -0.37219  -0.37013  -0.36889  -0.36700  -0.36554
 Alpha  occ. eigenvalues --   -0.36281  -0.35942  -0.35923  -0.35712  -0.35474
 Alpha  occ. eigenvalues --   -0.35160  -0.35129  -0.34884  -0.34709  -0.33084
 Alpha  occ. eigenvalues --   -0.32764  -0.32564  -0.32322  -0.30919  -0.30428
 Alpha  occ. eigenvalues --   -0.28978  -0.28587  -0.28068  -0.27747  -0.23974
 Alpha  occ. eigenvalues --   -0.20594
 Alpha virt. eigenvalues --   -0.05722  -0.02751   0.01119   0.03099   0.03317
 Alpha virt. eigenvalues --    0.05267   0.06254   0.06614   0.07307   0.07551
 Alpha virt. eigenvalues --    0.08161   0.10234   0.10655   0.11441   0.11547

 Mulliken charges:
               1
     1  Mg   0.814497
     2  C    0.082458
     3  C   -0.184034
     4  C   -0.195096
     5  C   -0.188898
     6  N   -0.621741
     7  C    0.279642
     8  C   -0.166326
     9  C   -0.104635
    10  C    0.347779
    11  C   -0.304124
    12  C   -0.177125
    13  C   -0.252165
    14  C    0.578469
    15  O   -0.522093
    16  O   -0.461369
    17  N   -0.733938
    18  C    0.324049
    19  C    0.014414
    20  C    0.008845
    21  C    0.356924
    22  C   -0.368627
    23  C   -0.110359
    24  C   -0.222027
    25  N   -0.691305
    26  C    0.316366
    27  C   -0.002964
    28  C    0.012993
    29  C    0.288076
    30  C   -0.353279
    31  C   -0.233710
    32  C   -0.271465
    33  N   -0.671668
    34  C    0.259005
    35  C    0.005207
    36  C   -0.018435
    37  C    0.241656
    38  C   -0.342263
    39  C    0.362128
    40  O   -0.505882
    41  C   -0.320111
    42  C    0.615276
    43  O   -0.517247
    44  O   -0.378596
    45  C   -0.103960
    46  C    0.012471
    47  C   -0.113153
    48  C    0.109620
    49  C   -0.380284
    50  C   -0.198463
    51  C   -0.186963
    52  C   -0.153860
    53  C   -0.076327
    54  C   -0.296610
    55  C   -0.179790
    56  C   -0.176425
    57  C   -0.154784
    58  C   -0.051460
    59  C   -0.321755
    60  C   -0.144133
    61  C   -0.177940
    62  C   -0.161735
    63  C   -0.085826
    64  C   -0.291293
    65  C   -0.298850
    66  H    0.082226
    67  H    0.094703
    68  H    0.079893
    69  H    0.121099
    70  H    0.057378
    71  H    0.084762
    72  H    0.111639
    73  H    0.148652
    74  H    0.107862
    75  H    0.123379
    76  H    0.127858
    77  H    0.136804
    78  H    0.130652
    79  H    0.130346
    80  H    0.120578
    81  H    0.069536
    82  H    0.105850
    83  H    0.091130
    84  H    0.125091
    85  H    0.105982
    86  H    0.126357
    87  H    0.111672
    88  H    0.100704
    89  H    0.082115
    90  H    0.102543
    91  H    0.118600
    92  H    0.136965
    93  H    0.155615
    94  H    0.123307
    95  H    0.153111
    96  H    0.140593
    97  H    0.124237
    98  H    0.125540
    99  H    0.143220
   100  H    0.129818
   101  H    0.053811
   102  H    0.114274
   103  H    0.133877
   104  H    0.126704
   105  H    0.108709
   106  H    0.113836
   107  H    0.071960
   108  H    0.097520
   109  H    0.092184
   110  H    0.079629
   111  H    0.086869
   112  H    0.107116
   113  H    0.106620
   114  H    0.087155
   115  H    0.086728
   116  H    0.075424
   117  H    0.073375
   118  H    0.086926
   119  H    0.077369
   120  H    0.100456
   121  H    0.086122
   122  H    0.104898
   123  H    0.099631
   124  H    0.108491
   125  H    0.064384
   126  H    0.047694
   127  H    0.093010
   128  H    0.063851
   129  H    0.082629
   130  H    0.092711
   131  H    0.087978
   132  H    0.094589
   133  H    0.098955
   134  H    0.107539
   135  H    0.106591
   136  H    0.087986
   137  H    0.105804
 Sum of Mulliken charges =   0.00000

 Dipole moment (field-independent basis, Debye):
    X=              3.5347    Y=              5.7133    Z=              1.5360  Tot=              6.8917
 Quadrupole moment (field-independent basis, Debye-Ang):
   XX=           -341.4289   YY=           -395.7383   ZZ=           -399.3574
   XY=            -28.4163   XZ=              5.2175   YZ=             -1.4714

 Normal termination of Gaussian 09 at Sat Jul  6 05:51:42 2019.
