 Gaussian 09, Revision D.01,
 Gaussian 09:  ES64L-G09RevD.01 24-Apr-2013

 -------------------------------------
 # td=(NStates=1) CAM-B3LYP/6-31G(d,p)
 -------------------------------------

 --
 TD
 --
 Symbolic Z-matrix:
 Charge =  0 Multiplicity = 1

                         Standard orientation:
 ---------------------------------------------------------------------
 Center     Atomic      Atomic             Coordinates (Angstroms)
 Number     Number       Type             X           Y           Z
 ---------------------------------------------------------------------
      1         12           0       -7.123438    0.576428    0.160571
      2          6           0       -4.934238   -2.021478    0.445269
      3          6           0       -4.683285    2.810239    1.216661
      4          6           0       -9.352829    3.134195   -0.324673
      5          6           0       -9.691916   -1.688417   -0.918807
      6          7           0       -5.112674    0.419646    0.770405
      7          6           0       -4.349028   -0.768934    0.824592
      8          6           0       -2.851947   -0.525971    1.245920
      9          6           0       -3.069762    0.991718    1.756925
     10          6           0       -4.262342    1.414340    1.142867
     11          6           0       -3.096875    1.087173    3.254538
     12          6           0       -1.926933   -0.702538    0.085352
     13          6           0       -0.564088   -0.592023    0.490303
     14          6           0        0.520129   -0.625410   -0.671532
     15          8           0        0.228607   -0.883977   -1.851479
     16          8           0        1.764234   -0.447428   -0.256185
     17          7           0       -7.075815    2.547057    0.481351
     18          6           0       -5.958152    3.295480    0.875934
     19          6           0       -6.309902    4.729530    0.854813
     20          6           0       -7.597063    4.757300    0.439434
     21          6           0       -8.091475    3.467000    0.116615
     22          6           0       -5.397198    5.875331    1.161314
     23          6           0       -8.344280    6.146897    0.118383
     24          6           0       -8.356657    7.288027    0.778273
     25          7           0       -9.143192    0.748569   -0.511979
     26          6           0       -9.868784    1.912652   -0.662557
     27          6           0      -11.149820    1.556186   -1.064460
     28          6           0      -11.277503    0.181778   -1.260477
     29          6           0       -9.938857   -0.276713   -0.841352
     30          6           0      -12.123207    2.526187   -1.512755
     31          6           0      -12.486021   -0.641563   -1.660564
     32          6           0      -12.493358   -0.844865   -3.185184
     33          7           0       -7.215527   -1.320667   -0.313988
     34          6           0       -8.339582   -2.183771   -0.625469
     35          6           0       -7.873871   -3.570600   -0.481357
     36          6           0       -6.573354   -3.507195   -0.164023
     37          6           0       -6.269068   -2.192269    0.078997
     38          6           0       -8.778432   -4.779244   -0.895295
     39          6           0       -5.446609   -4.417989    0.174848
     40          8           0       -5.353014   -5.608189    0.108246
     41          6           0       -4.248781   -3.310119    0.450524
     42          6           0       -3.646836   -3.694655    1.826738
     43          8           0       -3.810230   -3.242539    2.884812
     44          8           0       -2.929842   -4.863009    1.628874
     45          6           0       -2.296490   -5.499665    2.876549
     46          6           0        2.876564   -0.694041   -1.291182
     47          6           0        4.188978   -0.390028   -0.586142
     48          6           0        5.151653    0.395511   -0.938009
     49          6           0        5.124700    1.356756   -2.119901
     50          6           0        6.455861    0.474371   -0.126486
     51          6           0        7.588827   -0.231655   -0.834441
     52          6           0        8.889170   -0.006425   -0.106078
     53          6           0       10.121937   -0.611408   -0.889188
     54          6           0       10.166782   -2.041655   -1.256980
     55          6           0       11.367748   -0.199366    0.051334
     56          6           0       12.772415   -0.480210   -0.657731
     57          6           0       13.976171   -0.074803    0.283244
     58          6           0       15.337301   -0.103376   -0.529392
     59          6           0       15.697739   -1.469178   -1.013407
     60          6           0       16.511480    0.418186    0.377036
     61          6           0       17.847680    0.529996   -0.173976
     62          6           0       18.946217    1.190805    0.725141
     63          6           0       20.377237    1.270985    0.128067
     64          6           0       20.496831    2.092333   -1.018051
     65          6           0       21.255161    1.786735    1.338286
     66          1           0       -3.958106    3.396237    1.836590
     67          1           0      -10.239138    3.925332   -0.388314
     68          1           0      -10.237619   -2.424066   -1.048082
     69          1           0       -2.623281   -1.023396    2.243223
     70          1           0       -2.141527    1.533803    1.484224
     71          1           0       -2.235940    0.685573    3.723397
     72          1           0       -3.210305    2.137776    3.627036
     73          1           0       -3.985074    0.523921    3.931086
     74          1           0       -2.156062   -1.730704   -0.089020
     75          1           0       -1.996502    0.097492   -0.602709
     76          1           0       -0.620765    0.332705    0.825156
     77          1           0       -0.336676   -1.381539    1.163170
     78          1           0       -5.989800    6.493370    0.579339
     79          1           0       -5.410861    6.239102    2.171520
     80          1           0       -4.338558    5.661411    0.906701
     81          1           0       -8.980093    5.877436   -0.714686
     82          1           0       -9.142000    7.980014    0.394612
     83          1           0       -7.702991    7.319073    1.678393
     84          1           0      -11.875339    3.232049   -2.334513
     85          1           0      -13.148372    2.264779   -1.858152
     86          1           0      -12.543878    3.329789   -0.690976
     87          1           0      -12.294982   -1.757477   -1.299736
     88          1           0      -13.289898    0.061542   -1.284903
     89          1           0      -13.349140   -1.484980   -3.425419
     90          1           0      -12.406118    0.127107   -3.823036
     91          1           0      -11.567409   -1.161654   -3.603132
     92          1           0       -8.925714   -4.662569   -2.163670
     93          1           0       -7.816317   -5.482629   -0.854333
     94          1           0       -9.640560   -4.978667   -0.415415
     95          1           0       -3.379685   -3.492361   -0.130228
     96          1           0       -1.711009   -4.727736    3.341576
     97          1           0       -3.285478   -5.843334    3.552009
     98          1           0       -1.725836   -6.397227    2.397110
     99          1           0        2.698674   -1.623771   -1.669111
    100          1           0        2.654363    0.199963   -1.967746
    101          1           0        4.268793   -1.096609    0.361075
    102          1           0        4.025429    1.495909   -2.440210
    103          1           0        5.672933    2.282690   -1.936319
    104          1           0        5.518019    0.755680   -2.920426
    105          1           0        6.492554    1.511595   -0.072667
    106          1           0        6.426215   -0.085492    0.850668
    107          1           0        7.291485   -1.407091   -1.199067
    108          1           0        7.661733    0.289795   -1.990697
    109          1           0        9.131765    0.998374    0.174582
    110          1           0        8.862803   -0.448041    0.842907
    111          1           0       10.318087    0.200892   -1.773241
    112          1           0        9.435561   -2.450511   -1.660118
    113          1           0       11.096083   -2.495015   -1.700968
    114          1           0        9.974233   -2.451576   -0.130180
    115          1           0       11.392853    0.768779    0.454620
    116          1           0       11.261047   -0.640749    0.925310
    117          1           0       12.999483   -1.552322   -0.933426
    118          1           0       12.746369    0.181178   -1.506414
    119          1           0       13.888129    1.014903    0.475532
    120          1           0       14.004320   -0.745503    1.220949
    121          1           0       15.338477    0.552401   -1.362504
    122          1           0       16.004255   -2.232689   -0.139287
    123          1           0       15.105880   -1.975814   -1.869647
    124          1           0       16.717756   -1.370330   -1.499659
    125          1           0       16.224660    1.293344    0.990639
    126          1           0       16.421597   -0.197034    1.230794
    127          1           0       18.177797   -0.400896   -0.416184
    128          1           0       17.869426    1.049839   -1.153322
    129          1           0       18.496548    2.115020    0.808232
    130          1           0       19.196005    0.528685    1.749726
    131          1           0       20.748640    0.300639   -0.117711
    132          1           0       19.979383    2.914204   -1.038622
    133          1           0       21.592340    1.920260   -1.347581
    134          1           0       20.010457    1.759060   -1.990561
    135          1           0       21.348396    1.147360    2.186928
    136          1           0       22.300658    1.809169    0.948115
    137          1           0       20.893236    2.830425    1.614316
 ---------------------------------------------------------------------

 SCF Done:  E(RCAM-B3LYP) =  -2932.54387982     A.U. after   18 cycles

 Excitation energies and oscillator strengths:

 Excited State   1:      Singlet-A      1.9994 eV  620.11 nm  f=0.1858  <S**2>=0.000
     240 -> 243       -0.27757
     241 -> 242        0.64497
 This state for optimization and/or second-order correction.
 Total Energy, E(TD-HF/TD-KS) =  -2932.47040305
 Copying the excited state density for this state as the 1-particle RhoCI density.

 The electronic state is 1-A.
 Alpha  occ. eigenvalues --  -46.83267 -19.25872 -19.24228 -19.21927 -19.21060
 Alpha  occ. eigenvalues --  -19.19625 -14.42308 -14.39377 -14.39122 -14.38479
 Alpha  occ. eigenvalues --  -10.38802 -10.38186 -10.36238 -10.33434 -10.32679
 Alpha  occ. eigenvalues --  -10.31405 -10.30877 -10.29854 -10.29266 -10.29210
 Alpha  occ. eigenvalues --  -10.28911 -10.28747 -10.28395 -10.28354 -10.28173
 Alpha  occ. eigenvalues --  -10.28011 -10.27934 -10.27849 -10.27658 -10.27630
 Alpha  occ. eigenvalues --  -10.27626 -10.27606 -10.27264 -10.27219 -10.27120
 Alpha  occ. eigenvalues --  -10.27088 -10.26999 -10.26686 -10.26574 -10.26512
 Alpha  occ. eigenvalues --  -10.26499 -10.26309 -10.26253 -10.26214 -10.26165
 Alpha  occ. eigenvalues --  -10.25871 -10.25749 -10.25703 -10.25687 -10.25652
 Alpha  occ. eigenvalues --  -10.25438 -10.25424 -10.25374 -10.25288 -10.25269
 Alpha  occ. eigenvalues --  -10.25183 -10.25032 -10.24863 -10.24785 -10.24761
 Alpha  occ. eigenvalues --  -10.24682 -10.23717 -10.23672 -10.23625 -10.23567
 Alpha  occ. eigenvalues --   -3.12458  -1.87153  -1.86704  -1.86646  -1.17535
 Alpha  occ. eigenvalues --   -1.16622  -1.13029  -1.07982  -1.06588  -1.04072
 Alpha  occ. eigenvalues --   -1.03201  -1.02784  -1.01220  -0.92781  -0.92349
 Alpha  occ. eigenvalues --   -0.92063  -0.90768  -0.89704  -0.88814  -0.88683
 Alpha  occ. eigenvalues --   -0.88302  -0.87997  -0.87896  -0.86873  -0.85982
 Alpha  occ. eigenvalues --   -0.85476  -0.83945  -0.83585  -0.83186  -0.82622
 Alpha  occ. eigenvalues --   -0.81822  -0.80593  -0.80383  -0.79927  -0.77888
 Alpha  occ. eigenvalues --   -0.77716  -0.77498  -0.76733  -0.76169  -0.75506
 Alpha  occ. eigenvalues --   -0.75324  -0.74575  -0.74349  -0.73947  -0.72558
 Alpha  occ. eigenvalues --   -0.71965  -0.70113  -0.69394  -0.69143  -0.67314
 Alpha  occ. eigenvalues --   -0.66582  -0.65800  -0.65134  -0.65060  -0.64453
 Alpha  occ. eigenvalues --   -0.64106  -0.63932  -0.63877  -0.62556  -0.62352
 Alpha  occ. eigenvalues --   -0.60850  -0.60567  -0.60044  -0.59523  -0.59101
 Alpha  occ. eigenvalues --   -0.58829  -0.58356  -0.57799  -0.57229  -0.56757
 Alpha  occ. eigenvalues --   -0.56569  -0.56014  -0.55443  -0.55393  -0.54668
 Alpha  occ. eigenvalues --   -0.54418  -0.54164  -0.53776  -0.53567  -0.53283
 Alpha  occ. eigenvalues --   -0.52884  -0.52787  -0.52654  -0.52146  -0.51851
 Alpha  occ. eigenvalues --   -0.51712  -0.51449  -0.51173  -0.50849  -0.50502
 Alpha  occ. eigenvalues --   -0.50364  -0.49953  -0.49931  -0.49671  -0.49465
 Alpha  occ. eigenvalues --   -0.49342  -0.49249  -0.49080  -0.48960  -0.48792
 Alpha  occ. eigenvalues --   -0.48276  -0.47974  -0.47905  -0.47558  -0.47270
 Alpha  occ. eigenvalues --   -0.46974  -0.46891  -0.46359  -0.46230  -0.45920
 Alpha  occ. eigenvalues --   -0.45739  -0.45535  -0.45483  -0.45340  -0.45054
 Alpha  occ. eigenvalues --   -0.44948  -0.44794  -0.44478  -0.44230  -0.44091
 Alpha  occ. eigenvalues --   -0.44069  -0.43911  -0.43767  -0.43568  -0.43352
 Alpha  occ. eigenvalues --   -0.43181  -0.42832  -0.42778  -0.42542  -0.42406
 Alpha  occ. eigenvalues --   -0.42333  -0.42196  -0.41683  -0.41363  -0.41198
 Alpha  occ. eigenvalues --   -0.41107  -0.40747  -0.40626  -0.40441  -0.40160
 Alpha  occ. eigenvalues --   -0.39775  -0.39674  -0.39521  -0.39381  -0.39287
 Alpha  occ. eigenvalues --   -0.38464  -0.38365  -0.38296  -0.37639  -0.37018
 Alpha  occ. eigenvalues --   -0.36773  -0.36748  -0.36454  -0.36363  -0.36098
 Alpha  occ. eigenvalues --   -0.35870  -0.35601  -0.35395  -0.35305  -0.35185
 Alpha  occ. eigenvalues --   -0.35034  -0.34817  -0.34193  -0.33659  -0.33064
 Alpha  occ. eigenvalues --   -0.32773  -0.32296  -0.31605  -0.30944  -0.30835
 Alpha  occ. eigenvalues --   -0.30319  -0.29935  -0.28134  -0.27153  -0.22924
 Alpha  occ. eigenvalues --   -0.20833
 Alpha virt. eigenvalues --   -0.06093  -0.03237   0.01664   0.04742   0.06090
 Alpha virt. eigenvalues --    0.06430   0.06676   0.07198   0.07497   0.07637
 Alpha virt. eigenvalues --    0.08257   0.10699   0.11459   0.11660   0.11747

 Mulliken charges:
               1
     1  Mg   0.807765
     2  C    0.065245
     3  C   -0.226907
     4  C   -0.189063
     5  C   -0.065224
     6  N   -0.607891
     7  C    0.274236
     8  C   -0.182099
     9  C   -0.176424
    10  C    0.376231
    11  C   -0.310383
    12  C   -0.133630
    13  C   -0.240216
    14  C    0.578461
    15  O   -0.497976
    16  O   -0.488127
    17  N   -0.723586
    18  C    0.320626
    19  C    0.006635
    20  C   -0.032318
    21  C    0.311732
    22  C   -0.362320
    23  C   -0.060060
    24  C   -0.252273
    25  N   -0.688499
    26  C    0.326691
    27  C    0.029812
    28  C    0.025276
    29  C    0.286793
    30  C   -0.415766
    31  C   -0.221525
    32  C   -0.310814
    33  N   -0.715019
    34  C    0.202601
    35  C   -0.040974
    36  C    0.013605
    37  C    0.316444
    38  C   -0.355462
    39  C    0.412015
    40  O   -0.426584
    41  C   -0.355071
    42  C    0.579573
    43  O   -0.436010
    44  O   -0.500402
    45  C   -0.076695
    46  C    0.012460
    47  C   -0.135235
    48  C    0.099886
    49  C   -0.361994
    50  C   -0.195831
    51  C   -0.158141
    52  C   -0.172998
    53  C   -0.057366
    54  C   -0.277809
    55  C   -0.190782
    56  C   -0.183170
    57  C   -0.182305
    58  C   -0.055363
    59  C   -0.307537
    60  C   -0.179793
    61  C   -0.184364
    62  C   -0.161310
    63  C   -0.057836
    64  C   -0.291335
    65  C   -0.303877
    66  H    0.086149
    67  H    0.100266
    68  H    0.044705
    69  H    0.132072
    70  H    0.106549
    71  H    0.119708
    72  H    0.109564
    73  H    0.102176
    74  H    0.114778
    75  H    0.125950
    76  H    0.122218
    77  H    0.126423
    78  H    0.132195
    79  H    0.122316
    80  H    0.115645
    81  H    0.092850
    82  H    0.115151
    83  H    0.113717
    84  H    0.124366
    85  H    0.111441
    86  H    0.077622
    87  H    0.102568
    88  H    0.118552
    89  H    0.106840
    90  H    0.092932
    91  H    0.121574
    92  H    0.095801
    93  H    0.144307
    94  H    0.136812
    95  H    0.168640
    96  H    0.141651
    97  H    0.124297
    98  H    0.135936
    99  H    0.150974
   100  H    0.126318
   101  H    0.082351
   102  H    0.108361
   103  H    0.121330
   104  H    0.142971
   105  H    0.108206
   106  H    0.101112
   107  H    0.081019
   108  H    0.052993
   109  H    0.107916
   110  H    0.097609
   111  H    0.054244
   112  H    0.114264
   113  H    0.112871
   114  H    0.067455
   115  H    0.086291
   116  H    0.093492
   117  H    0.096342
   118  H    0.097549
   119  H    0.089193
   120  H    0.087126
   121  H    0.090423
   122  H    0.082361
   123  H    0.095433
   124  H    0.094082
   125  H    0.072088
   126  H    0.092349
   127  H    0.103898
   128  H    0.078775
   129  H    0.097999
   130  H    0.061405
   131  H    0.088847
   132  H    0.109766
   133  H    0.093793
   134  H    0.085126
   135  H    0.107932
   136  H    0.085203
   137  H    0.097040
 Sum of Mulliken charges =   0.00000

 Dipole moment (field-independent basis, Debye):
    X=              4.0202    Y=              2.8977    Z=              1.1829  Tot=              5.0948
 Quadrupole moment (field-independent basis, Debye-Ang):
   XX=           -352.2952   YY=           -394.3098   ZZ=           -396.2796
   XY=            -17.2336   XZ=              2.4270   YZ=             -3.1585

 Normal termination of Gaussian 09 at Sat Jul  6 07:01:35 2019.
