 Gaussian 16, Revision A.03,
 Gaussian 16:  ES64L-G16RevA.03 25-Dec-2016

 -------------------------------------
 # td=(NStates=1) CAM-B3LYP/6-31G(d,p)
 -------------------------------------

 --
 TD
 --
 Symbolic Z-matrix:
 Charge =  0 Multiplicity = 1

                         Standard orientation:
 ---------------------------------------------------------------------
 Center     Atomic      Atomic             Coordinates (Angstroms)
 Number     Number       Type             X           Y           Z
 ---------------------------------------------------------------------
      1         12           0       -7.352396    0.596511    0.094946
      2          6           0       -4.873936   -1.948773    0.691514
      3          6           0       -4.882541    2.796849    1.199764
      4          6           0       -9.552933    3.133149   -0.413639
      5          6           0       -9.563953   -1.745165   -0.955014
      6          7           0       -5.217565    0.433961    0.737198
      7          6           0       -4.324328   -0.649577    0.740874
      8          6           0       -2.959237   -0.346278    1.262359
      9          6           0       -3.074893    1.145804    1.621291
     10          6           0       -4.492706    1.476057    1.125053
     11          6           0       -2.891826    1.320625    3.186616
     12          6           0       -1.854706   -0.504785    0.138758
     13          6           0       -0.399871   -0.467759    0.640861
     14          6           0        0.581459   -0.720108   -0.461858
     15          8           0        0.235182   -1.035656   -1.604324
     16          8           0        1.894468   -0.520411   -0.005255
     17          7           0       -7.199634    2.630322    0.347881
     18          6           0       -6.161426    3.376130    0.821150
     19          6           0       -6.509680    4.753140    0.798093
     20          6           0       -7.814919    4.805562    0.332112
     21          6           0       -8.287252    3.522915    0.057768
     22          6           0       -5.612316    5.811387    1.196493
     23          6           0       -8.686097    6.017252    0.147168
     24          6           0       -8.500664    7.213252    0.725189
     25          7           0       -9.228974    0.628258   -0.448554
     26          6           0       -9.817210    1.749074   -0.729573
     27          6           0      -11.190648    1.468220   -1.204542
     28          6           0      -11.279654    0.062345   -1.397814
     29          6           0       -9.952879   -0.428086   -0.899049
     30          6           0      -12.263298    2.394217   -1.617101
     31          6           0      -12.394230   -0.774820   -1.894858
     32          6           0      -12.299056   -1.157766   -3.287184
     33          7           0       -7.220353   -1.416222   -0.204081
     34          6           0       -8.219470   -2.260360   -0.591835
     35          6           0       -7.747580   -3.638905   -0.590303
     36          6           0       -6.478933   -3.570955   -0.077476
     37          6           0       -6.243040   -2.170980    0.107617
     38          6           0       -8.519733   -4.815564   -0.971262
     39          6           0       -5.238693   -4.360750    0.260366
     40          8           0       -5.147866   -5.612564    0.171117
     41          6           0       -4.132884   -3.372773    0.609473
     42          6           0       -3.461325   -3.609067    2.031080
     43          8           0       -3.668467   -3.012324    3.024577
     44          8           0       -2.654772   -4.664334    1.928645
     45          6           0       -2.166427   -5.258581    3.154339
     46          6           0        2.852041   -0.852065   -1.046705
     47          6           0        4.212306   -0.420803   -0.452698
     48          6           0        5.183835    0.350673   -1.058270
     49          6           0        5.148819    1.066697   -2.325021
     50          6           0        6.502293    0.471512   -0.281965
     51          6           0        7.642930   -0.151155   -1.004063
     52          6           0        8.863778   -0.147577   -0.261371
     53          6           0       10.200734   -0.471042   -1.023466
     54          6           0       10.115111   -1.935421   -1.480887
     55          6           0       11.474482   -0.266395   -0.094983
     56          6           0       12.847068   -0.508480   -0.742904
     57          6           0       14.086367   -0.110303    0.132325
     58          6           0       15.355405   -0.238597   -0.461227
     59          6           0       15.754921   -1.698685   -0.788901
     60          6           0       16.432697    0.382444    0.453566
     61          6           0       17.818398    0.502062   -0.173682
     62          6           0       18.826172    1.294423    0.781712
     63          6           0       20.280643    1.385679    0.235973
     64          6           0       20.300326    2.189144   -1.184851
     65          6           0       21.124103    2.056945    1.200874
     66          1           0       -4.302585    3.597551    1.495480
     67          1           0      -10.226082    3.977667   -0.522401
     68          1           0      -10.399338   -2.539662   -1.157116
     69          1           0       -2.610672   -0.917301    2.010094
     70          1           0       -2.422180    1.947175    1.198390
     71          1           0       -1.750924    1.206604    3.364421
     72          1           0       -3.436192    2.277506    3.654616
     73          1           0       -3.304536    0.405789    3.465806
     74          1           0       -1.941583   -1.402029   -0.402686
     75          1           0       -2.056985    0.301134   -0.595948
     76          1           0       -0.106810    0.637469    0.918817
     77          1           0       -0.189369   -1.108297    1.377318
     78          1           0       -5.991829    6.893058    1.044533
     79          1           0       -5.410729    5.737361    2.435438
     80          1           0       -4.733339    5.665312    0.754918
     81          1           0       -9.570837    5.820553   -0.399686
     82          1           0       -9.276650    7.979647    0.592945
     83          1           0       -7.752748    7.333533    1.552140
     84          1           0      -11.825505    2.906393   -2.360481
     85          1           0      -13.278616    1.911667   -1.778786
     86          1           0      -12.514556    2.968979   -0.651180
     87          1           0      -12.326219   -1.641138   -1.221643
     88          1           0      -13.366190   -0.368325   -1.698305
     89          1           0      -13.301953   -1.647389   -3.646196
     90          1           0      -11.783908   -0.301041   -3.881906
     91          1           0      -11.426329   -2.015362   -3.389263
     92          1           0       -8.718634   -4.769409   -1.969241
     93          1           0       -7.863582   -5.603801   -0.848568
     94          1           0       -9.332338   -4.941864   -0.320929
     95          1           0       -3.408257   -3.267069   -0.095718
     96          1           0       -1.698517   -4.269468    3.641953
     97          1           0       -3.133024   -5.470164    3.773502
     98          1           0       -1.433872   -5.860765    2.841615
     99          1           0        2.797244   -1.914370   -1.362716
    100          1           0        2.754960   -0.236440   -1.988597
    101          1           0        4.505486   -1.047075    0.404680
    102          1           0        4.149690    1.191342   -2.616274
    103          1           0        5.211835    2.199537   -1.883903
    104          1           0        5.943036    0.728363   -2.886179
    105          1           0        6.742418    1.545406   -0.074572
    106          1           0        6.541592    0.041596    0.716141
    107          1           0        7.237313   -1.131711   -1.080847
    108          1           0        7.900353    0.257878   -1.906429
    109          1           0        9.201632    0.841450    0.290668
    110          1           0        8.884111   -0.829719    0.549809
    111          1           0       10.316028    0.465466   -1.839627
    112          1           0        9.088829   -1.988126   -1.815375
    113          1           0       10.843722   -2.182436   -2.281431
    114          1           0       10.345898   -2.530960   -0.616747
    115          1           0       11.546689    0.847920    0.141365
    116          1           0       11.254476   -0.897861    0.915381
    117          1           0       12.885073   -1.546412   -0.944226
    118          1           0       12.939702    0.039849   -1.704952
    119          1           0       13.841008    0.838843    0.544700
    120          1           0       14.241750   -0.952959    1.121405
    121          1           0       15.358421    0.518951   -1.254253
    122          1           0       15.923260   -2.340022    0.048374
    123          1           0       14.934033   -2.168103   -1.398834
    124          1           0       16.644758   -1.786935   -1.369734
    125          1           0       16.186846    1.333698    0.904374
    126          1           0       16.485306   -0.290299    1.392595
    127          1           0       18.274995   -0.429298   -0.377447
    128          1           0       17.503583    1.146877   -1.114278
    129          1           0       18.425100    2.401848    1.081813
    130          1           0       18.739534    0.928537    1.839353
    131          1           0       20.636631    0.280167   -0.169141
    132          1           0       19.964700    3.153950   -0.970829
    133          1           0       21.315704    2.146846   -1.568343
    134          1           0       19.663072    1.727977   -1.978494
    135          1           0       21.024055    1.695160    2.250620
    136          1           0       22.366822    2.202916    1.139829
    137          1           0       20.768037    3.099905    1.316354
 ---------------------------------------------------------------------

 SCF Done:  E(RCAM-B3LYP) =  -2932.70503560     A.U. after   18 cycles

 Excitation energies and oscillator strengths:

 Excited State   1:      Singlet-A      2.0299 eV  610.78 nm  f=0.2637  <S**2>=0.000
     240 -> 242       -0.14895
     240 -> 243        0.21344
     241 -> 242        0.64566
 This state for optimization and/or second-order correction.
 Total Energy, E(TD-HF/TD-DFT) =  -2932.63043749
 Copying the excited state density for this state as the 1-particle RhoCI density.

 The electronic state is 1-A.
 Alpha  occ. eigenvalues --  -46.84473 -19.26708 -19.25727 -19.21696 -19.21665
 Alpha  occ. eigenvalues --  -19.19985 -14.41462 -14.40052 -14.39378 -14.38744
 Alpha  occ. eigenvalues --  -10.39646 -10.39352 -10.35458 -10.32247 -10.32134
 Alpha  occ. eigenvalues --  -10.30259 -10.30237 -10.30154 -10.29621 -10.29195
 Alpha  occ. eigenvalues --  -10.29095 -10.28974 -10.28846 -10.28678 -10.28238
 Alpha  occ. eigenvalues --  -10.28054 -10.27773 -10.27764 -10.27576 -10.27524
 Alpha  occ. eigenvalues --  -10.27343 -10.27326 -10.27323 -10.27245 -10.26906
 Alpha  occ. eigenvalues --  -10.26881 -10.26871 -10.26700 -10.26682 -10.26547
 Alpha  occ. eigenvalues --  -10.26529 -10.26520 -10.26471 -10.26315 -10.26232
 Alpha  occ. eigenvalues --  -10.26209 -10.26065 -10.25943 -10.25921 -10.25807
 Alpha  occ. eigenvalues --  -10.25805 -10.25778 -10.25634 -10.25566 -10.25390
 Alpha  occ. eigenvalues --  -10.25124 -10.24870 -10.24775 -10.24636 -10.24541
 Alpha  occ. eigenvalues --  -10.24487 -10.24362 -10.24135 -10.23952 -10.22954
 Alpha  occ. eigenvalues --   -3.13577  -1.88277  -1.87842  -1.87734  -1.19373
 Alpha  occ. eigenvalues --   -1.16461  -1.10814  -1.08830  -1.08342  -1.05788
 Alpha  occ. eigenvalues --   -1.04894  -1.03730  -1.02250  -0.92500  -0.91407
 Alpha  occ. eigenvalues --   -0.90911  -0.90076  -0.89629  -0.89261  -0.88879
 Alpha  occ. eigenvalues --   -0.88590  -0.88274  -0.87887  -0.86887  -0.86242
 Alpha  occ. eigenvalues --   -0.85525  -0.84636  -0.84057  -0.83177  -0.83037
 Alpha  occ. eigenvalues --   -0.81757  -0.81234  -0.80343  -0.80122  -0.78351
 Alpha  occ. eigenvalues --   -0.77876  -0.77312  -0.76506  -0.76093  -0.75899
 Alpha  occ. eigenvalues --   -0.75427  -0.75015  -0.73859  -0.72929  -0.72107
 Alpha  occ. eigenvalues --   -0.70912  -0.70376  -0.68987  -0.68845  -0.67926
 Alpha  occ. eigenvalues --   -0.66670  -0.66360  -0.65700  -0.64353  -0.63997
 Alpha  occ. eigenvalues --   -0.63655  -0.62943  -0.62760  -0.61967  -0.61798
 Alpha  occ. eigenvalues --   -0.61306  -0.60561  -0.59916  -0.59579  -0.58934
 Alpha  occ. eigenvalues --   -0.58691  -0.58432  -0.58141  -0.57685  -0.56952
 Alpha  occ. eigenvalues --   -0.56568  -0.56206  -0.56090  -0.55527  -0.55139
 Alpha  occ. eigenvalues --   -0.55113  -0.54691  -0.53944  -0.53386  -0.53243
 Alpha  occ. eigenvalues --   -0.53152  -0.52950  -0.52655  -0.52259  -0.52120
 Alpha  occ. eigenvalues --   -0.52028  -0.51649  -0.51575  -0.51305  -0.50950
 Alpha  occ. eigenvalues --   -0.50614  -0.50481  -0.50396  -0.50050  -0.49881
 Alpha  occ. eigenvalues --   -0.49643  -0.49479  -0.49157  -0.48734  -0.48604
 Alpha  occ. eigenvalues --   -0.48485  -0.48291  -0.48100  -0.47715  -0.47581
 Alpha  occ. eigenvalues --   -0.47523  -0.47397  -0.46858  -0.46678  -0.46386
 Alpha  occ. eigenvalues --   -0.46107  -0.46040  -0.45596  -0.45535  -0.45191
 Alpha  occ. eigenvalues --   -0.44879  -0.44680  -0.44464  -0.44400  -0.44351
 Alpha  occ. eigenvalues --   -0.44192  -0.43852  -0.43722  -0.43701  -0.43241
 Alpha  occ. eigenvalues --   -0.43124  -0.42886  -0.42679  -0.42375  -0.41920
 Alpha  occ. eigenvalues --   -0.41858  -0.41697  -0.41685  -0.41352  -0.41195
 Alpha  occ. eigenvalues --   -0.40822  -0.40634  -0.40392  -0.40207  -0.39993
 Alpha  occ. eigenvalues --   -0.39864  -0.39692  -0.39688  -0.39384  -0.39291
 Alpha  occ. eigenvalues --   -0.38747  -0.38665  -0.38515  -0.38195  -0.37532
 Alpha  occ. eigenvalues --   -0.37334  -0.36802  -0.36716  -0.36568  -0.36294
 Alpha  occ. eigenvalues --   -0.36169  -0.36126  -0.35829  -0.35623  -0.35420
 Alpha  occ. eigenvalues --   -0.35175  -0.34735  -0.34532  -0.34302  -0.33961
 Alpha  occ. eigenvalues --   -0.33871  -0.33351  -0.31417  -0.30393  -0.29969
 Alpha  occ. eigenvalues --   -0.29690  -0.29348  -0.28187  -0.27076  -0.22584
 Alpha  occ. eigenvalues --   -0.21191
 Alpha virt. eigenvalues --   -0.06761  -0.02378   0.01779   0.04053   0.05353
 Alpha virt. eigenvalues --    0.05647   0.06169   0.06584   0.06776   0.07634
 Alpha virt. eigenvalues --    0.07966   0.10434   0.11159   0.11912   0.12194

 Mulliken charges:
               1
     1  Mg   0.840901
     2  C    0.008983
     3  C   -0.184921
     4  C   -0.155119
     5  C   -0.180242
     6  N   -0.592091
     7  C    0.263793
     8  C   -0.161016
     9  C   -0.142370
    10  C    0.368375
    11  C   -0.308282
    12  C   -0.179365
    13  C   -0.260765
    14  C    0.612858
    15  O   -0.472443
    16  O   -0.487967
    17  N   -0.743192
    18  C    0.308447
    19  C    0.038921
    20  C   -0.005611
    21  C    0.288379
    22  C   -0.378300
    23  C   -0.045325
    24  C   -0.260855
    25  N   -0.711493
    26  C    0.321342
    27  C   -0.032135
    28  C    0.015151
    29  C    0.300971
    30  C   -0.361391
    31  C   -0.224637
    32  C   -0.288719
    33  N   -0.683178
    34  C    0.227816
    35  C   -0.026101
    36  C    0.004394
    37  C    0.281001
    38  C   -0.366858
    39  C    0.391637
    40  O   -0.481875
    41  C   -0.287602
    42  C    0.602104
    43  O   -0.439695
    44  O   -0.456755
    45  C   -0.074847
    46  C    0.006474
    47  C   -0.144218
    48  C    0.092961
    49  C   -0.343158
    50  C   -0.222987
    51  C   -0.163877
    52  C   -0.180247
    53  C   -0.066730
    54  C   -0.305262
    55  C   -0.170812
    56  C   -0.182412
    57  C   -0.134763
    58  C   -0.043871
    59  C   -0.321835
    60  C   -0.182654
    61  C   -0.162092
    62  C   -0.174384
    63  C   -0.042632
    64  C   -0.312083
    65  C   -0.299729
    66  H    0.057687
    67  H    0.103117
    68  H    0.105578
    69  H    0.120237
    70  H    0.105184
    71  H    0.098089
    72  H    0.104043
    73  H    0.141845
    74  H    0.122008
    75  H    0.113794
    76  H    0.127986
    77  H    0.142304
    78  H    0.115588
    79  H    0.091196
    80  H    0.136411
    81  H    0.084726
    82  H    0.103121
    83  H    0.110138
    84  H    0.138009
    85  H    0.112417
    86  H    0.107768
    87  H    0.105955
    88  H    0.109029
    89  H    0.100135
    90  H    0.111063
    91  H    0.078735
    92  H    0.129287
    93  H    0.147627
    94  H    0.127906
    95  H    0.172023
    96  H    0.109977
    97  H    0.144114
    98  H    0.141650
    99  H    0.128096
   100  H    0.112869
   101  H    0.088143
   102  H    0.129437
   103  H    0.100959
   104  H    0.139949
   105  H    0.089275
   106  H    0.103150
   107  H    0.112021
   108  H    0.100875
   109  H    0.072588
   110  H    0.091438
   111  H    0.048073
   112  H    0.105223
   113  H    0.104265
   114  H    0.109945
   115  H    0.076273
   116  H    0.070508
   117  H    0.103395
   118  H    0.089639
   119  H    0.092313
   120  H    0.028128
   121  H    0.078958
   122  H    0.113795
   123  H    0.097846
   124  H    0.110769
   125  H    0.090987
   126  H    0.066329
   127  H    0.106795
   128  H    0.082525
   129  H    0.061052
   130  H    0.093853
   131  H    0.063246
   132  H    0.107235
   133  H    0.104182
   134  H    0.099791
   135  H    0.101151
   136  H    0.075566
   137  H    0.103002
 Sum of Mulliken charges =  -0.00000

 Dipole moment (field-independent basis, Debye):
    X=              1.1027    Y=              4.0120    Z=              0.3376  Tot=              4.1744
 Quadrupole moment (field-independent basis, Debye-Ang):
   XX=           -346.0811   YY=           -394.7939   ZZ=           -399.4590
   XY=            -25.7270   XZ=              6.3598   YZ=             -3.4495

 Normal termination of Gaussian 16 at Thu Jun 27 03:35:40 2019.
