 Gaussian 16, Revision A.03,
 Gaussian 16:  ES64L-G16RevA.03 25-Dec-2016

 ----------------------------------------------------------------------
 # td=(NStates=1) iop(3/107=0140000000,3/108=0140000000) CAM-B3LYP/6-31
 G(d,p)
 ----------------------------------------------------------------------

 --
 TD
 --
 Symbolic Z-matrix:
 Charge =  0 Multiplicity = 1

                         Standard orientation:
 ---------------------------------------------------------------------
 Center     Atomic      Atomic             Coordinates (Angstroms)
 Number     Number       Type             X           Y           Z
 ---------------------------------------------------------------------
      1         12           0       -7.096827    0.625347    0.020484
      2          6           0       -4.938898   -1.999738    0.408979
      3          6           0       -4.641278    2.843460    1.086770
      4          6           0       -9.306888    3.196139   -0.367222
      5          6           0       -9.670090   -1.691345   -0.866122
      6          7           0       -5.003789    0.385484    0.634276
      7          6           0       -4.327673   -0.736245    0.758073
      8          6           0       -2.971234   -0.564452    1.141473
      9          6           0       -2.976269    0.953842    1.653500
     10          6           0       -4.276410    1.539367    1.045650
     11          6           0       -2.826261    1.063019    3.222650
     12          6           0       -1.892715   -0.602012    0.063860
     13          6           0       -0.510668   -0.623102    0.521452
     14          6           0        0.505178   -0.827197   -0.654293
     15          8           0        0.152514   -1.068910   -1.774631
     16          8           0        1.659953   -0.552180   -0.228770
     17          7           0       -6.947462    2.621523    0.267989
     18          6           0       -5.945864    3.265529    0.740569
     19          6           0       -6.256003    4.702075    0.870180
     20          6           0       -7.566045    4.851561    0.379095
     21          6           0       -8.006223    3.560668    0.067313
     22          6           0       -5.283018    5.776261    1.207436
     23          6           0       -8.391344    6.032198    0.320124
     24          6           0       -8.232877    7.189458    0.849679
     25          7           0       -9.091258    0.656799   -0.543717
     26          6           0       -9.836444    1.897043   -0.623806
     27          6           0      -11.038373    1.620978   -1.211706
     28          6           0      -11.209539    0.299231   -1.289470
     29          6           0       -9.904923   -0.310976   -0.928395
     30          6           0      -12.138713    2.671246   -1.299142
     31          6           0      -12.349519   -0.601532   -1.671889
     32          6           0      -12.313434   -0.939157   -3.192308
     33          7           0       -7.301423   -1.336988   -0.143916
     34          6           0       -8.404230   -2.182945   -0.480628
     35          6           0       -7.956971   -3.663500   -0.480091
     36          6           0       -6.565682   -3.552955   -0.175798
     37          6           0       -6.235061   -2.206778    0.059306
     38          6           0       -8.706902   -4.782993   -0.849204
     39          6           0       -5.406785   -4.316091    0.111468
     40          8           0       -5.284019   -5.540250    0.109595
     41          6           0       -4.243136   -3.398568    0.500355
     42          6           0       -3.679578   -3.690412    1.858074
     43          8           0       -3.868490   -3.158608    2.906121
     44          8           0       -2.876581   -4.738089    1.813753
     45          6           0       -2.377781   -5.272238    3.092349
     46          6           0        2.663590   -0.682640   -1.157234
     47          6           0        4.050515   -0.360068   -0.513500
     48          6           0        5.086202    0.480725   -0.879037
     49          6           0        5.032062    1.378151   -2.109352
     50          6           0        6.421579    0.491084   -0.070265
     51          6           0        7.594795   -0.128772   -0.902550
     52          6           0        8.939603   -0.186612   -0.058911
     53          6           0       10.163199   -0.702691   -0.909476
     54          6           0       10.061439   -2.030157   -1.355460
     55          6           0       11.450811   -0.342960   -0.030023
     56          6           0       12.784157   -0.519097   -0.661155
     57          6           0       13.963052   -0.093005    0.088363
     58          6           0       15.312954   -0.135407   -0.511169
     59          6           0       15.623545   -1.595801   -1.151871
     60          6           0       16.378336    0.312451    0.399509
     61          6           0       17.854258    0.388825   -0.151114
     62          6           0       18.815379    1.091403    0.811440
     63          6           0       20.281834    1.350902    0.269201
     64          6           0       20.306306    2.270607   -1.030396
     65          6           0       21.166001    1.937357    1.342944
     66          1           0       -3.924355    3.451385    1.499525
     67          1           0       -9.908532    3.975007   -0.735187
     68          1           0      -10.432499   -2.221879   -1.274710
     69          1           0       -2.560165   -1.076179    1.977132
     70          1           0       -2.049296    1.463675    1.310785
     71          1           0       -1.791127    0.567669    3.413982
     72          1           0       -2.944353    2.216523    3.400686
     73          1           0       -3.686943    0.562381    3.863766
     74          1           0       -2.190515   -1.624441   -0.498030
     75          1           0       -1.948620    0.154230   -0.562077
     76          1           0       -0.318119    0.258859    1.199215
     77          1           0       -0.540878   -1.408311    1.130120
     78          1           0       -5.583609    6.783543    0.912076
     79          1           0       -5.395824    5.905411    2.376494
     80          1           0       -4.459909    5.697603    1.006243
     81          1           0       -9.004222    6.017139   -0.604337
     82          1           0       -8.754080    7.915900    0.708960
     83          1           0       -7.576842    7.107989    1.682421
     84          1           0      -11.860885    3.316347   -2.162414
     85          1           0      -13.100415    2.335936   -1.591122
     86          1           0      -11.930947    3.209199   -0.385700
     87          1           0      -12.519034   -1.537243   -1.033094
     88          1           0      -13.161870   -0.061643   -1.458462
     89          1           0      -13.013178   -1.772157   -3.461405
     90          1           0      -12.547176    0.037763   -3.651727
     91          1           0      -11.278381   -1.264045   -3.653981
     92          1           0       -9.275150   -4.480876   -1.829028
     93          1           0       -8.031040   -5.525205   -0.905421
     94          1           0       -9.410672   -5.044229   -0.106436
     95          1           0       -3.396173   -3.476361   -0.234471
     96          1           0       -1.840607   -4.690520    3.625838
     97          1           0       -3.329460   -5.284716    3.645313
     98          1           0       -1.736721   -6.322409    2.839349
     99          1           0        2.714511   -1.671650   -1.558523
    100          1           0        2.609358   -0.084490   -2.022960
    101          1           0        4.249882   -1.026438    0.443140
    102          1           0        4.013266    1.445665   -2.490153
    103          1           0        5.516945    2.362296   -1.925164
    104          1           0        5.604676    1.028032   -2.884194
    105          1           0        6.564686    1.483605    0.241715
    106          1           0        6.468924   -0.325141    0.654881
    107          1           0        7.467907   -1.121467   -1.261166
    108          1           0        8.050897    0.512209   -1.882709
    109          1           0        9.216337    0.771570    0.426714
    110          1           0        8.863469   -0.689408    0.778689
    111          1           0       10.228935    0.017171   -1.677139
    112          1           0        9.148579   -2.338561   -1.951019
    113          1           0       10.896085   -2.572414   -2.054761
    114          1           0       10.093681   -2.815507   -0.495862
    115          1           0       11.330443    0.758944    0.328471
    116          1           0       11.488401   -0.792157    1.087377
    117          1           0       12.811540   -1.702043   -0.898436
    118          1           0       12.681301    0.010319   -1.694426
    119          1           0       13.799460    0.828329    0.658085
    120          1           0       13.954115   -0.771395    0.867210
    121          1           0       15.203510    0.583031   -1.497167
    122          1           0       15.678901   -2.350609   -0.337089
    123          1           0       14.755711   -1.763323   -1.871895
    124          1           0       16.712600   -1.572176   -1.515487
    125          1           0       15.826805    1.357200    0.687218
    126          1           0       16.127691   -0.344358    1.199406
    127          1           0       18.225293   -0.529732   -0.288708
    128          1           0       17.746317    0.916451   -1.170457
    129          1           0       18.262661    2.217656    0.948510
    130          1           0       18.902105    0.582866    1.680521
    131          1           0       20.599364    0.201988    0.033934
    132          1           0       19.783335    3.351414   -0.810809
    133          1           0       21.316689    2.456382   -1.306070
    134          1           0       19.714278    1.890650   -1.943385
    135          1           0       20.886762    1.648571    2.429019
    136          1           0       22.077420    2.025188    1.154747
    137          1           0       20.803376    2.962596    1.387533
 ---------------------------------------------------------------------

 SCF Done:  E(RCAM-B3LYP) =  -2933.39668724     A.U. after   16 cycles

 Excitation energies and oscillator strengths:

 Excited State   1:      Singlet-A      1.9818 eV  625.60 nm  f=0.2342  <S**2>=0.000
     240 -> 243       -0.23415
     241 -> 242        0.66044
 This state for optimization and/or second-order correction.
 Total Energy, E(TD-HF/TD-DFT) =  -2933.32385583
 Copying the excited state density for this state as the 1-particle RhoCI density.

 The electronic state is 1-A.
 Alpha  occ. eigenvalues --  -46.79299 -19.24418 -19.21005 -19.16695 -19.15849
 Alpha  occ. eigenvalues --  -19.15273 -14.37438 -14.35255 -14.35152 -14.34048
 Alpha  occ. eigenvalues --  -10.34742 -10.33687 -10.29647 -10.27767 -10.26923
 Alpha  occ. eigenvalues --  -10.26418 -10.26114 -10.25736 -10.25102 -10.24459
 Alpha  occ. eigenvalues --  -10.24302 -10.24283 -10.24209 -10.24156 -10.23599
 Alpha  occ. eigenvalues --  -10.23540 -10.23477 -10.23320 -10.23221 -10.23145
 Alpha  occ. eigenvalues --  -10.23099 -10.22802 -10.22733 -10.22456 -10.22353
 Alpha  occ. eigenvalues --  -10.22221 -10.22083 -10.22010 -10.21959 -10.21924
 Alpha  occ. eigenvalues --  -10.21894 -10.21766 -10.21638 -10.21593 -10.21568
 Alpha  occ. eigenvalues --  -10.21439 -10.21395 -10.21351 -10.21287 -10.21260
 Alpha  occ. eigenvalues --  -10.21240 -10.21175 -10.21166 -10.21146 -10.21109
 Alpha  occ. eigenvalues --  -10.21054 -10.20995 -10.20949 -10.20475 -10.20379
 Alpha  occ. eigenvalues --  -10.20299 -10.19707 -10.19447 -10.19096 -10.18365
 Alpha  occ. eigenvalues --   -3.07929  -1.82872  -1.82404  -1.82331  -1.18823
 Alpha  occ. eigenvalues --   -1.13827  -1.06441  -1.04963  -1.03795  -0.99340
 Alpha  occ. eigenvalues --   -0.98502  -0.97322  -0.96089  -0.87517  -0.86575
 Alpha  occ. eigenvalues --   -0.86258  -0.85416  -0.85014  -0.84342  -0.83968
 Alpha  occ. eigenvalues --   -0.83536  -0.83208  -0.83174  -0.82361  -0.81534
 Alpha  occ. eigenvalues --   -0.80219  -0.80023  -0.79329  -0.78778  -0.78327
 Alpha  occ. eigenvalues --   -0.77275  -0.77112  -0.76101  -0.75930  -0.74655
 Alpha  occ. eigenvalues --   -0.73533  -0.72318  -0.72209  -0.71773  -0.71008
 Alpha  occ. eigenvalues --   -0.70693  -0.70391  -0.69900  -0.69611  -0.67806
 Alpha  occ. eigenvalues --   -0.67013  -0.65809  -0.64993  -0.64857  -0.64334
 Alpha  occ. eigenvalues --   -0.63760  -0.63258  -0.62254  -0.61110  -0.61012
 Alpha  occ. eigenvalues --   -0.60718  -0.60004  -0.58660  -0.58441  -0.57582
 Alpha  occ. eigenvalues --   -0.57397  -0.57039  -0.56948  -0.55718  -0.55459
 Alpha  occ. eigenvalues --   -0.55380  -0.55116  -0.54325  -0.53533  -0.53310
 Alpha  occ. eigenvalues --   -0.52777  -0.52221  -0.51719  -0.51664  -0.51257
 Alpha  occ. eigenvalues --   -0.51005  -0.50632  -0.50512  -0.50068  -0.49583
 Alpha  occ. eigenvalues --   -0.49439  -0.49183  -0.48621  -0.48387  -0.48363
 Alpha  occ. eigenvalues --   -0.48200  -0.47863  -0.47530  -0.47466  -0.47340
 Alpha  occ. eigenvalues --   -0.47114  -0.46766  -0.46582  -0.46550  -0.46256
 Alpha  occ. eigenvalues --   -0.46213  -0.45713  -0.45611  -0.45350  -0.45005
 Alpha  occ. eigenvalues --   -0.44647  -0.44473  -0.44258  -0.44149  -0.43751
 Alpha  occ. eigenvalues --   -0.43634  -0.43500  -0.42995  -0.42934  -0.42778
 Alpha  occ. eigenvalues --   -0.42510  -0.42360  -0.42291  -0.41970  -0.41744
 Alpha  occ. eigenvalues --   -0.41593  -0.41174  -0.41123  -0.40926  -0.40848
 Alpha  occ. eigenvalues --   -0.40499  -0.40434  -0.40386  -0.40218  -0.40127
 Alpha  occ. eigenvalues --   -0.40059  -0.39666  -0.39260  -0.39093  -0.38995
 Alpha  occ. eigenvalues --   -0.38769  -0.38526  -0.38457  -0.37984  -0.37889
 Alpha  occ. eigenvalues --   -0.37740  -0.37619  -0.37284  -0.37265  -0.37159
 Alpha  occ. eigenvalues --   -0.37039  -0.36915  -0.36732  -0.36547  -0.36097
 Alpha  occ. eigenvalues --   -0.35790  -0.35600  -0.35284  -0.35176  -0.34481
 Alpha  occ. eigenvalues --   -0.34372  -0.34315  -0.34130  -0.33726  -0.33503
 Alpha  occ. eigenvalues --   -0.32668  -0.32571  -0.32388  -0.32344  -0.32135
 Alpha  occ. eigenvalues --   -0.32033  -0.31646  -0.31580  -0.31119  -0.30752
 Alpha  occ. eigenvalues --   -0.29903  -0.29720  -0.29413  -0.28291  -0.27126
 Alpha  occ. eigenvalues --   -0.26688  -0.26441  -0.25442  -0.24873  -0.21559
 Alpha  occ. eigenvalues --   -0.19414
 Alpha virt. eigenvalues --   -0.06747  -0.03756  -0.00223   0.03064   0.03876
 Alpha virt. eigenvalues --    0.04626   0.04839   0.05201   0.05782   0.05953
 Alpha virt. eigenvalues --    0.06458   0.09031   0.09187   0.09599   0.10394

 Mulliken charges:
               1
     1  Mg   0.802602
     2  C    0.017349
     3  C   -0.144920
     4  C   -0.166519
     5  C   -0.147536
     6  N   -0.655426
     7  C    0.397143
     8  C   -0.176176
     9  C   -0.182423
    10  C    0.325936
    11  C   -0.290393
    12  C   -0.144433
    13  C   -0.279678
    14  C    0.599073
    15  O   -0.468885
    16  O   -0.374844
    17  N   -0.717757
    18  C    0.354100
    19  C   -0.043584
    20  C    0.036282
    21  C    0.258706
    22  C   -0.327999
    23  C   -0.068891
    24  C   -0.193553
    25  N   -0.692026
    26  C    0.257156
    27  C    0.020461
    28  C    0.013787
    29  C    0.319041
    30  C   -0.372803
    31  C   -0.252591
    32  C   -0.302216
    33  N   -0.736382
    34  C    0.264029
    35  C    0.036052
    36  C    0.059250
    37  C    0.328530
    38  C   -0.386529
    39  C    0.334450
    40  O   -0.478173
    41  C   -0.310341
    42  C    0.616558
    43  O   -0.478830
    44  O   -0.443038
    45  C   -0.075535
    46  C   -0.007086
    47  C   -0.162303
    48  C    0.113757
    49  C   -0.371911
    50  C   -0.211843
    51  C   -0.182812
    52  C   -0.185910
    53  C   -0.031115
    54  C   -0.308483
    55  C   -0.186212
    56  C   -0.160526
    57  C   -0.153792
    58  C   -0.055740
    59  C   -0.320552
    60  C   -0.149614
    61  C   -0.176445
    62  C   -0.147565
    63  C   -0.045592
    64  C   -0.308231
    65  C   -0.296588
    66  H    0.079440
    67  H    0.087574
    68  H    0.074950
    69  H    0.118162
    70  H    0.092357
    71  H    0.099334
    72  H    0.093649
    73  H    0.118136
    74  H    0.083117
    75  H    0.117275
    76  H    0.114884
    77  H    0.134273
    78  H    0.118712
    79  H    0.096051
    80  H    0.099652
    81  H    0.073204
    82  H    0.073664
    83  H    0.087368
    84  H    0.112913
    85  H    0.114070
    86  H    0.132644
    87  H    0.096882
    88  H    0.109504
    89  H    0.100492
    90  H    0.109983
    91  H    0.099205
    92  H    0.120323
    93  H    0.155929
    94  H    0.143382
    95  H    0.161315
    96  H    0.140403
    97  H    0.135032
    98  H    0.109325
    99  H    0.133784
   100  H    0.121625
   101  H    0.069302
   102  H    0.113912
   103  H    0.108922
   104  H    0.140847
   105  H    0.115890
   106  H    0.113299
   107  H    0.115917
   108  H    0.052584
   109  H    0.082676
   110  H    0.101806
   111  H    0.100657
   112  H    0.102392
   113  H    0.086475
   114  H    0.093901
   115  H    0.074069
   116  H    0.059491
   117  H    0.077525
   118  H    0.071438
   119  H    0.083771
   120  H    0.098056
   121  H    0.042200
   122  H    0.092012
   123  H    0.109057
   124  H    0.096080
   125  H    0.065234
   126  H    0.091142
   127  H    0.106571
   128  H    0.093266
   129  H    0.049893
   130  H    0.101057
   131  H    0.054689
   132  H    0.080352
   133  H    0.112487
   134  H    0.100100
   135  H    0.090164
   136  H    0.110344
   137  H    0.103348
 Sum of Mulliken charges =  -0.00000

 Dipole moment (field-independent basis, Debye):
    X=              2.9956    Y=              3.0108    Z=              0.5727  Tot=              4.2856
 Quadrupole moment (field-independent basis, Debye-Ang):
   XX=           -341.4450   YY=           -395.1440   ZZ=           -397.5575
   XY=            -12.9242   XZ=             16.4866   YZ=             -4.2617

 Normal termination of Gaussian 16 at Wed Sep 11 23:33:43 2019.
