 Gaussian 16, Revision A.03,
 Gaussian 16:  ES64L-G16RevA.03 25-Dec-2016

 ----------------------------------------------------------------------
 # td=(NStates=1) iop(3/107=0140000000,3/108=0140000000) CAM-B3LYP/6-31
 G(d,p)
 ----------------------------------------------------------------------

 --
 TD
 --
 Symbolic Z-matrix:
 Charge =  0 Multiplicity = 1

                         Standard orientation:
 ---------------------------------------------------------------------
 Center     Atomic      Atomic             Coordinates (Angstroms)
 Number     Number       Type             X           Y           Z
 ---------------------------------------------------------------------
      1         12           0       -7.264107    0.605575    0.056313
      2          6           0       -4.902794   -1.865488    0.551551
      3          6           0       -4.762857    2.875822    1.075287
      4          6           0       -9.457133    3.072976   -0.476871
      5          6           0       -9.550335   -1.823373   -0.982927
      6          7           0       -5.099062    0.526988    0.685496
      7          6           0       -4.348342   -0.607277    0.660425
      8          6           0       -2.916603   -0.282871    1.174537
      9          6           0       -3.020475    1.178314    1.651159
     10          6           0       -4.414961    1.569520    1.141955
     11          6           0       -2.945277    1.348620    3.165503
     12          6           0       -1.953485   -0.618821    0.054336
     13          6           0       -0.498782   -0.383562    0.549405
     14          6           0        0.630924   -0.588126   -0.547531
     15          8           0        0.423871   -0.884231   -1.732893
     16          8           0        1.895530   -0.470309   -0.017756
     17          7           0       -7.185971    2.635435    0.286520
     18          6           0       -6.099451    3.436166    0.653292
     19          6           0       -6.429290    4.843346    0.670627
     20          6           0       -7.748703    4.832198    0.279061
     21          6           0       -8.130013    3.554720   -0.040988
     22          6           0       -5.551006    5.931490    0.972902
     23          6           0       -8.692926    6.036554    0.097483
     24          6           0       -8.590480    7.116993    0.765159
     25          7           0       -9.104208    0.576933   -0.649406
     26          6           0       -9.797718    1.729422   -0.649467
     27          6           0      -11.284897    1.422018   -1.017688
     28          6           0      -11.312973    0.060901   -1.120082
     29          6           0       -9.953628   -0.490627   -0.895575
     30          6           0      -12.273581    2.389042   -1.329445
     31          6           0      -12.433011   -0.902708   -1.468155
     32          6           0      -12.311218   -1.312811   -3.017883
     33          7           0       -7.183164   -1.359823   -0.254587
     34          6           0       -8.254984   -2.202070   -0.608783
     35          6           0       -7.719249   -3.598578   -0.623516
     36          6           0       -6.408062   -3.506003   -0.224117
     37          6           0       -6.196915   -2.156720    0.078840
     38          6           0       -8.605359   -4.814655   -0.960865
     39          6           0       -5.248483   -4.377096    0.128641
     40          8           0       -5.131008   -5.596327    0.132442
     41          6           0       -4.227623   -3.307505    0.655357
     42          6           0       -3.597699   -3.709770    1.911104
     43          8           0       -3.657943   -3.054966    3.038207
     44          8           0       -2.896879   -4.874280    1.737957
     45          6           0       -2.248732   -5.309122    3.054330
     46          6           0        2.870676   -0.629353   -1.062874
     47          6           0        4.206496   -0.448110   -0.436004
     48          6           0        5.124219    0.436404   -0.893186
     49          6           0        5.085428    1.295882   -1.988272
     50          6           0        6.470627    0.436792   -0.099000
     51          6           0        7.671892   -0.110275   -0.777063
     52          6           0        8.904037   -0.190004    0.025693
     53          6           0       10.104546   -0.564053   -0.799409
     54          6           0       10.032655   -2.124179   -1.322015
     55          6           0       11.485513   -0.328004   -0.072572
     56          6           0       12.799412   -0.413671   -0.795363
     57          6           0       14.019380    0.022005    0.103920
     58          6           0       15.342168   -0.162065   -0.586550
     59          6           0       15.695602   -1.600771   -0.910724
     60          6           0       16.378798    0.476401    0.400245
     61          6           0       17.815872    0.469765   -0.260104
     62          6           0       18.827971    1.275978    0.642872
     63          6           0       20.278592    1.259648    0.261817
     64          6           0       20.539337    1.891203   -1.095807
     65          6           0       21.185498    1.961215    1.252263
     66          1           0       -4.212232    3.568702    1.501612
     67          1           0      -10.468756    3.871860   -0.506476
     68          1           0      -10.211094   -2.547179   -1.237688
     69          1           0       -2.649405   -0.934817    1.945769
     70          1           0       -2.223230    1.845962    1.237578
     71          1           0       -1.927631    1.003973    3.577814
     72          1           0       -3.227811    2.287364    3.536979
     73          1           0       -3.710651    0.510722    3.614913
     74          1           0       -1.905631   -1.704066   -0.329112
     75          1           0       -2.253287   -0.012452   -0.854951
     76          1           0       -0.292517    0.507566    0.923776
     77          1           0       -0.057658   -1.079874    1.430079
     78          1           0       -6.050175    6.930999    0.582072
     79          1           0       -5.723587    6.106077    1.986965
     80          1           0       -4.446946    5.688148    0.937322
     81          1           0       -9.532029    6.043802   -0.536798
     82          1           0       -9.307672    7.980896    0.531912
     83          1           0       -7.825848    7.338469    1.508591
     84          1           0      -12.053463    2.971035   -2.159603
     85          1           0      -13.240895    1.886268   -1.586930
     86          1           0      -12.486025    2.844830   -0.529276
     87          1           0      -12.367952   -1.743897   -0.888655
     88          1           0      -13.322716   -0.395977   -1.574597
     89          1           0      -13.272345   -2.032341   -3.259936
     90          1           0      -12.376874   -0.515356   -3.650019
     91          1           0      -11.432238   -1.870582   -3.274809
     92          1           0       -9.060581   -4.770937   -1.942950
     93          1           0       -8.009379   -5.799659   -1.045579
     94          1           0       -9.446239   -4.801972   -0.337125
     95          1           0       -3.287198   -3.459453   -0.032620
     96          1           0       -1.687826   -4.408661    3.436309
     97          1           0       -2.866450   -5.830889    3.777590
     98          1           0       -1.490846   -6.044889    2.853273
     99          1           0        2.767210   -1.610405   -1.393613
    100          1           0        2.675814    0.073644   -2.058288
    101          1           0        4.329588   -1.203102    0.412507
    102          1           0        4.044221    1.274984   -2.507072
    103          1           0        5.255093    2.447348   -1.804076
    104          1           0        6.110637    1.138429   -2.747428
    105          1           0        6.789672    1.508474    0.028824
    106          1           0        6.396956   -0.125734    0.881646
    107          1           0        7.411283   -1.139321   -1.482963
    108          1           0        7.713732    0.495739   -1.558073
    109          1           0        9.160245    0.654522    0.681172
    110          1           0        8.987965   -0.821148    1.070137
    111          1           0       10.223507    0.194608   -1.630824
    112          1           0        9.136148   -2.291586   -1.834047
    113          1           0       10.732573   -2.574564   -1.872610
    114          1           0        9.920717   -2.653603   -0.580686
    115          1           0       11.390141    0.599410    0.488796
    116          1           0       11.522011   -1.086131    0.795752
    117          1           0       12.984619   -1.479522   -1.320799
    118          1           0       12.854831    0.210771   -1.618569
    119          1           0       13.911215    0.958903    0.342228
    120          1           0       13.926804   -0.540832    1.080213
    121          1           0       15.443734    0.695605   -1.346257
    122          1           0       15.838522   -2.105682   -0.086354
    123          1           0       14.938548   -2.001889   -1.451482
    124          1           0       16.609284   -1.783167   -1.608133
    125          1           0       16.111468    1.511995    0.748287
    126          1           0       16.516654   -0.017174    1.369621
    127          1           0       18.033502   -0.779656   -0.249183
    128          1           0       17.588690    0.886447   -1.267229
    129          1           0       18.502684    2.353235    0.827330
    130          1           0       18.692667    0.825177    1.722435
    131          1           0       20.732507    0.440305    0.067080
    132          1           0       20.208395    2.930838   -1.077361
    133          1           0       21.564421    1.894257   -1.416178
    134          1           0       19.912246    1.579910   -1.863612
    135          1           0       21.203796    1.330339    2.131564
    136          1           0       22.153987    2.057200    0.977295
    137          1           0       20.743068    2.860622    1.609377
 ---------------------------------------------------------------------

 SCF Done:  E(RCAM-B3LYP) =  -2933.45232742     A.U. after   16 cycles

 Excitation energies and oscillator strengths:

 Excited State   1:      Singlet-A      1.9952 eV  621.42 nm  f=0.2885  <S**2>=0.000
     240 -> 243       -0.22165
     241 -> 242        0.66936
 This state for optimization and/or second-order correction.
 Total Energy, E(TD-HF/TD-DFT) =  -2933.37900624
 Copying the excited state density for this state as the 1-particle RhoCI density.

 The electronic state is 1-A.
 Alpha  occ. eigenvalues --  -46.79897 -19.22901 -19.22284 -19.17080 -19.16680
 Alpha  occ. eigenvalues --  -19.15899 -14.37213 -14.35674 -14.35441 -14.35156
 Alpha  occ. eigenvalues --  -10.34836 -10.34690 -10.31541 -10.27180 -10.26986
 Alpha  occ. eigenvalues --  -10.26172 -10.25517 -10.25386 -10.25359 -10.25332
 Alpha  occ. eigenvalues --  -10.25227 -10.25096 -10.24908 -10.24435 -10.24395
 Alpha  occ. eigenvalues --  -10.24320 -10.24317 -10.23688 -10.23387 -10.23328
 Alpha  occ. eigenvalues --  -10.23189 -10.23125 -10.22525 -10.22505 -10.22504
 Alpha  occ. eigenvalues --  -10.22179 -10.22170 -10.22157 -10.22142 -10.22133
 Alpha  occ. eigenvalues --  -10.22069 -10.22060 -10.22001 -10.21997 -10.21949
 Alpha  occ. eigenvalues --  -10.21771 -10.21762 -10.21690 -10.21670 -10.21400
 Alpha  occ. eigenvalues --  -10.21323 -10.21223 -10.21202 -10.21012 -10.20834
 Alpha  occ. eigenvalues --  -10.20780 -10.20727 -10.20361 -10.19788 -10.19588
 Alpha  occ. eigenvalues --  -10.19093 -10.18976 -10.17986 -10.17977 -10.16875
 Alpha  occ. eigenvalues --   -3.08604  -1.83531  -1.83099  -1.82998  -1.12247
 Alpha  occ. eigenvalues --   -1.10193  -1.06072  -1.03147  -0.99991  -0.99662
 Alpha  occ. eigenvalues --   -0.98899  -0.98367  -0.97380  -0.87120  -0.86782
 Alpha  occ. eigenvalues --   -0.85434  -0.84775  -0.84509  -0.84404  -0.84264
 Alpha  occ. eigenvalues --   -0.83834  -0.83613  -0.82863  -0.82021  -0.80866
 Alpha  occ. eigenvalues --   -0.80541  -0.79724  -0.79432  -0.78212  -0.77899
 Alpha  occ. eigenvalues --   -0.76830  -0.76225  -0.75834  -0.75616  -0.74180
 Alpha  occ. eigenvalues --   -0.73409  -0.73213  -0.72784  -0.72152  -0.71787
 Alpha  occ. eigenvalues --   -0.71453  -0.70735  -0.69620  -0.68588  -0.68072
 Alpha  occ. eigenvalues --   -0.66660  -0.66046  -0.65723  -0.64540  -0.64367
 Alpha  occ. eigenvalues --   -0.61926  -0.61369  -0.60860  -0.60776  -0.60248
 Alpha  occ. eigenvalues --   -0.60135  -0.59421  -0.59245  -0.58718  -0.58377
 Alpha  occ. eigenvalues --   -0.57713  -0.56382  -0.56148  -0.55766  -0.55541
 Alpha  occ. eigenvalues --   -0.55186  -0.54446  -0.53857  -0.52646  -0.52202
 Alpha  occ. eigenvalues --   -0.51805  -0.51491  -0.51377  -0.50870  -0.50711
 Alpha  occ. eigenvalues --   -0.50575  -0.50001  -0.49831  -0.49631  -0.49618
 Alpha  occ. eigenvalues --   -0.49433  -0.49007  -0.48765  -0.48424  -0.47949
 Alpha  occ. eigenvalues --   -0.47843  -0.47234  -0.47189  -0.47157  -0.46798
 Alpha  occ. eigenvalues --   -0.46625  -0.46366  -0.46225  -0.46156  -0.46082
 Alpha  occ. eigenvalues --   -0.45852  -0.45726  -0.45610  -0.45523  -0.45189
 Alpha  occ. eigenvalues --   -0.44961  -0.44307  -0.44095  -0.43984  -0.43699
 Alpha  occ. eigenvalues --   -0.43627  -0.43361  -0.43047  -0.43021  -0.42732
 Alpha  occ. eigenvalues --   -0.42502  -0.42309  -0.41978  -0.41603  -0.41516
 Alpha  occ. eigenvalues --   -0.41409  -0.41251  -0.41083  -0.40914  -0.40879
 Alpha  occ. eigenvalues --   -0.40593  -0.40567  -0.40444  -0.40275  -0.40188
 Alpha  occ. eigenvalues --   -0.39819  -0.39675  -0.39592  -0.39206  -0.39032
 Alpha  occ. eigenvalues --   -0.38773  -0.38644  -0.38496  -0.38261  -0.38084
 Alpha  occ. eigenvalues --   -0.37948  -0.37701  -0.37556  -0.37531  -0.37319
 Alpha  occ. eigenvalues --   -0.37042  -0.36898  -0.36732  -0.36195  -0.36050
 Alpha  occ. eigenvalues --   -0.35492  -0.35315  -0.35176  -0.34949  -0.34357
 Alpha  occ. eigenvalues --   -0.34199  -0.33993  -0.33973  -0.33635  -0.33622
 Alpha  occ. eigenvalues --   -0.33344  -0.32955  -0.32725  -0.32556  -0.32483
 Alpha  occ. eigenvalues --   -0.32345  -0.31995  -0.31213  -0.30489  -0.30095
 Alpha  occ. eigenvalues --   -0.29724  -0.29251  -0.29111  -0.28687  -0.27775
 Alpha  occ. eigenvalues --   -0.27321  -0.26539  -0.26138  -0.25193  -0.21646
 Alpha  occ. eigenvalues --   -0.19926
 Alpha virt. eigenvalues --   -0.07479  -0.03181  -0.00345   0.02431   0.02928
 Alpha virt. eigenvalues --    0.03923   0.04050   0.04305   0.05708   0.05989
 Alpha virt. eigenvalues --    0.06331   0.09002   0.09141   0.09247   0.09895

 Mulliken charges:
               1
     1  Mg   0.827465
     2  C    0.107358
     3  C   -0.139941
     4  C   -0.177648
     5  C   -0.147330
     6  N   -0.611222
     7  C    0.242874
     8  C   -0.138115
     9  C   -0.138401
    10  C    0.340937
    11  C   -0.305512
    12  C   -0.173512
    13  C   -0.258009
    14  C    0.584043
    15  O   -0.477313
    16  O   -0.464558
    17  N   -0.685559
    18  C    0.234922
    19  C    0.073389
    20  C   -0.012408
    21  C    0.286981
    22  C   -0.412598
    23  C   -0.029033
    24  C   -0.252905
    25  N   -0.729922
    26  C    0.344275
    27  C   -0.000436
    28  C    0.022950
    29  C    0.290756
    30  C   -0.378456
    31  C   -0.223652
    32  C   -0.323036
    33  N   -0.726639
    34  C    0.264157
    35  C   -0.005550
    36  C    0.017821
    37  C    0.305120
    38  C   -0.387477
    39  C    0.400223
    40  O   -0.448810
    41  C   -0.338631
    42  C    0.637930
    43  O   -0.522184
    44  O   -0.449988
    45  C   -0.094706
    46  C    0.010225
    47  C   -0.132652
    48  C    0.190142
    49  C   -0.379259
    50  C   -0.241407
    51  C   -0.135295
    52  C   -0.166606
    53  C   -0.054237
    54  C   -0.317663
    55  C   -0.182099
    56  C   -0.178809
    57  C   -0.154451
    58  C   -0.057798
    59  C   -0.307333
    60  C   -0.200068
    61  C   -0.164023
    62  C   -0.164257
    63  C   -0.030457
    64  C   -0.325927
    65  C   -0.316602
    66  H    0.049396
    67  H    0.082180
    68  H    0.077087
    69  H    0.127113
    70  H    0.101147
    71  H    0.100120
    72  H    0.118641
    73  H    0.105682
    74  H    0.113709
    75  H    0.119708
    76  H    0.142099
    77  H    0.115354
    78  H    0.117770
    79  H    0.145258
    80  H    0.120004
    81  H    0.087324
    82  H    0.085790
    83  H    0.089534
    84  H    0.138712
    85  H    0.101063
    86  H    0.138795
    87  H    0.113735
    88  H    0.109645
    89  H    0.069402
    90  H    0.124476
    91  H    0.114777
    92  H    0.125264
    93  H    0.138226
    94  H    0.135257
    95  H    0.161418
    96  H    0.139323
    97  H    0.143583
    98  H    0.125211
    99  H    0.130876
   100  H    0.098746
   101  H    0.098565
   102  H    0.106268
   103  H    0.115138
   104  H    0.095002
   105  H    0.089651
   106  H    0.092076
   107  H    0.056939
   108  H    0.107518
   109  H    0.096615
   110  H    0.062537
   111  H    0.074769
   112  H    0.095881
   113  H    0.104660
   114  H    0.116576
   115  H    0.081166
   116  H    0.070300
   117  H    0.071470
   118  H    0.097234
   119  H    0.100695
   120  H    0.078611
   121  H    0.079392
   122  H    0.121729
   123  H    0.109314
   124  H    0.092786
   125  H    0.077185
   126  H    0.085432
   127  H    0.070457
   128  H    0.092862
   129  H    0.085137
   130  H    0.072787
   131  H    0.097743
   132  H    0.084490
   133  H    0.096524
   134  H    0.101452
   135  H    0.091033
   136  H    0.104950
   137  H    0.099556
 Sum of Mulliken charges =  -0.00000

 Dipole moment (field-independent basis, Debye):
    X=             -0.4624    Y=              3.5992    Z=              0.6988  Tot=              3.6955
 Quadrupole moment (field-independent basis, Debye-Ang):
   XX=           -339.1573   YY=           -388.6653   ZZ=           -399.5113
   XY=            -19.3022   XZ=             12.6496   YZ=             -1.6464

 Normal termination of Gaussian 16 at Wed Sep 11 23:20:43 2019.
