 Gaussian 16, Revision A.03,
 Gaussian 16:  ES64L-G16RevA.03 25-Dec-2016

 ----------------------------------------------------------------------
 # td=(NStates=1) iop(3/107=0140000000,3/108=0140000000) CAM-B3LYP/6-31
 G(d,p)
 ----------------------------------------------------------------------

 --
 TD
 --
 Symbolic Z-matrix:
 Charge =  0 Multiplicity = 1

                         Standard orientation:
 ---------------------------------------------------------------------
 Center     Atomic      Atomic             Coordinates (Angstroms)
 Number     Number       Type             X           Y           Z
 ---------------------------------------------------------------------
      1         12           0       -7.173736    0.624551    0.108372
      2          6           0       -4.835239   -1.908833    0.491781
      3          6           0       -4.783202    2.812249    1.037418
      4          6           0       -9.402482    3.162464   -0.309690
      5          6           0       -9.637242   -1.734813   -0.787644
      6          7           0       -5.101348    0.409583    0.630141
      7          6           0       -4.338481   -0.715385    0.728048
      8          6           0       -2.939801   -0.397016    1.119433
      9          6           0       -3.032114    1.073448    1.591994
     10          6           0       -4.372202    1.449452    1.157871
     11          6           0       -2.956004    1.287328    3.108765
     12          6           0       -1.932178   -0.689232    0.064608
     13          6           0       -0.528902   -0.516538    0.532649
     14          6           0        0.493473   -0.883422   -0.610680
     15          8           0        0.249821   -1.606754   -1.612291
     16          8           0        1.779691   -0.368378   -0.219217
     17          7           0       -7.129741    2.619635    0.380536
     18          6           0       -6.004099    3.361936    0.654574
     19          6           0       -6.411996    4.793341    0.767489
     20          6           0       -7.758606    4.871968    0.383329
     21          6           0       -8.121304    3.482173    0.153942
     22          6           0       -5.471631    5.925377    1.033618
     23          6           0       -8.596169    5.989380    0.187724
     24          6           0       -8.467639    7.237507    0.604438
     25          7           0       -9.152715    0.649957   -0.373851
     26          6           0       -9.891074    1.802799   -0.468499
     27          6           0      -11.252430    1.408692   -1.044108
     28          6           0      -11.237874    0.101624   -1.174763
     29          6           0       -9.998382   -0.435591   -0.818429
     30          6           0      -12.321796    2.486154   -1.407546
     31          6           0      -12.463092   -0.649004   -1.642671
     32          6           0      -12.434912   -0.915702   -3.217483
     33          7           0       -7.186251   -1.389709   -0.194812
     34          6           0       -8.334958   -2.234940   -0.601918
     35          6           0       -7.891345   -3.545412   -0.562947
     36          6           0       -6.579174   -3.541910   -0.055062
     37          6           0       -6.173206   -2.139660    0.040320
     38          6           0       -8.705565   -4.797517   -0.952820
     39          6           0       -5.360996   -4.366233    0.231562
     40          8           0       -5.200785   -5.549753    0.213904
     41          6           0       -4.210156   -3.358500    0.613921
     42          6           0       -3.540379   -3.670262    1.862745
     43          8           0       -3.773242   -3.071242    2.975457
     44          8           0       -2.683363   -4.720164    1.809147
     45          6           0       -2.070325   -5.101343    2.954232
     46          6           0        2.823570   -0.607380   -1.222148
     47          6           0        4.148407   -0.378415   -0.552884
     48          6           0        5.159590    0.314200   -0.982291
     49          6           0        5.077935    1.138424   -2.222771
     50          6           0        6.525365    0.377735   -0.272377
     51          6           0        7.618209   -0.172820   -0.969993
     52          6           0        8.949780   -0.249393   -0.188668
     53          6           0       10.206995   -0.521502   -0.903676
     54          6           0       10.151480   -2.022476   -1.410863
     55          6           0       11.431462   -0.350284   -0.037871
     56          6           0       12.783563   -0.474961   -0.730997
     57          6           0       13.928467   -0.090548    0.181985
     58          6           0       15.372786   -0.130623   -0.444656
     59          6           0       15.707611   -1.650195   -0.781798
     60          6           0       16.381650    0.467261    0.526145
     61          6           0       17.904479    0.614508   -0.119768
     62          6           0       18.863720    1.323895    0.706736
     63          6           0       20.337346    1.319725    0.254112
     64          6           0       20.522977    2.078603   -1.070018
     65          6           0       21.264550    2.068072    1.317937
     66          1           0       -3.957655    3.445025    1.379351
     67          1           0       -9.982282    3.934973   -0.480734
     68          1           0      -10.282261   -2.517724   -1.202851
     69          1           0       -2.647609   -0.997782    2.070709
     70          1           0       -2.257937    1.797863    1.360871
     71          1           0       -1.912551    0.735202    3.404892
     72          1           0       -3.106784    2.280233    3.272109
     73          1           0       -3.765195    0.663962    3.410572
     74          1           0       -1.932901   -1.688329   -0.268934
     75          1           0       -2.075968    0.054833   -0.639501
     76          1           0       -0.299499    0.392883    1.052032
     77          1           0       -0.377852   -1.334927    1.420170
     78          1           0       -5.928826    6.783825    0.534320
     79          1           0       -5.515084    6.196735    2.207620
     80          1           0       -4.384429    5.597281    0.608371
     81          1           0       -9.326594    5.687931   -0.575383
     82          1           0       -9.125535    8.026234    0.363430
     83          1           0       -7.931537    7.254758    1.374494
     84          1           0      -12.145564    3.233755   -1.942317
     85          1           0      -13.144117    1.910653   -1.522506
     86          1           0      -12.487735    2.901962   -0.386599
     87          1           0      -12.410796   -1.625343   -1.078383
     88          1           0      -13.303161   -0.182910   -1.394404
     89          1           0      -13.381413   -1.379521   -3.497277
     90          1           0      -12.499393   -0.093617   -3.732998
     91          1           0      -11.501628   -1.567510   -3.602744
     92          1           0       -9.226172   -4.435349   -1.767055
     93          1           0       -7.853731   -5.708727   -1.203491
     94          1           0       -9.342734   -5.062098    0.087485
     95          1           0       -3.474479   -3.482469   -0.417703
     96          1           0       -1.641480   -4.158426    3.482483
     97          1           0       -2.769549   -5.619931    3.718992
     98          1           0       -1.285706   -5.884896    2.733183
     99          1           0        2.586260   -1.613344   -1.629232
    100          1           0        2.515198    0.131788   -2.108155
    101          1           0        4.240096   -1.096888    0.361925
    102          1           0        4.104097    0.989685   -2.740384
    103          1           0        5.251668    2.162343   -1.963319
    104          1           0        5.795862    0.765096   -2.892635
    105          1           0        6.639312    1.298339   -0.129561
    106          1           0        6.401562   -0.090902    0.737558
    107          1           0        7.365218   -1.104875   -1.445154
    108          1           0        7.701807    0.577827   -1.821666
    109          1           0        9.067182    0.798129    0.196629
    110          1           0        8.770807   -0.770503    0.527309
    111          1           0       10.476309    0.258013   -1.822665
    112          1           0        9.090373   -2.090036   -1.888578
    113          1           0       11.035733   -2.219946   -2.146906
    114          1           0       10.254594   -2.608214   -0.398736
    115          1           0       11.304041    0.740804    0.254140
    116          1           0       11.549402   -0.839916    0.956165
    117          1           0       12.772011   -1.285342   -1.360590
    118          1           0       12.795071    0.292252   -1.555742
    119          1           0       13.635239    0.764739    0.935720
    120          1           0       13.963142   -0.807801    1.180460
    121          1           0       15.379440    0.373900   -1.444699
    122          1           0       16.047087   -2.268024   -0.001324
    123          1           0       14.933278   -2.040702   -1.311561
    124          1           0       16.630845   -1.613288   -1.422092
    125          1           0       16.101574    1.488044    0.658003
    126          1           0       16.576846   -0.214285    1.403664
    127          1           0       18.266828   -0.492053   -0.291020
    128          1           0       17.774682    0.980938   -1.148516
    129          1           0       18.556156    2.452245    0.750216
    130          1           0       18.598586    1.065832    1.867329
    131          1           0       20.438087    0.136230    0.151774
    132          1           0       20.122209    3.161071   -0.931214
    133          1           0       21.670498    1.970138   -1.351482
    134          1           0       20.003318    1.715362   -1.928150
    135          1           0       21.351645    1.587528    2.309306
    136          1           0       22.190871    1.977505    1.153816
    137          1           0       20.828712    3.128768    1.336608
 ---------------------------------------------------------------------

 SCF Done:  E(RCAM-B3LYP) =  -2933.43431313     A.U. after   16 cycles

 Excitation energies and oscillator strengths:

 Excited State   1:      Singlet-A      2.0742 eV  597.74 nm  f=0.2414  <S**2>=0.000
     240 -> 243        0.20869
     241 -> 242        0.66587
 This state for optimization and/or second-order correction.
 Total Energy, E(TD-HF/TD-DFT) =  -2933.35808697
 Copying the excited state density for this state as the 1-particle RhoCI density.

 The electronic state is 1-A.
 Alpha  occ. eigenvalues --  -46.79548 -19.22506 -19.21687 -19.18488 -19.16037
 Alpha  occ. eigenvalues --  -19.15442 -14.37655 -14.35734 -14.35449 -14.34452
 Alpha  occ. eigenvalues --  -10.36100 -10.34909 -10.30136 -10.27911 -10.27230
 Alpha  occ. eigenvalues --  -10.26909 -10.26502 -10.25736 -10.25609 -10.25318
 Alpha  occ. eigenvalues --  -10.24867 -10.24412 -10.24204 -10.24043 -10.23942
 Alpha  occ. eigenvalues --  -10.23723 -10.23692 -10.23542 -10.23190 -10.23144
 Alpha  occ. eigenvalues --  -10.23064 -10.22904 -10.22855 -10.22820 -10.22743
 Alpha  occ. eigenvalues --  -10.22741 -10.22637 -10.22505 -10.22504 -10.22399
 Alpha  occ. eigenvalues --  -10.22387 -10.22359 -10.21830 -10.21809 -10.21789
 Alpha  occ. eigenvalues --  -10.21786 -10.21766 -10.21656 -10.21568 -10.21252
 Alpha  occ. eigenvalues --  -10.21205 -10.20963 -10.20917 -10.20818 -10.20791
 Alpha  occ. eigenvalues --  -10.20768 -10.20707 -10.20453 -10.20231 -10.20131
 Alpha  occ. eigenvalues --  -10.20111 -10.19802 -10.19651 -10.19453 -10.19051
 Alpha  occ. eigenvalues --   -3.08209  -1.83154  -1.82672  -1.82621  -1.13678
 Alpha  occ. eigenvalues --   -1.09589  -1.06646  -1.03118  -1.01502  -0.99999
 Alpha  occ. eigenvalues --   -0.99247  -0.97574  -0.96287  -0.87947  -0.86697
 Alpha  occ. eigenvalues --   -0.86426  -0.85794  -0.85586  -0.84278  -0.84182
 Alpha  occ. eigenvalues --   -0.83649  -0.83101  -0.82917  -0.82281  -0.81313
 Alpha  occ. eigenvalues --   -0.80891  -0.79712  -0.78882  -0.78468  -0.78221
 Alpha  occ. eigenvalues --   -0.77046  -0.76641  -0.76138  -0.75464  -0.74206
 Alpha  occ. eigenvalues --   -0.73503  -0.73229  -0.71849  -0.71341  -0.70963
 Alpha  occ. eigenvalues --   -0.70443  -0.70362  -0.69556  -0.69065  -0.68269
 Alpha  occ. eigenvalues --   -0.67344  -0.66581  -0.66023  -0.65134  -0.64759
 Alpha  occ. eigenvalues --   -0.63007  -0.62712  -0.61449  -0.61285  -0.60697
 Alpha  occ. eigenvalues --   -0.59967  -0.59174  -0.58471  -0.58286  -0.57803
 Alpha  occ. eigenvalues --   -0.57098  -0.56874  -0.56549  -0.55901  -0.55344
 Alpha  occ. eigenvalues --   -0.54830  -0.54616  -0.53770  -0.53026  -0.52924
 Alpha  occ. eigenvalues --   -0.52213  -0.52017  -0.51488  -0.51357  -0.51143
 Alpha  occ. eigenvalues --   -0.50874  -0.50462  -0.50433  -0.49630  -0.49376
 Alpha  occ. eigenvalues --   -0.49178  -0.49033  -0.48793  -0.48673  -0.48443
 Alpha  occ. eigenvalues --   -0.48271  -0.48202  -0.47559  -0.47450  -0.47228
 Alpha  occ. eigenvalues --   -0.46942  -0.46729  -0.46506  -0.46398  -0.46052
 Alpha  occ. eigenvalues --   -0.45719  -0.45566  -0.45365  -0.45051  -0.44968
 Alpha  occ. eigenvalues --   -0.44710  -0.44418  -0.44203  -0.44133  -0.44001
 Alpha  occ. eigenvalues --   -0.43862  -0.43594  -0.43363  -0.43024  -0.42738
 Alpha  occ. eigenvalues --   -0.42504  -0.42221  -0.42205  -0.42145  -0.41978
 Alpha  occ. eigenvalues --   -0.41745  -0.41387  -0.41108  -0.40862  -0.40855
 Alpha  occ. eigenvalues --   -0.40667  -0.40600  -0.40238  -0.39941  -0.39670
 Alpha  occ. eigenvalues --   -0.39567  -0.39260  -0.39215  -0.39057  -0.39015
 Alpha  occ. eigenvalues --   -0.38774  -0.38641  -0.38163  -0.37924  -0.37828
 Alpha  occ. eigenvalues --   -0.37651  -0.37420  -0.37330  -0.37282  -0.37079
 Alpha  occ. eigenvalues --   -0.37008  -0.36727  -0.36590  -0.36385  -0.36364
 Alpha  occ. eigenvalues --   -0.35740  -0.35732  -0.35394  -0.35333  -0.34875
 Alpha  occ. eigenvalues --   -0.34672  -0.34580  -0.34373  -0.33920  -0.33828
 Alpha  occ. eigenvalues --   -0.33581  -0.33487  -0.32606  -0.32163  -0.32015
 Alpha  occ. eigenvalues --   -0.31617  -0.31572  -0.31409  -0.31005  -0.30538
 Alpha  occ. eigenvalues --   -0.30143  -0.29966  -0.29381  -0.28677  -0.27966
 Alpha  occ. eigenvalues --   -0.26566  -0.26209  -0.25593  -0.25521  -0.21865
 Alpha  occ. eigenvalues --   -0.20219
 Alpha virt. eigenvalues --   -0.07162  -0.03492   0.00126   0.01196   0.01544
 Alpha virt. eigenvalues --    0.02768   0.04736   0.04981   0.05278   0.05587
 Alpha virt. eigenvalues --    0.06527   0.09128   0.09363   0.09551   0.09572

 Mulliken charges:
               1
     1  Mg   0.802929
     2  C    0.106656
     3  C   -0.215051
     4  C   -0.140176
     5  C   -0.169378
     6  N   -0.641176
     7  C    0.310151
     8  C   -0.167867
     9  C   -0.188116
    10  C    0.360279
    11  C   -0.288696
    12  C   -0.130039
    13  C   -0.268235
    14  C    0.615022
    15  O   -0.472795
    16  O   -0.494356
    17  N   -0.720479
    18  C    0.319249
    19  C    0.000543
    20  C    0.045016
    21  C    0.338882
    22  C   -0.374244
    23  C   -0.067555
    24  C   -0.237657
    25  N   -0.696158
    26  C    0.288080
    27  C   -0.032564
    28  C    0.056559
    29  C    0.300023
    30  C   -0.336107
    31  C   -0.236407
    32  C   -0.311546
    33  N   -0.736673
    34  C    0.244756
    35  C   -0.024282
    36  C   -0.006137
    37  C    0.316164
    38  C   -0.339547
    39  C    0.364249
    40  O   -0.447315
    41  C   -0.318564
    42  C    0.634438
    43  O   -0.510876
    44  O   -0.401766
    45  C   -0.081347
    46  C    0.000562
    47  C   -0.120871
    48  C    0.110243
    49  C   -0.364968
    50  C   -0.196602
    51  C   -0.186330
    52  C   -0.128714
    53  C   -0.063229
    54  C   -0.298598
    55  C   -0.172083
    56  C   -0.165895
    57  C   -0.163776
    58  C   -0.060367
    59  C   -0.317088
    60  C   -0.171048
    61  C   -0.186945
    62  C   -0.137880
    63  C   -0.063885
    64  C   -0.292861
    65  C   -0.288608
    66  H    0.070647
    67  H    0.049876
    68  H    0.092226
    69  H    0.113843
    70  H    0.110441
    71  H    0.090454
    72  H    0.117118
    73  H    0.135589
    74  H    0.130801
    75  H    0.115985
    76  H    0.129567
    77  H    0.113022
    78  H    0.129744
    79  H    0.112060
    80  H    0.105820
    81  H    0.084350
    82  H    0.107507
    83  H    0.094729
    84  H    0.128403
    85  H    0.110879
    86  H    0.116472
    87  H    0.097158
    88  H    0.110360
    89  H    0.100750
    90  H    0.127832
    91  H    0.093844
    92  H    0.127793
    93  H    0.123988
    94  H    0.114503
    95  H    0.143255
    96  H    0.108921
    97  H    0.113743
    98  H    0.115567
    99  H    0.140627
   100  H    0.098689
   101  H    0.080838
   102  H    0.101912
   103  H    0.120854
   104  H    0.130392
   105  H    0.110357
   106  H    0.082022
   107  H    0.098941
   108  H    0.079111
   109  H    0.077340
   110  H    0.097829
   111  H    0.057693
   112  H    0.094227
   113  H    0.095443
   114  H    0.096063
   115  H    0.078871
   116  H    0.086405
   117  H    0.103424
   118  H    0.080548
   119  H    0.082230
   120  H    0.050894
   121  H    0.082492
   122  H    0.109082
   123  H    0.109974
   124  H    0.090555
   125  H    0.101908
   126  H    0.097465
   127  H    0.068086
   128  H    0.090989
   129  H    0.059889
   130  H    0.066845
   131  H    0.069324
   132  H    0.092223
   133  H    0.090493
   134  H    0.110872
   135  H    0.089890
   136  H    0.111924
   137  H    0.097083
 Sum of Mulliken charges =  -0.00000

 Dipole moment (field-independent basis, Debye):
    X=              0.9929    Y=              6.4806    Z=             -0.6578  Tot=              6.5891
 Quadrupole moment (field-independent basis, Debye-Ang):
   XX=           -331.6805   YY=           -399.8026   ZZ=           -399.0782
   XY=            -32.6211   XZ=             12.8873   YZ=             -0.7885

 Normal termination of Gaussian 16 at Mon Sep 23 16:42:37 2019.
