 Gaussian 09, Revision D.01,
 Gaussian 09:  ES64L-G09RevD.01 24-Apr-2013

 -------------------------------------
 # td=(NStates=1) CAM-B3LYP/6-31G(d,p)
 -------------------------------------

 --
 TD
 --
 Symbolic Z-matrix:
 Charge =  0 Multiplicity = 1

                         Standard orientation:
 ---------------------------------------------------------------------
 Center     Atomic      Atomic             Coordinates (Angstroms)
 Number     Number       Type             X           Y           Z
 ---------------------------------------------------------------------
      1         12           0       -7.107300    0.619429   -0.032006
      2          6           0       -4.917530   -1.993541    0.415274
      3          6           0       -4.741649    2.852874    1.063088
      4          6           0       -9.389568    3.076878   -0.354986
      5          6           0       -9.600452   -1.746405   -0.874898
      6          7           0       -5.075118    0.422624    0.615219
      7          6           0       -4.363108   -0.730199    0.782334
      8          6           0       -2.914474   -0.459625    1.250911
      9          6           0       -3.157002    1.087971    1.599447
     10          6           0       -4.394400    1.463802    1.001939
     11          6           0       -3.086850    1.191082    3.178666
     12          6           0       -1.909817   -0.654196    0.084235
     13          6           0       -0.498653   -0.339977    0.591699
     14          6           0        0.607126   -0.732751   -0.362482
     15          8           0        0.354565   -1.081842   -1.431984
     16          8           0        1.910207   -0.450124    0.089985
     17          7           0       -7.058383    2.644247    0.236218
     18          6           0       -6.048217    3.371047    0.725745
     19          6           0       -6.403225    4.744120    0.862827
     20          6           0       -7.764154    4.863316    0.460452
     21          6           0       -8.133986    3.512776    0.036231
     22          6           0       -5.525177    5.821610    1.233637
     23          6           0       -8.586560    6.097430    0.159137
     24          6           0       -8.574039    7.210945    0.917025
     25          7           0       -9.077501    0.648356   -0.636746
     26          6           0       -9.861718    1.758685   -0.741963
     27          6           0      -11.143540    1.487034   -1.282554
     28          6           0      -11.246937    0.066665   -1.327661
     29          6           0       -9.864413   -0.453026   -1.016291
     30          6           0      -12.239421    2.579866   -1.527126
     31          6           0      -12.405481   -0.690573   -1.754089
     32          6           0      -12.202333   -1.110744   -3.326015
     33          7           0       -7.299175   -1.494869   -0.066694
     34          6           0       -8.333012   -2.211538   -0.512449
     35          6           0       -7.957491   -3.582461   -0.447684
     36          6           0       -6.551361   -3.571236   -0.021627
     37          6           0       -6.253348   -2.265500    0.173090
     38          6           0       -8.780587   -4.769686   -0.737190
     39          6           0       -5.320363   -4.377397    0.177164
     40          8           0       -5.243089   -5.629024    0.278676
     41          6           0       -4.210201   -3.321753    0.410446
     42          6           0       -3.604893   -3.675538    1.820120
     43          8           0       -3.905546   -3.168971    2.932238
     44          8           0       -2.749620   -4.652930    1.679581
     45          6           0       -2.160526   -5.168844    2.882608
     46          6           0        2.788526   -0.793782   -0.994154
     47          6           0        4.169464   -0.446014   -0.317563
     48          6           0        5.122688    0.293701   -0.839553
     49          6           0        5.061757    1.118117   -2.107906
     50          6           0        6.446286    0.456523   -0.153185
     51          6           0        7.680907   -0.076788   -0.889128
     52          6           0        8.944082   -0.035952   -0.132811
     53          6           0       10.225432   -0.559493   -0.932800
     54          6           0       10.306492   -1.938970   -1.440926
     55          6           0       11.456088   -0.156143   -0.066270
     56          6           0       12.796228   -0.411969   -0.742067
     57          6           0       13.941849    0.096702    0.186787
     58          6           0       15.335605   -0.124162   -0.420056
     59          6           0       15.602351   -1.617796   -0.861203
     60          6           0       16.429768    0.453787    0.440297
     61          6           0       17.885744    0.390353   -0.228278
     62          6           0       18.933283    1.180581    0.634050
     63          6           0       20.269384    1.289939    0.206207
     64          6           0       20.408486    2.008076   -1.119223
     65          6           0       21.235884    1.894934    1.251431
     66          1           0       -3.928268    3.539692    1.327954
     67          1           0      -10.110847    4.005777   -0.457282
     68          1           0      -10.447789   -2.210251   -1.018529
     69          1           0       -2.661102   -0.967442    1.976363
     70          1           0       -2.478456    1.687076    1.104181
     71          1           0       -2.074932    0.831303    3.382541
     72          1           0       -3.235992    2.170826    3.513643
     73          1           0       -3.786290    0.409924    3.611686
     74          1           0       -1.977612   -1.653217   -0.223428
     75          1           0       -2.064662    0.007005   -0.845211
     76          1           0       -0.475408    0.804133    0.886203
     77          1           0       -0.178364   -0.935001    1.507633
     78          1           0       -5.764977    6.770888    0.934607
     79          1           0       -5.455209    6.048315    2.414849
     80          1           0       -4.458163    5.819942    0.889519
     81          1           0       -9.249503    5.963464   -0.578661
     82          1           0       -9.232672    7.906135    0.534691
     83          1           0       -7.937266    7.385211    1.576467
     84          1           0      -12.154855    3.297903   -2.219566
     85          1           0      -13.193777    2.097033   -1.903775
     86          1           0      -12.484281    3.140663   -0.502098
     87          1           0      -12.506257   -1.548530   -1.149850
     88          1           0      -13.220964   -0.019560   -1.711980
     89          1           0      -13.015823   -1.752169   -3.556034
     90          1           0      -12.488447   -0.251243   -4.117712
     91          1           0      -11.148679   -1.684881   -3.616946
     92          1           0       -9.197407   -4.870925   -1.662288
     93          1           0       -8.157581   -5.608241   -0.444679
     94          1           0       -9.685150   -4.788006   -0.026038
     95          1           0       -3.611737   -3.488400   -0.456081
     96          1           0       -1.509995   -4.534719    3.404829
     97          1           0       -3.076521   -5.305724    3.743425
     98          1           0       -1.590952   -6.011139    2.459713
     99          1           0        2.711192   -1.857146   -1.205213
    100          1           0        2.649768   -0.151761   -1.857180
    101          1           0        4.227590   -1.066780    0.486989
    102          1           0        3.866575    1.085714   -2.555496
    103          1           0        5.367856    2.160325   -2.167688
    104          1           0        5.656799    0.488871   -2.874798
    105          1           0        6.639637    1.392887    0.060456
    106          1           0        6.396796   -0.160719    0.807065
    107          1           0        7.442653   -1.136823   -1.052350
    108          1           0        7.785086    0.578214   -1.889783
    109          1           0        9.067870    1.106852   -0.005480
    110          1           0        8.865929   -0.532301    0.862670
    111          1           0       10.290317    0.213840   -1.917902
    112          1           0        9.443142   -2.157833   -2.068621
    113          1           0       11.014541   -2.056894   -2.303561
    114          1           0       10.372422   -2.815971   -0.624602
    115          1           0       11.405302    0.797368    0.475572
    116          1           0       11.467092   -1.069751    0.700319
    117          1           0       12.973866   -1.424515   -1.110024
    118          1           0       12.798625    0.253730   -1.690865
    119          1           0       13.777876    1.087856    0.278802
    120          1           0       13.781939   -0.581694    1.098889
    121          1           0       15.528261    0.397300   -1.368488
    122          1           0       15.609948   -2.347044    0.036732
    123          1           0       14.786879   -1.819141   -1.559952
    124          1           0       16.586228   -1.487752   -1.552955
    125          1           0       16.418595    1.541443    0.909292
    126          1           0       16.534475   -0.388275    1.322852
    127          1           0       18.392152   -0.473829   -0.363911
    128          1           0       17.804341    0.593327   -1.287423
    129          1           0       18.446814    2.304560    0.947982
    130          1           0       18.894063    0.571666    1.635834
    131          1           0       20.732072    0.374867   -0.097702
    132          1           0       20.212784    3.178191   -1.199019
    133          1           0       21.455443    2.067463   -1.651151
    134          1           0       19.715870    1.599446   -1.859251
    135          1           0       21.254965    1.301412    2.257133
    136          1           0       22.212363    2.005666    0.931090
    137          1           0       20.880881    2.942314    1.557439
 ---------------------------------------------------------------------

 SCF Done:  E(RCAM-B3LYP) =  -2932.65910315     A.U. after   18 cycles

 Excitation energies and oscillator strengths:

 Excited State   1:      Singlet-A      2.1307 eV  581.90 nm  f=0.2598  <S**2>=0.000
     240 -> 242       -0.17457
     240 -> 243        0.22280
     241 -> 242        0.63309
     241 -> 243        0.11529
 This state for optimization and/or second-order correction.
 Total Energy, E(TD-HF/TD-KS) =  -2932.58080165
 Copying the excited state density for this state as the 1-particle RhoCI density.

 The electronic state is 1-A.
 Alpha  occ. eigenvalues --  -46.84737 -19.27271 -19.25510 -19.21836 -19.20470
 Alpha  occ. eigenvalues --  -19.19287 -14.41509 -14.39479 -14.39284 -14.37717
 Alpha  occ. eigenvalues --  -10.39680 -10.38669 -10.34522 -10.32202 -10.30874
 Alpha  occ. eigenvalues --  -10.30548 -10.30174 -10.30127 -10.30000 -10.29902
 Alpha  occ. eigenvalues --  -10.28489 -10.28385 -10.28338 -10.28073 -10.28007
 Alpha  occ. eigenvalues --  -10.28005 -10.27834 -10.27818 -10.27572 -10.27395
 Alpha  occ. eigenvalues --  -10.27362 -10.27316 -10.27165 -10.27030 -10.27007
 Alpha  occ. eigenvalues --  -10.26894 -10.26890 -10.26846 -10.26790 -10.26615
 Alpha  occ. eigenvalues --  -10.26525 -10.26446 -10.26413 -10.26388 -10.26144
 Alpha  occ. eigenvalues --  -10.26131 -10.26100 -10.26068 -10.26060 -10.25954
 Alpha  occ. eigenvalues --  -10.25823 -10.25812 -10.25757 -10.25717 -10.25424
 Alpha  occ. eigenvalues --  -10.25375 -10.25024 -10.24829 -10.24707 -10.24700
 Alpha  occ. eigenvalues --  -10.24637 -10.24470 -10.24358 -10.24232 -10.23556
 Alpha  occ. eigenvalues --   -3.13587  -1.88316  -1.87817  -1.87746  -1.19378
 Alpha  occ. eigenvalues --   -1.19223  -1.10844  -1.07787  -1.07145  -1.05618
 Alpha  occ. eigenvalues --   -1.04262  -1.03645  -1.02001  -0.93035  -0.91253
 Alpha  occ. eigenvalues --   -0.90707  -0.90162  -0.89777  -0.89508  -0.89282
 Alpha  occ. eigenvalues --   -0.88309  -0.88117  -0.87860  -0.86492  -0.85444
 Alpha  occ. eigenvalues --   -0.85135  -0.84394  -0.83537  -0.82918  -0.82546
 Alpha  occ. eigenvalues --   -0.82075  -0.80523  -0.79949  -0.79562  -0.78074
 Alpha  occ. eigenvalues --   -0.77563  -0.77353  -0.76313  -0.75904  -0.75393
 Alpha  occ. eigenvalues --   -0.75044  -0.74637  -0.73949  -0.73317  -0.72483
 Alpha  occ. eigenvalues --   -0.72193  -0.70944  -0.70142  -0.69537  -0.69100
 Alpha  occ. eigenvalues --   -0.67461  -0.67134  -0.66744  -0.65159  -0.63942
 Alpha  occ. eigenvalues --   -0.63649  -0.62949  -0.62788  -0.62705  -0.61578
 Alpha  occ. eigenvalues --   -0.61547  -0.60730  -0.60575  -0.60237  -0.59289
 Alpha  occ. eigenvalues --   -0.58834  -0.58389  -0.58091  -0.57751  -0.56962
 Alpha  occ. eigenvalues --   -0.56258  -0.56127  -0.55829  -0.55454  -0.55055
 Alpha  occ. eigenvalues --   -0.54793  -0.54444  -0.53717  -0.53551  -0.53341
 Alpha  occ. eigenvalues --   -0.53023  -0.52621  -0.52538  -0.52392  -0.52082
 Alpha  occ. eigenvalues --   -0.51468  -0.51254  -0.51173  -0.50876  -0.50481
 Alpha  occ. eigenvalues --   -0.50207  -0.49998  -0.49716  -0.49610  -0.49595
 Alpha  occ. eigenvalues --   -0.49137  -0.48936  -0.48810  -0.48545  -0.48332
 Alpha  occ. eigenvalues --   -0.48166  -0.47735  -0.47563  -0.47243  -0.47030
 Alpha  occ. eigenvalues --   -0.46777  -0.46526  -0.46306  -0.45971  -0.45783
 Alpha  occ. eigenvalues --   -0.45574  -0.45498  -0.45273  -0.45118  -0.45099
 Alpha  occ. eigenvalues --   -0.44853  -0.44558  -0.44178  -0.44132  -0.44088
 Alpha  occ. eigenvalues --   -0.43842  -0.43626  -0.43430  -0.43117  -0.42988
 Alpha  occ. eigenvalues --   -0.42901  -0.42764  -0.42526  -0.42400  -0.42148
 Alpha  occ. eigenvalues --   -0.41873  -0.41797  -0.41694  -0.41599  -0.41508
 Alpha  occ. eigenvalues --   -0.41320  -0.41081  -0.40966  -0.40701  -0.40603
 Alpha  occ. eigenvalues --   -0.40486  -0.40439  -0.40236  -0.40123  -0.40021
 Alpha  occ. eigenvalues --   -0.38987  -0.38533  -0.37847  -0.37526  -0.37455
 Alpha  occ. eigenvalues --   -0.37072  -0.36992  -0.36734  -0.36625  -0.36591
 Alpha  occ. eigenvalues --   -0.36326  -0.36085  -0.35925  -0.35788  -0.35407
 Alpha  occ. eigenvalues --   -0.35297  -0.34690  -0.34399  -0.34287  -0.33654
 Alpha  occ. eigenvalues --   -0.33239  -0.32702  -0.32197  -0.30519  -0.29891
 Alpha  occ. eigenvalues --   -0.29101  -0.28200  -0.27577  -0.27180  -0.22843
 Alpha  occ. eigenvalues --   -0.21173
 Alpha virt. eigenvalues --   -0.06479  -0.02821   0.01418   0.04103   0.05418
 Alpha virt. eigenvalues --    0.06001   0.06656   0.07223   0.07326   0.07756
 Alpha virt. eigenvalues --    0.08911   0.10768   0.11164   0.11437   0.11803

 Mulliken charges:
               1
     1  Mg   0.821831
     2  C    0.033967
     3  C   -0.211721
     4  C   -0.194695
     5  C   -0.067160
     6  N   -0.629675
     7  C    0.261682
     8  C   -0.095721
     9  C   -0.182862
    10  C    0.390793
    11  C   -0.303078
    12  C   -0.170768
    13  C   -0.275930
    14  C    0.602390
    15  O   -0.415540
    16  O   -0.499363
    17  N   -0.729238
    18  C    0.352770
    19  C    0.043935
    20  C   -0.004989
    21  C    0.288359
    22  C   -0.403045
    23  C   -0.074383
    24  C   -0.189220
    25  N   -0.697808
    26  C    0.318524
    27  C    0.022617
    28  C    0.002086
    29  C    0.267022
    30  C   -0.364999
    31  C   -0.246054
    32  C   -0.312065
    33  N   -0.722645
    34  C    0.282682
    35  C   -0.026923
    36  C   -0.004889
    37  C    0.324562
    38  C   -0.381521
    39  C    0.343526
    40  O   -0.488750
    41  C   -0.311781
    42  C    0.626834
    43  O   -0.514543
    44  O   -0.408646
    45  C   -0.090323
    46  C    0.005949
    47  C   -0.131171
    48  C    0.139799
    49  C   -0.359076
    50  C   -0.214806
    51  C   -0.174532
    52  C   -0.161346
    53  C   -0.030278
    54  C   -0.318419
    55  C   -0.157984
    56  C   -0.193319
    57  C   -0.150449
    58  C   -0.077422
    59  C   -0.303379
    60  C   -0.144491
    61  C   -0.197329
    62  C   -0.145424
    63  C   -0.047242
    64  C   -0.311124
    65  C   -0.302932
    66  H    0.086436
    67  H    0.080597
    68  H    0.066887
    69  H    0.097415
    70  H    0.100071
    71  H    0.110997
    72  H    0.116100
    73  H    0.130967
    74  H    0.122921
    75  H    0.113290
    76  H    0.127678
    77  H    0.119608
    78  H    0.130708
    79  H    0.100729
    80  H    0.115903
    81  H    0.094174
    82  H    0.100802
    83  H    0.089469
    84  H    0.136142
    85  H    0.098548
    86  H    0.107360
    87  H    0.120937
    88  H    0.117788
    89  H    0.116274
    90  H    0.096204
    91  H    0.103544
    92  H    0.128163
    93  H    0.148649
    94  H    0.104264
    95  H    0.168712
    96  H    0.135271
    97  H    0.126098
    98  H    0.131032
    99  H    0.126110
   100  H    0.115673
   101  H    0.091718
   102  H    0.069656
   103  H    0.127165
   104  H    0.123546
   105  H    0.106114
   106  H    0.082377
   107  H    0.093700
   108  H    0.071578
   109  H    0.079864
   110  H    0.091891
   111  H    0.045175
   112  H    0.109361
   113  H    0.113112
   114  H    0.090620
   115  H    0.096580
   116  H    0.063423
   117  H    0.102588
   118  H    0.066151
   119  H    0.103409
   120  H    0.086122
   121  H    0.083977
   122  H    0.099392
   123  H    0.112131
   124  H    0.085635
   125  H    0.089743
   126  H    0.060598
   127  H    0.108054
   128  H    0.083060
   129  H    0.050599
   130  H    0.083696
   131  H    0.102129
   132  H    0.076870
   133  H    0.083905
   134  H    0.103888
   135  H    0.083826
   136  H    0.110530
   137  H    0.092022
 Sum of Mulliken charges =   0.00000

 Dipole moment (field-independent basis, Debye):
    X=              0.3058    Y=              5.3989    Z=             -1.3560  Tot=              5.5750
 Quadrupole moment (field-independent basis, Debye-Ang):
   XX=           -342.3746   YY=           -394.2872   ZZ=           -397.3337
   XY=            -42.5299   XZ=             13.7251   YZ=             -0.2156

 Normal termination of Gaussian 09 at Sat Jul  6 13:59:44 2019.
