 Gaussian 16, Revision A.03,
 Gaussian 16:  ES64L-G16RevA.03 25-Dec-2016

 ----------------------------------------------------------------------
 # td=(NStates=1) iop(3/107=0140000000,3/108=0140000000) CAM-B3LYP/6-31
 G(d,p)
 ----------------------------------------------------------------------

 --
 TD
 --
 Symbolic Z-matrix:
 Charge =  0 Multiplicity = 1

                         Standard orientation:
 ---------------------------------------------------------------------
 Center     Atomic      Atomic             Coordinates (Angstroms)
 Number     Number       Type             X           Y           Z
 ---------------------------------------------------------------------
      1         12           0       -7.096506    0.595877    0.110230
      2          6           0       -4.877377   -2.054237    0.591602
      3          6           0       -4.750660    2.761798    1.279310
      4          6           0       -9.290550    3.179017   -0.489157
      5          6           0       -9.580134   -1.723102   -0.834921
      6          7           0       -5.077284    0.383577    0.800332
      7          6           0       -4.337655   -0.752084    0.735195
      8          6           0       -2.880635   -0.538513    1.213423
      9          6           0       -3.101136    0.915740    1.833664
     10          6           0       -4.327139    1.452771    1.253705
     11          6           0       -3.098223    1.018620    3.277237
     12          6           0       -1.855644   -0.663562    0.074154
     13          6           0       -0.464112   -0.497589    0.565340
     14          6           0        0.530165   -0.634806   -0.617635
     15          8           0        0.217612   -0.849568   -1.765674
     16          8           0        1.804535   -0.526169   -0.131920
     17          7           0       -7.013928    2.670832    0.234089
     18          6           0       -5.957237    3.356119    0.746382
     19          6           0       -6.294854    4.795675    0.808186
     20          6           0       -7.600772    4.928091    0.287564
     21          6           0       -8.021625    3.526770   -0.032571
     22          6           0       -5.372879    5.850939    1.338386
     23          6           0       -8.424511    6.095957    0.133634
     24          6           0       -8.347589    7.263142    0.836347
     25          7           0       -9.065338    0.683008   -0.510892
     26          6           0       -9.766276    1.878682   -0.636788
     27          6           0      -11.097524    1.568418   -1.075197
     28          6           0      -11.140880    0.188882   -1.206736
     29          6           0       -9.858133   -0.299467   -0.860308
     30          6           0      -12.126863    2.513390   -1.394578
     31          6           0      -12.233389   -0.581861   -1.773165
     32          6           0      -12.111301   -0.924256   -3.145647
     33          7           0       -7.149167   -1.435826   -0.205689
     34          6           0       -8.298247   -2.232256   -0.580611
     35          6           0       -7.810237   -3.630163   -0.570925
     36          6           0       -6.557412   -3.561339   -0.107558
     37          6           0       -6.218329   -2.306081    0.146763
     38          6           0       -8.562237   -4.787288   -1.073115
     39          6           0       -5.247875   -4.366529    0.077645
     40          8           0       -5.062775   -5.490869    0.024364
     41          6           0       -4.143827   -3.443838    0.568828
     42          6           0       -3.687715   -3.777787    1.966843
     43          8           0       -3.862176   -3.205082    2.993111
     44          8           0       -2.873095   -4.804314    1.773662
     45          6           0       -2.349065   -5.410244    3.005328
     46          6           0        2.818314   -0.584087   -1.139514
     47          6           0        4.130956   -0.341589   -0.513479
     48          6           0        5.086392    0.440812   -1.030222
     49          6           0        5.039935    1.261427   -2.250964
     50          6           0        6.370320    0.597120   -0.297827
     51          6           0        7.576399   -0.133105   -1.076382
     52          6           0        8.781224   -0.263305   -0.236496
     53          6           0       10.141361   -0.642506   -0.972123
     54          6           0       10.103564   -2.091414   -1.552887
     55          6           0       11.352497   -0.434099    0.003873
     56          6           0       12.634395   -0.542844   -0.692627
     57          6           0       13.938278   -0.189338    0.089572
     58          6           0       15.334079   -0.184452   -0.558564
     59          6           0       15.643158   -1.589394   -0.998687
     60          6           0       16.387705    0.359908    0.477865
     61          6           0       17.683397    0.659339   -0.215061
     62          6           0       18.657665    1.239381    0.876535
     63          6           0       20.174543    1.370415    0.305504
     64          6           0       20.177487    2.381174   -0.906297
     65          6           0       21.119748    1.983562    1.480489
     66          1           0       -3.947245    3.431666    1.636716
     67          1           0      -10.138908    3.947719   -0.592102
     68          1           0      -10.373755   -2.336045   -1.008718
     69          1           0       -2.837375   -1.342405    2.034207
     70          1           0       -2.159034    1.461688    1.418073
     71          1           0       -2.062184    0.697507    3.616264
     72          1           0       -3.688553    2.152104    3.692379
     73          1           0       -3.755264    0.120056    3.698476
     74          1           0       -1.736324   -1.620433   -0.492422
     75          1           0       -2.027787    0.135010   -0.608568
     76          1           0       -0.214224    0.395938    1.125895
     77          1           0       -0.036024   -1.349447    1.291802
     78          1           0       -5.567183    6.739167    0.576338
     79          1           0       -5.589188    5.948560    2.224369
     80          1           0       -4.353091    5.722430    1.026630
     81          1           0       -9.148057    6.126540   -0.627403
     82          1           0       -9.130504    8.124648    0.543756
     83          1           0       -7.875163    7.320180    1.768082
     84          1           0      -11.947110    3.074947   -2.245556
     85          1           0      -13.145667    2.231659   -1.692207
     86          1           0      -12.290861    3.152150   -0.574664
     87          1           0      -12.285322   -1.479374   -0.997360
     88          1           0      -13.169131    0.079835   -1.518673
     89          1           0      -13.005522   -1.603059   -3.397509
     90          1           0      -12.361200   -0.161551   -3.895549
     91          1           0      -11.137337   -1.377271   -3.230587
     92          1           0       -8.905166   -4.533215   -1.994449
     93          1           0       -8.086667   -5.608391   -0.995327
     94          1           0       -9.620516   -4.927000   -0.432120
     95          1           0       -3.512266   -3.470813   -0.279262
     96          1           0       -1.580768   -4.607068    3.430992
     97          1           0       -3.149663   -5.387131    3.483344
     98          1           0       -1.698809   -6.258568    2.767421
     99          1           0        2.844540   -1.567927   -1.567718
    100          1           0        2.484934    0.045981   -1.885342
    101          1           0        4.486449   -0.884761    0.520780
    102          1           0        3.990044    1.218062   -2.744347
    103          1           0        5.279557    2.311033   -2.035412
    104          1           0        5.592987    0.988939   -3.129622
    105          1           0        6.547079    1.696172   -0.093167
    106          1           0        6.020585   -0.040374    0.441092
    107          1           0        7.419715   -1.042065   -1.683164
    108          1           0        7.691332    0.445048   -1.989678
    109          1           0        9.107283    0.573835    0.395238
    110          1           0        8.660853   -0.952211    0.764217
    111          1           0       10.238636    0.185685   -1.574053
    112          1           0        9.131690   -2.106336   -2.083594
    113          1           0       10.747780   -2.211032   -2.302946
    114          1           0        9.963917   -2.834111   -0.857945
    115          1           0       11.298212    0.596161    0.513913
    116          1           0       11.229510   -1.219935    0.792884
    117          1           0       12.831403   -1.502025   -1.052486
    118          1           0       12.586885    0.011192   -1.551858
    119          1           0       13.737982    0.730293    0.471579
    120          1           0       13.925836   -0.945957    1.087590
    121          1           0       15.417029    0.362328   -1.500714
    122          1           0       15.649655   -2.271509    0.015765
    123          1           0       14.967903   -1.988631   -1.785180
    124          1           0       16.614494   -1.729496   -1.330490
    125          1           0       15.772384    1.231978    0.686485
    126          1           0       16.407167   -0.518778    1.340812
    127          1           0       18.086204   -0.261903   -0.615917
    128          1           0       17.724941    1.320567   -0.985442
    129          1           0       18.470599    2.243818    1.115051
    130          1           0       18.724688    0.312353    1.698290
    131          1           0       20.553988    0.420248   -0.099044
    132          1           0       19.648585    3.331827   -0.704952
    133          1           0       21.119071    2.474162   -1.171137
    134          1           0       19.621106    2.031124   -1.795531
    135          1           0       21.000529    1.178850    2.287203
    136          1           0       22.163297    1.799653    1.290612
    137          1           0       20.945047    3.077933    1.869976
 ---------------------------------------------------------------------

 SCF Done:  E(RCAM-B3LYP) =  -2933.45422889     A.U. after   16 cycles

 Excitation energies and oscillator strengths:

 Excited State   1:      Singlet-A      2.0959 eV  591.55 nm  f=0.1974  <S**2>=0.000
     240 -> 243        0.27711
     241 -> 242        0.63937
 This state for optimization and/or second-order correction.
 Total Energy, E(TD-HF/TD-DFT) =  -2933.37720550
 Copying the excited state density for this state as the 1-particle RhoCI density.

 The electronic state is 1-A.
 Alpha  occ. eigenvalues --  -46.79704 -19.21866 -19.21847 -19.17567 -19.17506
 Alpha  occ. eigenvalues --  -19.16802 -14.36747 -14.35180 -14.34151 -14.34112
 Alpha  occ. eigenvalues --  -10.34666 -10.34664 -10.30337 -10.26746 -10.26482
 Alpha  occ. eigenvalues --  -10.25760 -10.25325 -10.25266 -10.24915 -10.24398
 Alpha  occ. eigenvalues --  -10.23784 -10.23612 -10.23501 -10.23388 -10.23378
 Alpha  occ. eigenvalues --  -10.23222 -10.23095 -10.23021 -10.22810 -10.22804
 Alpha  occ. eigenvalues --  -10.22628 -10.22551 -10.22460 -10.22372 -10.22266
 Alpha  occ. eigenvalues --  -10.22168 -10.22118 -10.22032 -10.21961 -10.21840
 Alpha  occ. eigenvalues --  -10.21763 -10.21706 -10.21663 -10.21658 -10.21623
 Alpha  occ. eigenvalues --  -10.21607 -10.21460 -10.21432 -10.21356 -10.21289
 Alpha  occ. eigenvalues --  -10.21033 -10.20694 -10.20679 -10.20622 -10.20422
 Alpha  occ. eigenvalues --  -10.20361 -10.20134 -10.19932 -10.19863 -10.19748
 Alpha  occ. eigenvalues --  -10.19677 -10.19394 -10.19088 -10.19016 -10.18670
 Alpha  occ. eigenvalues --   -3.08143  -1.83109  -1.82583  -1.82554  -1.14568
 Alpha  occ. eigenvalues --   -1.13021  -1.11291  -1.05936  -1.05248  -0.98930
 Alpha  occ. eigenvalues --   -0.98201  -0.98003  -0.97217  -0.86956  -0.86701
 Alpha  occ. eigenvalues --   -0.85374  -0.84906  -0.84483  -0.84104  -0.83513
 Alpha  occ. eigenvalues --   -0.83280  -0.82978  -0.82403  -0.81837  -0.81151
 Alpha  occ. eigenvalues --   -0.80312  -0.79683  -0.79286  -0.78247  -0.78152
 Alpha  occ. eigenvalues --   -0.77085  -0.76776  -0.75614  -0.75398  -0.73598
 Alpha  occ. eigenvalues --   -0.73221  -0.72688  -0.72470  -0.71800  -0.70993
 Alpha  occ. eigenvalues --   -0.70636  -0.70617  -0.69498  -0.68450  -0.67628
 Alpha  occ. eigenvalues --   -0.66556  -0.66031  -0.64451  -0.64206  -0.63091
 Alpha  occ. eigenvalues --   -0.62768  -0.62271  -0.60565  -0.60485  -0.60119
 Alpha  occ. eigenvalues --   -0.59548  -0.59409  -0.59297  -0.58594  -0.58287
 Alpha  occ. eigenvalues --   -0.57537  -0.56711  -0.56181  -0.55776  -0.55226
 Alpha  occ. eigenvalues --   -0.54972  -0.54574  -0.53984  -0.53502  -0.53215
 Alpha  occ. eigenvalues --   -0.52664  -0.52359  -0.51712  -0.51195  -0.50959
 Alpha  occ. eigenvalues --   -0.50539  -0.50428  -0.50197  -0.50180  -0.50089
 Alpha  occ. eigenvalues --   -0.49891  -0.49293  -0.48986  -0.48773  -0.48548
 Alpha  occ. eigenvalues --   -0.48042  -0.47956  -0.47836  -0.47292  -0.47031
 Alpha  occ. eigenvalues --   -0.46961  -0.46821  -0.46581  -0.46250  -0.45863
 Alpha  occ. eigenvalues --   -0.45823  -0.45446  -0.45232  -0.45081  -0.44975
 Alpha  occ. eigenvalues --   -0.44521  -0.44423  -0.44205  -0.43916  -0.43845
 Alpha  occ. eigenvalues --   -0.43513  -0.43316  -0.43084  -0.42931  -0.42781
 Alpha  occ. eigenvalues --   -0.42616  -0.42398  -0.42112  -0.42076  -0.42026
 Alpha  occ. eigenvalues --   -0.41903  -0.41455  -0.41220  -0.41046  -0.40799
 Alpha  occ. eigenvalues --   -0.40694  -0.40408  -0.40329  -0.40048  -0.39959
 Alpha  occ. eigenvalues --   -0.39910  -0.39791  -0.39716  -0.39370  -0.39037
 Alpha  occ. eigenvalues --   -0.38784  -0.38624  -0.38272  -0.38079  -0.38041
 Alpha  occ. eigenvalues --   -0.37864  -0.37609  -0.37365  -0.37161  -0.36691
 Alpha  occ. eigenvalues --   -0.36384  -0.36279  -0.36067  -0.36048  -0.35580
 Alpha  occ. eigenvalues --   -0.35575  -0.35210  -0.34727  -0.34456  -0.33788
 Alpha  occ. eigenvalues --   -0.33648  -0.33434  -0.33429  -0.33241  -0.33172
 Alpha  occ. eigenvalues --   -0.32858  -0.32825  -0.32783  -0.32280  -0.32132
 Alpha  occ. eigenvalues --   -0.32062  -0.31898  -0.31841  -0.31596  -0.30607
 Alpha  occ. eigenvalues --   -0.29813  -0.29560  -0.29363  -0.28159  -0.27024
 Alpha  occ. eigenvalues --   -0.26935  -0.26482  -0.24916  -0.24228  -0.20940
 Alpha  occ. eigenvalues --   -0.19614
 Alpha virt. eigenvalues --   -0.06260  -0.03697   0.01270   0.02600   0.04053
 Alpha virt. eigenvalues --    0.04251   0.04654   0.05165   0.05685   0.06258
 Alpha virt. eigenvalues --    0.06824   0.08879   0.09843   0.09976   0.10355

 Mulliken charges:
               1
     1  Mg   0.809813
     2  C    0.011554
     3  C   -0.199810
     4  C   -0.162592
     5  C   -0.153220
     6  N   -0.617808
     7  C    0.279542
     8  C   -0.173796
     9  C   -0.140806
    10  C    0.351192
    11  C   -0.281022
    12  C   -0.155511
    13  C   -0.271826
    14  C    0.606485
    15  O   -0.470107
    16  O   -0.479264
    17  N   -0.705459
    18  C    0.311036
    19  C   -0.041181
    20  C    0.039435
    21  C    0.305513
    22  C   -0.348122
    23  C   -0.092510
    24  C   -0.240814
    25  N   -0.716583
    26  C    0.282038
    27  C    0.060137
    28  C    0.000813
    29  C    0.326927
    30  C   -0.410890
    31  C   -0.238718
    32  C   -0.283230
    33  N   -0.726364
    34  C    0.249422
    35  C   -0.030497
    36  C    0.031787
    37  C    0.327985
    38  C   -0.342617
    39  C    0.341777
    40  O   -0.385139
    41  C   -0.301593
    42  C    0.639336
    43  O   -0.460884
    44  O   -0.445681
    45  C   -0.062806
    46  C    0.019825
    47  C   -0.149352
    48  C    0.136608
    49  C   -0.371331
    50  C   -0.211559
    51  C   -0.184512
    52  C   -0.167854
    53  C   -0.066804
    54  C   -0.308911
    55  C   -0.175889
    56  C   -0.179615
    57  C   -0.157192
    58  C   -0.080648
    59  C   -0.291453
    60  C   -0.144933
    61  C   -0.180461
    62  C   -0.149221
    63  C   -0.076054
    64  C   -0.313375
    65  C   -0.319485
    66  H    0.079131
    67  H    0.090331
    68  H    0.076494
    69  H    0.120203
    70  H    0.081245
    71  H    0.104889
    72  H    0.081087
    73  H    0.115237
    74  H    0.125655
    75  H    0.127367
    76  H    0.134952
    77  H    0.115856
    78  H    0.110052
    79  H    0.133819
    80  H    0.120088
    81  H    0.092617
    82  H    0.082831
    83  H    0.104219
    84  H    0.131190
    85  H    0.109198
    86  H    0.124614
    87  H    0.084425
    88  H    0.081379
    89  H    0.090750
    90  H    0.112885
    91  H    0.110302
    92  H    0.138210
    93  H    0.136828
    94  H    0.087370
    95  H    0.169892
    96  H    0.103843
    97  H    0.139807
    98  H    0.139503
    99  H    0.126002
   100  H    0.126622
   101  H    0.085232
   102  H    0.087704
   103  H    0.117128
   104  H    0.130152
   105  H    0.104722
   106  H    0.098824
   107  H    0.099899
   108  H    0.094338
   109  H    0.088490
   110  H    0.054462
   111  H    0.094151
   112  H    0.086098
   113  H    0.116422
   114  H    0.119754
   115  H    0.071540
   116  H    0.082773
   117  H    0.102454
   118  H    0.089612
   119  H    0.087885
   120  H    0.049028
   121  H    0.083579
   122  H    0.062138
   123  H    0.097427
   124  H    0.100597
   125  H    0.097603
   126  H    0.076028
   127  H    0.096745
   128  H    0.103934
   129  H    0.103572
   130  H    0.065178
   131  H    0.086546
   132  H    0.094074
   133  H    0.112483
   134  H    0.089007
   135  H    0.092483
   136  H    0.105882
   137  H    0.099434
 Sum of Mulliken charges =  -0.00000

 Dipole moment (field-independent basis, Debye):
    X=              2.4868    Y=              1.8624    Z=             -0.8107  Tot=              3.2109
 Quadrupole moment (field-independent basis, Debye-Ang):
   XX=           -352.8625   YY=           -387.9869   ZZ=           -395.5971
   XY=             -8.0675   XZ=             -3.2501   YZ=             -4.9401

 Normal termination of Gaussian 16 at Sun Sep 15 22:58:58 2019.
