 Gaussian 16, Revision A.03,
 Gaussian 16:  ES64L-G16RevA.03 25-Dec-2016

 ----------------------------------------------------------------------
 # td=(NStates=1) iop(3/107=0140000000,3/108=0140000000) CAM-B3LYP/6-31
 G(d,p)
 ----------------------------------------------------------------------

 --
 TD
 --
 Symbolic Z-matrix:
 Charge =  0 Multiplicity = 1

                         Standard orientation:
 ---------------------------------------------------------------------
 Center     Atomic      Atomic             Coordinates (Angstroms)
 Number     Number       Type             X           Y           Z
 ---------------------------------------------------------------------
      1         12           0       -7.175968    0.621876    0.090277
      2          6           0       -4.915192   -1.931666    0.457765
      3          6           0       -4.854474    2.844552    1.286841
      4          6           0       -9.455333    3.067756   -0.545608
      5          6           0       -9.524261   -1.666276   -1.054492
      6          7           0       -5.189409    0.409743    0.825875
      7          6           0       -4.332334   -0.742528    0.956488
      8          6           0       -2.904649   -0.340701    1.271527
      9          6           0       -3.060457    1.123108    1.693631
     10          6           0       -4.508567    1.396850    1.362281
     11          6           0       -2.934760    1.332957    3.191325
     12          6           0       -1.983430   -0.613022    0.108040
     13          6           0       -0.477203   -0.464106    0.528993
     14          6           0        0.593216   -0.708178   -0.440799
     15          8           0        0.226258   -1.195267   -1.568095
     16          8           0        1.824354   -0.452565    0.044472
     17          7           0       -7.192340    2.649243    0.398525
     18          6           0       -6.077580    3.436729    0.836004
     19          6           0       -6.491040    4.797784    0.783990
     20          6           0       -7.758779    4.815213    0.324466
     21          6           0       -8.230702    3.434066    0.084635
     22          6           0       -5.575258    5.933331    1.135410
     23          6           0       -8.602227    5.953263    0.108270
     24          6           0       -8.479057    7.197492    0.700773
     25          7           0       -9.140584    0.622162   -0.649752
     26          6           0       -9.809917    1.787852   -0.854391
     27          6           0      -11.195456    1.452952   -1.146255
     28          6           0      -11.262606    0.112689   -1.255689
     29          6           0       -9.976649   -0.380263   -0.980161
     30          6           0      -12.358477    2.481956   -1.449776
     31          6           0      -12.411878   -0.686335   -1.922873
     32          6           0      -12.122173   -1.121832   -3.352972
     33          7           0       -7.242184   -1.370201   -0.084813
     34          6           0       -8.296488   -2.186171   -0.567636
     35          6           0       -7.879474   -3.632047   -0.484601
     36          6           0       -6.529753   -3.611085   -0.029327
     37          6           0       -6.184685   -2.182794    0.065890
     38          6           0       -8.645640   -4.743580   -0.905083
     39          6           0       -5.270750   -4.417966    0.150032
     40          8           0       -5.168884   -5.586036   -0.059517
     41          6           0       -4.313221   -3.398487    0.588892
     42          6           0       -3.565050   -3.671852    1.875002
     43          8           0       -3.868740   -3.214932    3.027511
     44          8           0       -2.730677   -4.774711    1.757469
     45          6           0       -2.153439   -5.279535    2.886545
     46          6           0        2.822998   -0.750480   -1.065434
     47          6           0        4.161982   -0.497556   -0.356283
     48          6           0        5.034162    0.443155   -0.786682
     49          6           0        4.908515    1.210057   -2.114203
     50          6           0        6.427381    0.414331    0.012181
     51          6           0        7.561179   -0.021933   -0.860164
     52          6           0        8.935939    0.090119   -0.027408
     53          6           0       10.200290   -0.301574   -0.819970
     54          6           0       10.075985   -1.752920   -1.357731
     55          6           0       11.516476   -0.114770   -0.014982
     56          6           0       12.889016   -0.438810   -0.763137
     57          6           0       14.133951   -0.101569    0.103213
     58          6           0       15.497286   -0.298146   -0.496482
     59          6           0       15.713639   -1.627781   -0.901414
     60          6           0       16.554774    0.374615    0.499220
     61          6           0       17.928171    0.483217   -0.231308
     62          6           0       18.901222    1.197755    0.663584
     63          6           0       20.335450    1.216345    0.018355
     64          6           0       20.499022    2.138487   -1.206155
     65          6           0       21.290572    1.898105    1.147640
     66          1           0       -4.152589    3.519626    1.734677
     67          1           0      -10.382025    3.757967   -0.622890
     68          1           0      -10.256000   -2.466830   -1.185213
     69          1           0       -2.768738   -0.969691    2.082024
     70          1           0       -2.376952    1.574382    1.206227
     71          1           0       -2.011624    0.850430    3.593116
     72          1           0       -2.908038    2.347871    3.600299
     73          1           0       -3.739577    0.841526    3.934469
     74          1           0       -2.101201   -1.609678   -0.277830
     75          1           0       -2.279071   -0.065678   -0.640697
     76          1           0       -0.283153    0.570833    1.084891
     77          1           0       -0.302373   -1.105396    1.425319
     78          1           0       -5.757737    6.902378    0.572678
     79          1           0       -5.805420    6.145808    2.226709
     80          1           0       -4.522140    5.399807    0.809888
     81          1           0       -9.577284    5.822172   -0.480370
     82          1           0       -9.181115    8.097848    0.679518
     83          1           0       -7.498396    7.293537    1.170915
     84          1           0      -12.196985    2.935254   -2.486421
     85          1           0      -13.399565    1.976456   -1.582569
     86          1           0      -12.330767    3.134198   -0.622088
     87          1           0      -12.535639   -1.719424   -1.483507
     88          1           0      -13.411988   -0.211646   -2.031348
     89          1           0      -13.101536   -1.727906   -3.620890
     90          1           0      -11.864104   -0.302317   -4.085676
     91          1           0      -11.375005   -1.940065   -3.339547
     92          1           0       -9.361254   -4.307228   -1.834599
     93          1           0       -7.871156   -5.607339   -0.836025
     94          1           0       -9.389546   -5.196806   -0.117525
     95          1           0       -3.541113   -3.485566   -0.213373
     96          1           0       -1.471710   -4.596276    3.309202
     97          1           0       -3.094203   -5.411242    3.647109
     98          1           0       -1.794558   -6.311629    2.688566
     99          1           0        2.698568   -1.871192   -1.265184
    100          1           0        2.665340   -0.076523   -1.951529
    101          1           0        4.269308   -1.182670    0.489461
    102          1           0        3.862121    1.232418   -2.569614
    103          1           0        5.302591    2.158842   -2.001703
    104          1           0        5.552153    0.729446   -2.771273
    105          1           0        6.520838    1.580129    0.496294
    106          1           0        6.501999   -0.025914    1.009848
    107          1           0        7.480630   -0.930713   -1.323892
    108          1           0        7.627283    0.458549   -1.807122
    109          1           0        9.032831    1.058350    0.311137
    110          1           0        9.168283   -0.715781    0.735827
    111          1           0       10.129330    0.397559   -1.708455
    112          1           0        9.294503   -1.843509   -2.190657
    113          1           0       11.052574   -2.034072   -1.814475
    114          1           0       10.072528   -2.547623   -0.719929
    115          1           0       11.651212    0.854077    0.498092
    116          1           0       11.478817   -0.969720    0.859325
    117          1           0       12.965159   -1.519657   -1.038360
    118          1           0       13.005256   -0.055674   -1.982300
    119          1           0       14.172203    0.930194    0.498751
    120          1           0       13.958756   -0.856577    1.010444
    121          1           0       15.627577    0.410813   -1.362151
    122          1           0       15.526240   -2.470417   -0.186347
    123          1           0       15.020952   -1.870734   -1.708750
    124          1           0       16.781893   -1.791168   -1.359302
    125          1           0       16.227159    1.288242    0.863848
    126          1           0       16.630719   -0.389984    1.459358
    127          1           0       18.078159   -0.662325   -0.517543
    128          1           0       17.675936    0.883841   -1.242350
    129          1           0       18.534642    2.115009    0.842007
    130          1           0       19.098944    0.674418    1.500269
    131          1           0       20.667608    0.009658   -0.120201
    132          1           0       20.231546    3.186207   -0.744210
    133          1           0       21.520800    1.868705   -1.679915
    134          1           0       19.852667    1.983004   -2.035452
    135          1           0       21.305455    1.351597    2.167756
    136          1           0       22.509228    1.842873    0.787792
    137          1           0       21.053885    3.109251    1.038702
 ---------------------------------------------------------------------

 SCF Done:  E(RCAM-B3LYP) =  -2933.45936716     A.U. after   16 cycles

 Excitation energies and oscillator strengths:

 Excited State   1:      Singlet-A      1.9391 eV  639.40 nm  f=0.2547  <S**2>=0.000
     240 -> 243        0.23166
     241 -> 242        0.66675
 This state for optimization and/or second-order correction.
 Total Energy, E(TD-HF/TD-DFT) =  -2933.38810713
 Copying the excited state density for this state as the 1-particle RhoCI density.

 The electronic state is 1-A.
 Alpha  occ. eigenvalues --  -46.79935 -19.23476 -19.22387 -19.17386 -19.16570
 Alpha  occ. eigenvalues --  -19.16240 -14.38475 -14.35125 -14.35063 -14.34272
 Alpha  occ. eigenvalues --  -10.35980 -10.34800 -10.30758 -10.28697 -10.27020
 Alpha  occ. eigenvalues --  -10.26962 -10.26879 -10.25576 -10.25177 -10.25102
 Alpha  occ. eigenvalues --  -10.25018 -10.24559 -10.24213 -10.24008 -10.23823
 Alpha  occ. eigenvalues --  -10.23820 -10.23795 -10.23775 -10.23767 -10.23741
 Alpha  occ. eigenvalues --  -10.23516 -10.23506 -10.23435 -10.23365 -10.23313
 Alpha  occ. eigenvalues --  -10.22828 -10.22718 -10.22718 -10.22695 -10.22663
 Alpha  occ. eigenvalues --  -10.22614 -10.22514 -10.22465 -10.22455 -10.22321
 Alpha  occ. eigenvalues --  -10.22177 -10.22126 -10.21942 -10.21777 -10.21726
 Alpha  occ. eigenvalues --  -10.21677 -10.21660 -10.21591 -10.21525 -10.21446
 Alpha  occ. eigenvalues --  -10.21391 -10.21271 -10.21245 -10.21208 -10.21102
 Alpha  occ. eigenvalues --  -10.21066 -10.20913 -10.20589 -10.20446 -10.19292
 Alpha  occ. eigenvalues --   -3.08494  -1.83443  -1.82976  -1.82883  -1.12850
 Alpha  occ. eigenvalues --   -1.11833  -1.07974  -1.02601  -1.01769  -0.99518
 Alpha  occ. eigenvalues --   -0.98954  -0.97477  -0.96908  -0.87878  -0.86442
 Alpha  occ. eigenvalues --   -0.86006  -0.85571  -0.84113  -0.84052  -0.83411
 Alpha  occ. eigenvalues --   -0.83202  -0.82649  -0.82514  -0.82165  -0.80949
 Alpha  occ. eigenvalues --   -0.80055  -0.79262  -0.78360  -0.77770  -0.77293
 Alpha  occ. eigenvalues --   -0.76828  -0.76411  -0.75699  -0.75346  -0.74024
 Alpha  occ. eigenvalues --   -0.72674  -0.71987  -0.71825  -0.71538  -0.71254
 Alpha  occ. eigenvalues --   -0.70606  -0.70069  -0.69304  -0.68254  -0.67600
 Alpha  occ. eigenvalues --   -0.67394  -0.67032  -0.64441  -0.63944  -0.63472
 Alpha  occ. eigenvalues --   -0.63219  -0.62605  -0.61592  -0.60828  -0.60025
 Alpha  occ. eigenvalues --   -0.59681  -0.59117  -0.58413  -0.58208  -0.58079
 Alpha  occ. eigenvalues --   -0.57187  -0.56869  -0.56216  -0.56135  -0.55724
 Alpha  occ. eigenvalues --   -0.54463  -0.53999  -0.53723  -0.53527  -0.52781
 Alpha  occ. eigenvalues --   -0.51957  -0.51487  -0.51215  -0.51199  -0.50983
 Alpha  occ. eigenvalues --   -0.50913  -0.50441  -0.50340  -0.49749  -0.49514
 Alpha  occ. eigenvalues --   -0.49152  -0.49026  -0.48581  -0.48143  -0.48084
 Alpha  occ. eigenvalues --   -0.47621  -0.47210  -0.47100  -0.46878  -0.46683
 Alpha  occ. eigenvalues --   -0.46571  -0.46340  -0.46139  -0.46089  -0.45936
 Alpha  occ. eigenvalues --   -0.45684  -0.45537  -0.45083  -0.44928  -0.44821
 Alpha  occ. eigenvalues --   -0.44596  -0.44480  -0.43918  -0.43754  -0.43637
 Alpha  occ. eigenvalues --   -0.43334  -0.43303  -0.43063  -0.42968  -0.42596
 Alpha  occ. eigenvalues --   -0.42422  -0.42139  -0.41776  -0.41680  -0.41473
 Alpha  occ. eigenvalues --   -0.41288  -0.41209  -0.40933  -0.40830  -0.40731
 Alpha  occ. eigenvalues --   -0.40621  -0.40584  -0.40122  -0.39844  -0.39596
 Alpha  occ. eigenvalues --   -0.39528  -0.39401  -0.39129  -0.38714  -0.38635
 Alpha  occ. eigenvalues --   -0.38495  -0.38418  -0.38300  -0.38200  -0.38132
 Alpha  occ. eigenvalues --   -0.37708  -0.37345  -0.37248  -0.36995  -0.36805
 Alpha  occ. eigenvalues --   -0.36632  -0.36516  -0.36457  -0.36092  -0.36025
 Alpha  occ. eigenvalues --   -0.35777  -0.35645  -0.35584  -0.35495  -0.35267
 Alpha  occ. eigenvalues --   -0.34813  -0.33998  -0.33662  -0.33498  -0.33365
 Alpha  occ. eigenvalues --   -0.33193  -0.33146  -0.32852  -0.32659  -0.32439
 Alpha  occ. eigenvalues --   -0.32244  -0.32068  -0.31189  -0.30488  -0.30299
 Alpha  occ. eigenvalues --   -0.29714  -0.29579  -0.29492  -0.28372  -0.27492
 Alpha  occ. eigenvalues --   -0.27353  -0.26223  -0.25656  -0.24384  -0.21745
 Alpha  occ. eigenvalues --   -0.19237
 Alpha virt. eigenvalues --   -0.06774  -0.03948  -0.01120   0.01123   0.02314
 Alpha virt. eigenvalues --    0.02810   0.03663   0.04510   0.05366   0.05873
 Alpha virt. eigenvalues --    0.06140   0.07976   0.09503   0.09524   0.09655

 Mulliken charges:
               1
     1  Mg   0.810632
     2  C    0.046052
     3  C   -0.201806
     4  C   -0.174791
     5  C   -0.185789
     6  N   -0.587331
     7  C    0.216305
     8  C   -0.142909
     9  C   -0.095440
    10  C    0.352687
    11  C   -0.334472
    12  C   -0.146688
    13  C   -0.279915
    14  C    0.635797
    15  O   -0.514009
    16  O   -0.466255
    17  N   -0.733003
    18  C    0.295163
    19  C    0.036815
    20  C    0.009069
    21  C    0.344249
    22  C   -0.369129
    23  C   -0.091096
    24  C   -0.250799
    25  N   -0.693431
    26  C    0.328113
    27  C   -0.024322
    28  C    0.052284
    29  C    0.310667
    30  C   -0.366336
    31  C   -0.239490
    32  C   -0.296668
    33  N   -0.708473
    34  C    0.270800
    35  C    0.045966
    36  C   -0.015285
    37  C    0.278519
    38  C   -0.411386
    39  C    0.394519
    40  O   -0.435862
    41  C   -0.298029
    42  C    0.596536
    43  O   -0.484443
    44  O   -0.420752
    45  C   -0.075906
    46  C   -0.010223
    47  C   -0.098903
    48  C    0.078577
    49  C   -0.368694
    50  C   -0.206909
    51  C   -0.179062
    52  C   -0.155435
    53  C   -0.073848
    54  C   -0.321672
    55  C   -0.164941
    56  C   -0.170243
    57  C   -0.155326
    58  C   -0.041551
    59  C   -0.307511
    60  C   -0.171455
    61  C   -0.182465
    62  C   -0.132337
    63  C   -0.065421
    64  C   -0.289002
    65  C   -0.282978
    66  H    0.080242
    67  H    0.088160
    68  H    0.077547
    69  H    0.126670
    70  H    0.103339
    71  H    0.102782
    72  H    0.117265
    73  H    0.114006
    74  H    0.123808
    75  H    0.123887
    76  H    0.106965
    77  H    0.136368
    78  H    0.127055
    79  H    0.132603
    80  H    0.097359
    81  H    0.076963
    82  H    0.109233
    83  H    0.078323
    84  H    0.122392
    85  H    0.107038
    86  H    0.131407
    87  H    0.096069
    88  H    0.104865
    89  H    0.082678
    90  H    0.108197
    91  H    0.105859
    92  H    0.107762
    93  H    0.149579
    94  H    0.120967
    95  H    0.164629
    96  H    0.124308
    97  H    0.103240
    98  H    0.127043
    99  H    0.135253
   100  H    0.124859
   101  H    0.099538
   102  H    0.113134
   103  H    0.132024
   104  H    0.139302
   105  H    0.053196
   106  H    0.117648
   107  H    0.111955
   108  H    0.092193
   109  H    0.100014
   110  H    0.085018
   111  H    0.076784
   112  H    0.093287
   113  H    0.095716
   114  H    0.114247
   115  H    0.099806
   116  H    0.066399
   117  H    0.097687
   118  H    0.045079
   119  H    0.083013
   120  H    0.071637
   121  H    0.081478
   122  H    0.100125
   123  H    0.107689
   124  H    0.083207
   125  H    0.093705
   126  H    0.056909
   127  H    0.077667
   128  H    0.088799
   129  H    0.096914
   130  H    0.107416
   131  H    0.058193
   132  H    0.088591
   133  H    0.102086
   134  H    0.107578
   135  H    0.099622
   136  H    0.061053
   137  H    0.081615
 Sum of Mulliken charges =  -0.00000

 Dipole moment (field-independent basis, Debye):
    X=              3.9640    Y=              3.6018    Z=             -0.0799  Tot=              5.3566
 Quadrupole moment (field-independent basis, Debye-Ang):
   XX=           -367.0849   YY=           -399.3426   ZZ=           -400.7248
   XY=            -21.7127   XZ=              6.5997   YZ=             -3.1919

 Normal termination of Gaussian 16 at Thu Sep 12 12:04:14 2019.
