 Gaussian 16, Revision A.03,
 Gaussian 16:  ES64L-G16RevA.03 25-Dec-2016

 ----------------------------------------------------------------------
 # td=(NStates=1) iop(3/107=0140000000,3/108=0140000000) CAM-B3LYP/6-31
 G(d,p)
 ----------------------------------------------------------------------

 --
 TD
 --
 Symbolic Z-matrix:
 Charge =  0 Multiplicity = 1

                         Standard orientation:
 ---------------------------------------------------------------------
 Center     Atomic      Atomic             Coordinates (Angstroms)
 Number     Number       Type             X           Y           Z
 ---------------------------------------------------------------------
      1         12           0       -7.129797    0.591905   -0.023796
      2          6           0       -4.762007   -1.965889    0.513118
      3          6           0       -4.791440    2.838282    1.172452
      4          6           0       -9.404167    3.117148   -0.336479
      5          6           0       -9.466151   -1.741009   -0.886557
      6          7           0       -5.062617    0.352470    0.778660
      7          6           0       -4.306940   -0.789626    0.789144
      8          6           0       -2.878560   -0.356408    1.199469
      9          6           0       -2.944816    1.034262    1.668904
     10          6           0       -4.349875    1.484944    1.120502
     11          6           0       -3.012561    1.477494    3.270450
     12          6           0       -1.849542   -0.686942    0.148689
     13          6           0       -0.571430   -0.608812    0.662453
     14          6           0        0.505850   -0.749107   -0.586745
     15          8           0        0.076227   -0.998758   -1.722744
     16          8           0        1.771657   -0.454929   -0.161225
     17          7           0       -7.097572    2.667630    0.368185
     18          6           0       -6.008733    3.369252    0.790441
     19          6           0       -6.323855    4.807251    0.804964
     20          6           0       -7.714419    4.873976    0.350738
     21          6           0       -8.097631    3.565423    0.064863
     22          6           0       -5.424718    5.848413    1.090669
     23          6           0       -8.617815    5.980156    0.213329
     24          6           0       -8.369194    7.181959    0.813488
     25          7           0       -9.086256    0.670510   -0.505194
     26          6           0       -9.795720    1.783922   -0.716924
     27          6           0      -11.159787    1.447034   -1.206229
     28          6           0      -11.141037    0.001051   -1.288252
     29          6           0       -9.846339   -0.437386   -0.861972
     30          6           0      -12.214257    2.468139   -1.526460
     31          6           0      -12.329014   -0.742031   -1.780046
     32          6           0      -12.155945   -1.292654   -3.131218
     33          7           0       -7.146592   -1.396603   -0.392170
     34          6           0       -8.170488   -2.221289   -0.696776
     35          6           0       -7.849029   -3.641090   -0.470370
     36          6           0       -6.479979   -3.594871   -0.025489
     37          6           0       -6.104531   -2.201897    0.031460
     38          6           0       -8.549368   -4.890984   -0.724547
     39          6           0       -5.337507   -4.344670    0.206474
     40          8           0       -5.024982   -5.564541    0.137148
     41          6           0       -4.172563   -3.348252    0.636250
     42          6           0       -3.564366   -3.597184    1.948378
     43          8           0       -3.841045   -3.046348    3.030994
     44          8           0       -2.812539   -4.764318    1.872493
     45          6           0       -2.064707   -4.975509    3.179354
     46          6           0        2.803056   -0.609989   -1.231096
     47          6           0        4.131218   -0.354415   -0.647410
     48          6           0        5.093712    0.385594   -1.100542
     49          6           0        5.028771    1.121267   -2.430921
     50          6           0        6.395749    0.461679   -0.266501
     51          6           0        7.681050   -0.138391   -0.964552
     52          6           0        8.902528   -0.072928   -0.111721
     53          6           0       10.147384   -0.576929   -0.889357
     54          6           0       10.079624   -2.106514   -1.284093
     55          6           0       11.390023   -0.257872    0.046962
     56          6           0       12.644370   -0.450406   -0.574253
     57          6           0       13.813570    0.007718    0.271373
     58          6           0       15.206165   -0.162554   -0.504235
     59          6           0       15.521435   -1.609341   -0.913252
     60          6           0       16.349913    0.318222    0.378396
     61          6           0       17.773741    0.346188   -0.173635
     62          6           0       18.650812    1.263449    0.685132
     63          6           0       20.152432    1.342806    0.253672
     64          6           0       20.251707    2.138881   -1.051051
     65          6           0       21.130063    1.941682    1.302618
     66          1           0       -4.003416    3.466546    1.399848
     67          1           0      -10.261515    3.898767   -0.723861
     68          1           0      -10.171721   -2.487928   -0.854613
     69          1           0       -2.747702   -0.846650    2.070053
     70          1           0       -2.179352    1.761137    1.171713
     71          1           0       -1.903064    0.986537    3.495838
     72          1           0       -3.146152    2.469066    3.387945
     73          1           0       -3.876978    1.135089    3.457733
     74          1           0       -1.991904   -1.823798   -0.172211
     75          1           0       -2.086921   -0.018287   -0.875193
     76          1           0       -0.333409    0.479585    1.212132
     77          1           0       -0.338848   -1.072625    1.403143
     78          1           0       -5.648664    6.804981    0.472918
     79          1           0       -5.370655    6.095002    2.171346
     80          1           0       -4.226196    5.602149    0.689611
     81          1           0       -9.488095    5.874859   -0.510735
     82          1           0       -9.189135    7.990537    0.639959
     83          1           0       -7.606792    7.411771    1.665213
     84          1           0      -11.804561    3.084213   -2.260839
     85          1           0      -13.226024    2.047015   -1.723217
     86          1           0      -12.319910    3.186593   -0.628488
     87          1           0      -12.450893   -1.582505   -1.089784
     88          1           0      -13.274438   -0.102439   -1.632694
     89          1           0      -13.211381   -1.831815   -3.414379
     90          1           0      -12.119648   -0.559072   -3.881492
     91          1           0      -11.269655   -1.669211   -3.205849
     92          1           0       -8.975177   -4.874654   -1.726565
     93          1           0       -7.724770   -5.737555   -0.782383
     94          1           0       -9.153096   -5.267902    0.089337
     95          1           0       -3.408994   -3.416713   -0.302174
     96          1           0       -1.358326   -4.243568    3.623517
     97          1           0       -2.857556   -5.047871    3.955150
     98          1           0       -1.303751   -5.591782    2.683766
     99          1           0        2.905956   -1.648822   -1.466938
    100          1           0        2.455277   -0.117928   -2.353180
    101          1           0        4.158419   -1.059511    0.272560
    102          1           0        4.036821    1.166017   -2.869325
    103          1           0        5.123165    2.340375   -2.444753
    104          1           0        5.937409    0.877990   -3.037920
    105          1           0        6.338949    1.623887   -0.074177
    106          1           0        6.183931    0.066763    0.635198
    107          1           0        7.238069   -1.191959   -1.426981
    108          1           0        7.556882    0.370932   -2.013516
    109          1           0        8.989649    1.029556    0.158831
    110          1           0        8.764297   -0.489317    0.948639
    111          1           0       10.413008    0.109164   -1.700629
    112          1           0        9.254334   -2.143568   -2.000396
    113          1           0       10.977371   -2.331887   -1.856419
    114          1           0       10.016692   -2.749232   -0.445236
    115          1           0       11.246094    0.881077    0.339001
    116          1           0       11.155967   -0.983469    1.013977
    117          1           0       12.862117   -1.326025   -1.086315
    118          1           0       12.764151    0.156323   -1.639899
    119          1           0       13.708865    1.089838    0.533476
    120          1           0       13.845339   -0.719264    1.118696
    121          1           0       15.264224    0.398455   -1.270081
    122          1           0       15.400647   -2.240704    0.141738
    123          1           0       14.936571   -2.098986   -1.568134
    124          1           0       16.528956   -1.954914   -1.277115
    125          1           0       16.033444    1.245237    0.808984
    126          1           0       16.116919   -0.342956    1.311346
    127          1           0       18.357252   -0.502711   -0.358320
    128          1           0       17.758407    0.672174   -1.154292
    129          1           0       18.152501    2.269471    0.714903
    130          1           0       18.839258    1.028600    1.729798
    131          1           0       20.603489    0.403411    0.182450
    132          1           0       19.919418    3.095456   -0.979329
    133          1           0       21.466619    2.177901   -1.300744
    134          1           0       19.833837    1.727236   -2.026223
    135          1           0       21.080217    1.206812    2.149094
    136          1           0       22.064233    1.973318    0.806436
    137          1           0       20.746144    2.854578    1.567567
 ---------------------------------------------------------------------

 SCF Done:  E(RCAM-B3LYP) =  -2933.36282904     A.U. after   16 cycles

 Excitation energies and oscillator strengths:

 Excited State   1:      Singlet-A      2.0341 eV  609.53 nm  f=0.2595  <S**2>=0.000
     240 -> 243        0.21225
     241 -> 242        0.66586
 This state for optimization and/or second-order correction.
 Total Energy, E(TD-HF/TD-DFT) =  -2933.28807687
 Copying the excited state density for this state as the 1-particle RhoCI density.

 The electronic state is 1-A.
 Alpha  occ. eigenvalues --  -46.80564 -19.23514 -19.21280 -19.17553 -19.16775
 Alpha  occ. eigenvalues --  -19.14790 -14.37150 -14.35758 -14.35161 -14.34973
 Alpha  occ. eigenvalues --  -10.35579 -10.34232 -10.29737 -10.28697 -10.26795
 Alpha  occ. eigenvalues --  -10.26720 -10.25475 -10.25309 -10.25267 -10.25163
 Alpha  occ. eigenvalues --  -10.24852 -10.24801 -10.24443 -10.24358 -10.24285
 Alpha  occ. eigenvalues --  -10.24256 -10.23788 -10.23761 -10.23742 -10.23610
 Alpha  occ. eigenvalues --  -10.23345 -10.23250 -10.23164 -10.23129 -10.23111
 Alpha  occ. eigenvalues --  -10.22671 -10.22646 -10.22475 -10.22347 -10.22328
 Alpha  occ. eigenvalues --  -10.22305 -10.22289 -10.22274 -10.22013 -10.21961
 Alpha  occ. eigenvalues --  -10.21938 -10.21889 -10.21781 -10.21724 -10.21549
 Alpha  occ. eigenvalues --  -10.21434 -10.21410 -10.21276 -10.21022 -10.20755
 Alpha  occ. eigenvalues --  -10.20683 -10.20555 -10.20536 -10.20535 -10.20437
 Alpha  occ. eigenvalues --  -10.20404 -10.20198 -10.19912 -10.19834 -10.19312
 Alpha  occ. eigenvalues --   -3.08996  -1.83948  -1.83444  -1.83411  -1.11611
 Alpha  occ. eigenvalues --   -1.10064  -1.04003  -1.02691  -1.01941  -0.99027
 Alpha  occ. eigenvalues --   -0.98181  -0.97898  -0.97084  -0.87928  -0.86612
 Alpha  occ. eigenvalues --   -0.86269  -0.85809  -0.84559  -0.84521  -0.84114
 Alpha  occ. eigenvalues --   -0.83424  -0.83234  -0.82766  -0.82444  -0.81112
 Alpha  occ. eigenvalues --   -0.80769  -0.79466  -0.79189  -0.78480  -0.77565
 Alpha  occ. eigenvalues --   -0.77029  -0.76833  -0.75885  -0.75421  -0.74348
 Alpha  occ. eigenvalues --   -0.73459  -0.72296  -0.71966  -0.71334  -0.70854
 Alpha  occ. eigenvalues --   -0.70581  -0.70323  -0.69939  -0.68598  -0.68035
 Alpha  occ. eigenvalues --   -0.67010  -0.65897  -0.65674  -0.65054  -0.64497
 Alpha  occ. eigenvalues --   -0.62949  -0.62420  -0.60940  -0.60727  -0.60478
 Alpha  occ. eigenvalues --   -0.60311  -0.60226  -0.59658  -0.59092  -0.58520
 Alpha  occ. eigenvalues --   -0.57498  -0.56244  -0.56185  -0.55500  -0.55141
 Alpha  occ. eigenvalues --   -0.54825  -0.54027  -0.53680  -0.52964  -0.52861
 Alpha  occ. eigenvalues --   -0.51860  -0.51618  -0.51510  -0.51045  -0.50666
 Alpha  occ. eigenvalues --   -0.50408  -0.50016  -0.49631  -0.49503  -0.49414
 Alpha  occ. eigenvalues --   -0.48775  -0.48712  -0.48533  -0.48419  -0.47962
 Alpha  occ. eigenvalues --   -0.47820  -0.47445  -0.47317  -0.47002  -0.46822
 Alpha  occ. eigenvalues --   -0.46726  -0.46408  -0.46232  -0.45941  -0.45746
 Alpha  occ. eigenvalues --   -0.45737  -0.45544  -0.45204  -0.45129  -0.44661
 Alpha  occ. eigenvalues --   -0.44503  -0.44278  -0.44136  -0.43942  -0.43771
 Alpha  occ. eigenvalues --   -0.43629  -0.43486  -0.42966  -0.42736  -0.42661
 Alpha  occ. eigenvalues --   -0.42588  -0.42407  -0.42227  -0.42018  -0.41821
 Alpha  occ. eigenvalues --   -0.41620  -0.41383  -0.41243  -0.41105  -0.40900
 Alpha  occ. eigenvalues --   -0.40764  -0.40436  -0.40313  -0.40256  -0.39908
 Alpha  occ. eigenvalues --   -0.39525  -0.39387  -0.39258  -0.39156  -0.38961
 Alpha  occ. eigenvalues --   -0.38719  -0.38643  -0.38302  -0.38216  -0.38072
 Alpha  occ. eigenvalues --   -0.37811  -0.37702  -0.37014  -0.36882  -0.36673
 Alpha  occ. eigenvalues --   -0.36547  -0.36523  -0.35942  -0.35883  -0.35746
 Alpha  occ. eigenvalues --   -0.35492  -0.35153  -0.35007  -0.34773  -0.34232
 Alpha  occ. eigenvalues --   -0.34067  -0.34021  -0.33671  -0.33492  -0.33294
 Alpha  occ. eigenvalues --   -0.33076  -0.33042  -0.32765  -0.32598  -0.32010
 Alpha  occ. eigenvalues --   -0.31999  -0.31817  -0.31318  -0.30435  -0.30223
 Alpha  occ. eigenvalues --   -0.30028  -0.29642  -0.29405  -0.28470  -0.27546
 Alpha  occ. eigenvalues --   -0.26805  -0.26082  -0.25104  -0.24107  -0.21619
 Alpha  occ. eigenvalues --   -0.20423
 Alpha virt. eigenvalues --   -0.07661  -0.03936  -0.00773   0.01632   0.02508
 Alpha virt. eigenvalues --    0.03215   0.04331   0.04564   0.04784   0.05742
 Alpha virt. eigenvalues --    0.06871   0.08596   0.09140   0.09208   0.09423

 Mulliken charges:
               1
     1  Mg   0.818476
     2  C    0.115170
     3  C   -0.184716
     4  C   -0.165790
     5  C   -0.150319
     6  N   -0.643375
     7  C    0.294328
     8  C   -0.130927
     9  C   -0.186853
    10  C    0.300765
    11  C   -0.278326
    12  C   -0.136767
    13  C   -0.213617
    14  C    0.608297
    15  O   -0.465007
    16  O   -0.468564
    17  N   -0.714159
    18  C    0.352658
    19  C    0.056392
    20  C    0.045004
    21  C    0.292763
    22  C   -0.413466
    23  C   -0.079033
    24  C   -0.251665
    25  N   -0.711378
    26  C    0.295688
    27  C    0.022897
    28  C    0.000327
    29  C    0.320022
    30  C   -0.386559
    31  C   -0.237359
    32  C   -0.287001
    33  N   -0.718245
    34  C    0.266342
    35  C    0.038086
    36  C    0.093057
    37  C    0.240259
    38  C   -0.411865
    39  C    0.305487
    40  O   -0.496060
    41  C   -0.321111
    42  C    0.639555
    43  O   -0.493081
    44  O   -0.457518
    45  C   -0.107402
    46  C   -0.003025
    47  C   -0.137154
    48  C    0.126087
    49  C   -0.364925
    50  C   -0.214016
    51  C   -0.166886
    52  C   -0.166874
    53  C   -0.068368
    54  C   -0.314596
    55  C   -0.148553
    56  C   -0.161589
    57  C   -0.169795
    58  C   -0.064769
    59  C   -0.305660
    60  C   -0.162209
    61  C   -0.170095
    62  C   -0.170404
    63  C   -0.080673
    64  C   -0.293805
    65  C   -0.311929
    66  H    0.070529
    67  H    0.067487
    68  H    0.094188
    69  H    0.120661
    70  H    0.094590
    71  H    0.096722
    72  H    0.122098
    73  H    0.139531
    74  H    0.099010
    75  H    0.103752
    76  H    0.080158
    77  H    0.123720
    78  H    0.124826
    79  H    0.130281
    80  H    0.080617
    81  H    0.098741
    82  H    0.088271
    83  H    0.107980
    84  H    0.139561
    85  H    0.115346
    86  H    0.115839
    87  H    0.105087
    88  H    0.089508
    89  H    0.081502
    90  H    0.113624
    91  H    0.116707
    92  H    0.129437
    93  H    0.143192
    94  H    0.139904
    95  H    0.153987
    96  H    0.114491
    97  H    0.157889
    98  H    0.134419
    99  H    0.137707
   100  H    0.110118
   101  H    0.093593
   102  H    0.120207
   103  H    0.085665
   104  H    0.123457
   105  H    0.084877
   106  H    0.105484
   107  H    0.074943
   108  H    0.084975
   109  H    0.096827
   110  H    0.095189
   111  H    0.092088
   112  H    0.110573
   113  H    0.106183
   114  H    0.114649
   115  H    0.074253
   116  H    0.059623
   117  H    0.109606
   118  H    0.045441
   119  H    0.092112
   120  H    0.093127
   121  H    0.090446
   122  H    0.062122
   123  H    0.107961
   124  H    0.098966
   125  H    0.085555
   126  H    0.068170
   127  H    0.101060
   128  H    0.101247
   129  H    0.078440
   130  H    0.086784
   131  H    0.094185
   132  H    0.116157
   133  H    0.051033
   134  H    0.092833
   135  H    0.093494
   136  H    0.108925
   137  H    0.112100
 Sum of Mulliken charges =  -0.00000

 Dipole moment (field-independent basis, Debye):
    X=              2.1091    Y=              4.9657    Z=             -0.5886  Tot=              5.4271
 Quadrupole moment (field-independent basis, Debye-Ang):
   XX=           -341.9129   YY=           -404.6176   ZZ=           -397.0485
   XY=            -27.2932   XZ=              7.2463   YZ=             -0.6502

 Normal termination of Gaussian 16 at Tue Sep 17 18:14:00 2019.
