 Gaussian 16, Revision A.03,
 Gaussian 16:  ES64L-G16RevA.03 25-Dec-2016

 -------------------------------------
 # td=(NStates=1) CAM-B3LYP/6-31G(d,p)
 -------------------------------------

 --
 TD
 --
 Symbolic Z-matrix:
 Charge =  0 Multiplicity = 1

                         Standard orientation:
 ---------------------------------------------------------------------
 Center     Atomic      Atomic             Coordinates (Angstroms)
 Number     Number       Type             X           Y           Z
 ---------------------------------------------------------------------
      1         12           0       -7.156162    0.582298    0.067396
      2          6           0       -4.982302   -2.014016    0.517114
      3          6           0       -4.860979    2.825139    1.020829
      4          6           0       -9.472979    3.145525   -0.352975
      5          6           0       -9.579112   -1.734176   -0.821645
      6          7           0       -5.139892    0.439810    0.786606
      7          6           0       -4.445008   -0.689807    0.905447
      8          6           0       -2.949843   -0.424488    1.136172
      9          6           0       -2.946339    1.007444    1.638965
     10          6           0       -4.333308    1.491484    1.171817
     11          6           0       -2.943010    1.336288    3.105247
     12          6           0       -1.950636   -0.613390    0.083255
     13          6           0       -0.520213   -0.482850    0.608383
     14          6           0        0.560259   -0.703580   -0.632009
     15          8           0        0.270208   -1.126801   -1.665402
     16          8           0        1.761789   -0.504683   -0.096260
     17          7           0       -7.226171    2.664438    0.385042
     18          6           0       -6.071555    3.323602    0.724392
     19          6           0       -6.507962    4.780587    0.790285
     20          6           0       -7.755373    4.899105    0.289589
     21          6           0       -8.200070    3.500888    0.120835
     22          6           0       -5.456835    5.825571    1.021699
     23          6           0       -8.474218    6.127522    0.177793
     24          6           0       -8.370204    7.345268    0.756409
     25          7           0       -9.227603    0.638815   -0.400126
     26          6           0       -9.931075    1.821998   -0.695861
     27          6           0      -11.229387    1.486910   -1.201437
     28          6           0      -11.261491    0.106248   -1.210578
     29          6           0       -9.980826   -0.419856   -0.783473
     30          6           0      -12.315832    2.478433   -1.391993
     31          6           0      -12.288088   -0.753443   -1.896663
     32          6           0      -12.164597   -1.012416   -3.306601
     33          7           0       -7.287902   -1.431876   -0.075449
     34          6           0       -8.283044   -2.156453   -0.396419
     35          6           0       -7.913281   -3.623814   -0.427701
     36          6           0       -6.518714   -3.570122   -0.203771
     37          6           0       -6.290834   -2.250576    0.102830
     38          6           0       -8.686204   -4.866910   -0.863023
     39          6           0       -5.383123   -4.412589    0.242067
     40          8           0       -5.100072   -5.551239    0.174277
     41          6           0       -4.233883   -3.291590    0.617747
     42          6           0       -3.462727   -3.613830    1.917963
     43          8           0       -3.874368   -3.108322    2.947464
     44          8           0       -2.678857   -4.665463    1.681097
     45          6           0       -2.268406   -5.148762    3.042599
     46          6           0        2.811309   -0.686556   -1.101151
     47          6           0        4.124226   -0.368419   -0.508699
     48          6           0        5.119909    0.329093   -1.040543
     49          6           0        5.115612    1.103880   -2.290534
     50          6           0        6.461394    0.413899   -0.232247
     51          6           0        7.604960   -0.380415   -0.905533
     52          6           0        8.883157   -0.247222   -0.217964
     53          6           0       10.232750   -0.620148   -0.902977
     54          6           0       10.022844   -2.050343   -1.351148
     55          6           0       11.436198   -0.406314   -0.005250
     56          6           0       12.769903   -0.624810   -0.744939
     57          6           0       13.960901   -0.109369    0.105499
     58          6           0       15.385518   -0.135714   -0.450769
     59          6           0       15.751521   -1.503676   -0.799456
     60          6           0       16.526359    0.460180    0.549893
     61          6           0       17.819671    0.683034   -0.122634
     62          6           0       18.905054    1.287910    0.742440
     63          6           0       20.332392    1.386485    0.176189
     64          6           0       20.453922    2.209671   -1.090348
     65          6           0       21.284340    1.914319    1.228481
     66          1           0       -4.053488    3.420648    1.188495
     67          1           0      -10.175744    3.871894   -0.406416
     68          1           0      -10.204775   -2.498136   -1.176633
     69          1           0       -2.504411   -0.926340    2.060360
     70          1           0       -2.135642    1.597237    1.152404
     71          1           0       -1.736587    1.247038    3.555351
     72          1           0       -3.188246    2.332742    3.436467
     73          1           0       -3.646071    0.646007    3.736119
     74          1           0       -2.118349   -1.708872   -0.196355
     75          1           0       -2.122587   -0.020456   -0.886624
     76          1           0       -0.059085    0.509056    0.771667
     77          1           0       -0.312987   -1.143273    1.651687
     78          1           0       -5.854489    6.623893    0.356553
     79          1           0       -5.563447    6.348558    2.049410
     80          1           0       -4.427772    5.708244    0.807735
     81          1           0       -9.347954    6.304578   -0.453641
     82          1           0       -9.022419    8.194908    0.586108
     83          1           0       -7.580642    7.753018    1.661251
     84          1           0      -11.961724    3.361516   -1.811425
     85          1           0      -13.177812    1.774274   -1.977508
     86          1           0      -12.715946    2.976078   -0.438907
     87          1           0      -12.114196   -1.792016   -1.485923
     88          1           0      -13.116618   -0.173395   -1.340283
     89          1           0      -12.892183   -1.855360   -3.767263
     90          1           0      -12.287688   -0.231241   -3.931321
     91          1           0      -11.407222   -1.512772   -3.860877
     92          1           0       -8.834946   -4.786627   -2.037247
     93          1           0       -8.109108   -5.709271   -0.709653
     94          1           0       -9.684954   -4.935200   -0.305807
     95          1           0       -3.620567   -3.459567   -0.178793
     96          1           0       -1.429164   -4.583954    3.430699
     97          1           0       -3.099556   -5.342783    3.615675
     98          1           0       -1.699274   -5.984094    2.735135
     99          1           0        2.692922   -1.658312   -1.355368
    100          1           0        2.568939   -0.143563   -2.097000
    101          1           0        4.244346   -0.979337    0.181540
    102          1           0        4.134463    1.441591   -2.804660
    103          1           0        5.613111    2.039060   -2.232976
    104          1           0        5.809201    0.665934   -3.016395
    105          1           0        6.706861    1.606501   -0.044533
    106          1           0        6.566257   -0.142754    0.811139
    107          1           0        7.408647   -1.407419   -0.891663
    108          1           0        7.840502   -0.147384   -1.996533
    109          1           0        8.963516    0.781514    0.225175
    110          1           0        8.736018   -0.710025    0.600211
    111          1           0       10.304746    0.110997   -1.813282
    112          1           0        9.349744   -2.227831   -2.232064
    113          1           0       11.116590   -2.490316   -1.569644
    114          1           0        9.853359   -2.785615   -0.448356
    115          1           0       11.407656    0.531205    0.278629
    116          1           0       11.485128   -0.949360    0.793941
    117          1           0       12.820908   -1.775125   -0.888755
    118          1           0       12.808542    0.044487   -1.700091
    119          1           0       13.811621    0.851075    0.584498
    120          1           0       13.939370   -0.788638    0.879835
    121          1           0       15.403376    0.350233   -1.365982
    122          1           0       15.880189   -2.186870    0.164293
    123          1           0       15.208236   -2.028918   -1.541112
    124          1           0       16.723915   -1.771705   -1.226284
    125          1           0       16.259411    1.487049    0.742830
    126          1           0       16.562673   -0.165519    1.435234
    127          1           0       18.199475   -0.251725   -0.571912
    128          1           0       17.535149    1.296013   -1.080305
    129          1           0       18.725842    2.363225    0.907484
    130          1           0       18.830349    1.096199    1.830289
    131          1           0       20.608081    0.197404    0.153920
    132          1           0       20.009913    3.229580   -0.908265
    133          1           0       21.391320    2.365269   -1.657632
    134          1           0       19.769167    1.864675   -1.988677
    135          1           0       21.328289    1.477603    2.238783
    136          1           0       22.355067    1.994922    1.062135
    137          1           0       21.063639    3.046757    1.626862
 ---------------------------------------------------------------------

 SCF Done:  E(RCAM-B3LYP) =  -2932.57156795     A.U. after   16 cycles

 Excitation energies and oscillator strengths:

 Excited State   1:      Singlet-A      2.0152 eV  615.24 nm  f=0.1946  <S**2>=0.000
     240 -> 243       -0.29498
     241 -> 242        0.64025
 This state for optimization and/or second-order correction.
 Total Energy, E(TD-HF/TD-DFT) =  -2932.49751015
 Copying the excited state density for this state as the 1-particle RhoCI density.

 The electronic state is 1-A.
 Alpha  occ. eigenvalues --  -46.85569 -19.27643 -19.26736 -19.22000 -19.21190
 Alpha  occ. eigenvalues --  -19.20536 -14.42404 -14.39188 -14.39097 -14.38097
 Alpha  occ. eigenvalues --  -10.39221 -10.38876 -10.35467 -10.31286 -10.31068
 Alpha  occ. eigenvalues --  -10.30764 -10.30654 -10.29364 -10.29181 -10.29134
 Alpha  occ. eigenvalues --  -10.28896 -10.28818 -10.28693 -10.28519 -10.28250
 Alpha  occ. eigenvalues --  -10.28090 -10.27835 -10.27696 -10.27643 -10.27406
 Alpha  occ. eigenvalues --  -10.27396 -10.27392 -10.27281 -10.27198 -10.27021
 Alpha  occ. eigenvalues --  -10.26994 -10.26994 -10.26863 -10.26619 -10.26598
 Alpha  occ. eigenvalues --  -10.26537 -10.26528 -10.26491 -10.26313 -10.26055
 Alpha  occ. eigenvalues --  -10.26045 -10.25982 -10.25565 -10.25487 -10.25418
 Alpha  occ. eigenvalues --  -10.25343 -10.25303 -10.25297 -10.25279 -10.25251
 Alpha  occ. eigenvalues --  -10.25157 -10.25107 -10.24946 -10.24830 -10.24436
 Alpha  occ. eigenvalues --  -10.24356 -10.24024 -10.23976 -10.23029 -10.22892
 Alpha  occ. eigenvalues --   -3.14352  -1.89074  -1.88555  -1.88538  -1.20239
 Alpha  occ. eigenvalues --   -1.18190  -1.13704  -1.12296  -1.09237  -1.07561
 Alpha  occ. eigenvalues --   -1.04575  -1.03798  -1.01451  -0.92377  -0.92271
 Alpha  occ. eigenvalues --   -0.91214  -0.90811  -0.90409  -0.89306  -0.88903
 Alpha  occ. eigenvalues --   -0.88685  -0.88239  -0.87186  -0.86901  -0.86535
 Alpha  occ. eigenvalues --   -0.85153  -0.84210  -0.83547  -0.83413  -0.82733
 Alpha  occ. eigenvalues --   -0.82344  -0.81364  -0.80721  -0.79848  -0.78043
 Alpha  occ. eigenvalues --   -0.77707  -0.77080  -0.76497  -0.76249  -0.75780
 Alpha  occ. eigenvalues --   -0.75558  -0.75122  -0.74698  -0.73516  -0.71701
 Alpha  occ. eigenvalues --   -0.71281  -0.70234  -0.69745  -0.69173  -0.68466
 Alpha  occ. eigenvalues --   -0.66935  -0.66766  -0.65069  -0.64950  -0.64600
 Alpha  occ. eigenvalues --   -0.64155  -0.64111  -0.63758  -0.63636  -0.62911
 Alpha  occ. eigenvalues --   -0.62472  -0.61963  -0.60323  -0.59801  -0.59277
 Alpha  occ. eigenvalues --   -0.59090  -0.58444  -0.58058  -0.57456  -0.57030
 Alpha  occ. eigenvalues --   -0.56690  -0.56175  -0.56032  -0.55202  -0.54983
 Alpha  occ. eigenvalues --   -0.54735  -0.54566  -0.54484  -0.53916  -0.53813
 Alpha  occ. eigenvalues --   -0.53401  -0.52904  -0.52445  -0.51863  -0.51724
 Alpha  occ. eigenvalues --   -0.51507  -0.51169  -0.51035  -0.50781  -0.50508
 Alpha  occ. eigenvalues --   -0.50355  -0.50267  -0.50227  -0.49723  -0.49530
 Alpha  occ. eigenvalues --   -0.49330  -0.49254  -0.48921  -0.48855  -0.48697
 Alpha  occ. eigenvalues --   -0.48366  -0.48169  -0.47798  -0.47549  -0.47235
 Alpha  occ. eigenvalues --   -0.46994  -0.46793  -0.46559  -0.46306  -0.46254
 Alpha  occ. eigenvalues --   -0.46092  -0.46030  -0.45703  -0.45624  -0.45400
 Alpha  occ. eigenvalues --   -0.45109  -0.44683  -0.44590  -0.44514  -0.44322
 Alpha  occ. eigenvalues --   -0.43969  -0.43890  -0.43567  -0.43443  -0.43236
 Alpha  occ. eigenvalues --   -0.43126  -0.43049  -0.42769  -0.42642  -0.42350
 Alpha  occ. eigenvalues --   -0.42221  -0.41851  -0.41714  -0.41642  -0.41396
 Alpha  occ. eigenvalues --   -0.41326  -0.41292  -0.40722  -0.40507  -0.40151
 Alpha  occ. eigenvalues --   -0.39861  -0.39684  -0.39133  -0.38962  -0.38941
 Alpha  occ. eigenvalues --   -0.38724  -0.38662  -0.38325  -0.38215  -0.38033
 Alpha  occ. eigenvalues --   -0.37513  -0.37254  -0.37163  -0.37038  -0.37019
 Alpha  occ. eigenvalues --   -0.36766  -0.36026  -0.35872  -0.35683  -0.35530
 Alpha  occ. eigenvalues --   -0.35311  -0.34719  -0.34362  -0.33951  -0.33206
 Alpha  occ. eigenvalues --   -0.32970  -0.32211  -0.32128  -0.30558  -0.30529
 Alpha  occ. eigenvalues --   -0.29663  -0.29030  -0.27606  -0.26996  -0.22120
 Alpha  occ. eigenvalues --   -0.20109
 Alpha virt. eigenvalues --   -0.05378  -0.03157   0.01712   0.03827   0.05082
 Alpha virt. eigenvalues --    0.05405   0.05921   0.06942   0.07350   0.07678
 Alpha virt. eigenvalues --    0.08490   0.10784   0.11516   0.11692   0.11823

 Mulliken charges:
               1
     1  Mg   0.835723
     2  C    0.048400
     3  C   -0.199329
     4  C   -0.174448
     5  C   -0.165925
     6  N   -0.602793
     7  C    0.305802
     8  C   -0.156897
     9  C   -0.119129
    10  C    0.272625
    11  C   -0.300090
    12  C   -0.150629
    13  C   -0.268179
    14  C    0.583213
    15  O   -0.422614
    16  O   -0.471765
    17  N   -0.717809
    18  C    0.340972
    19  C    0.003363
    20  C    0.048572
    21  C    0.338856
    22  C   -0.387076
    23  C   -0.098542
    24  C   -0.250543
    25  N   -0.699896
    26  C    0.271695
    27  C    0.052951
    28  C   -0.057386
    29  C    0.347643
    30  C   -0.357227
    31  C   -0.204868
    32  C   -0.307138
    33  N   -0.692605
    34  C    0.277781
    35  C   -0.025812
    36  C   -0.028966
    37  C    0.285176
    38  C   -0.361696
    39  C    0.376967
    40  O   -0.417273
    41  C   -0.324338
    42  C    0.620205
    43  O   -0.480809
    44  O   -0.448880
    45  C   -0.101112
    46  C   -0.011940
    47  C   -0.099099
    48  C    0.138886
    49  C   -0.386238
    50  C   -0.220544
    51  C   -0.183243
    52  C   -0.164042
    53  C   -0.050603
    54  C   -0.312638
    55  C   -0.153664
    56  C   -0.193788
    57  C   -0.172131
    58  C   -0.065219
    59  C   -0.311981
    60  C   -0.176548
    61  C   -0.167072
    62  C   -0.182017
    63  C   -0.032625
    64  C   -0.310724
    65  C   -0.314679
    66  H    0.068510
    67  H    0.069220
    68  H    0.088197
    69  H    0.118542
    70  H    0.109164
    71  H    0.057491
    72  H    0.129850
    73  H    0.123911
    74  H    0.114763
    75  H    0.111424
    76  H    0.129003
    77  H    0.108722
    78  H    0.124481
    79  H    0.109584
    80  H    0.124228
    81  H    0.096664
    82  H    0.109447
    83  H    0.068895
    84  H    0.126517
    85  H    0.090459
    86  H    0.116765
    87  H    0.092944
    88  H    0.110146
    89  H    0.069752
    90  H    0.117928
    91  H    0.122217
    92  H    0.115079
    93  H    0.149915
    94  H    0.116089
    95  H    0.152741
    96  H    0.131423
    97  H    0.161516
    98  H    0.129769
    99  H    0.137190
   100  H    0.110692
   101  H    0.078916
   102  H    0.115388
   103  H    0.124458
   104  H    0.131722
   105  H    0.086211
   106  H    0.092828
   107  H    0.113618
   108  H    0.073576
   109  H    0.065591
   110  H    0.096166
   111  H    0.073066
   112  H    0.113642
   113  H    0.074365
   114  H    0.090332
   115  H    0.102655
   116  H    0.099903
   117  H    0.096439
   118  H    0.077495
   119  H    0.085246
   120  H    0.094915
   121  H    0.087061
   122  H    0.069379
   123  H    0.106467
   124  H    0.097476
   125  H    0.094976
   126  H    0.094392
   127  H    0.091404
   128  H    0.081621
   129  H    0.084288
   130  H    0.098618
   131  H    0.070022
   132  H    0.104278
   133  H    0.113997
   134  H    0.087078
   135  H    0.102007
   136  H    0.108651
   137  H    0.062257
 Sum of Mulliken charges =  -0.00000

 Dipole moment (field-independent basis, Debye):
    X=              5.0651    Y=              2.9228    Z=             -0.3868  Tot=              5.8607
 Quadrupole moment (field-independent basis, Debye-Ang):
   XX=           -376.1362   YY=           -390.0393   ZZ=           -393.9457
   XY=            -12.4061   XZ=             15.0518   YZ=             -6.1712

 Normal termination of Gaussian 16 at Sat Jun 29 06:20:56 2019.
