 Gaussian 09, Revision D.01,
 Gaussian 09:  ES64L-G09RevD.01 24-Apr-2013

 -------------------------------------
 # td=(NStates=1) CAM-B3LYP/6-31G(d,p)
 -------------------------------------

 --
 TD
 --
 Symbolic Z-matrix:
 Charge =  0 Multiplicity = 1

                         Standard orientation:
 ---------------------------------------------------------------------
 Center     Atomic      Atomic             Coordinates (Angstroms)
 Number     Number       Type             X           Y           Z
 ---------------------------------------------------------------------
      1         12           0       -7.061222    0.612765   -0.018644
      2          6           0       -4.744059   -1.915660    0.379927
      3          6           0       -4.793338    2.790574    1.175254
      4          6           0       -9.347662    3.065353   -0.427498
      5          6           0       -9.499707   -1.747788   -0.843507
      6          7           0       -5.148028    0.459013    0.807368
      7          6           0       -4.395115   -0.680482    0.775972
      8          6           0       -2.880969   -0.413803    1.304266
      9          6           0       -3.029805    1.037103    1.776514
     10          6           0       -4.386164    1.519738    1.172288
     11          6           0       -2.997289    1.138950    3.272962
     12          6           0       -1.932044   -0.403890    0.049185
     13          6           0       -0.449123   -0.352289    0.541478
     14          6           0        0.474501   -0.702891   -0.550810
     15          8           0        0.197644   -1.014852   -1.682311
     16          8           0        1.793372   -0.546542   -0.138033
     17          7           0       -7.065031    2.580269    0.334640
     18          6           0       -6.073249    3.337456    0.806533
     19          6           0       -6.368405    4.727623    0.794512
     20          6           0       -7.647864    4.824082    0.242742
     21          6           0       -8.074136    3.459516   -0.030866
     22          6           0       -5.420027    5.846445    1.151725
     23          6           0       -8.546348    5.953970    0.094563
     24          6           0       -8.422811    7.145021    0.729883
     25          7           0       -9.122001    0.637414   -0.562293
     26          6           0       -9.841489    1.728740   -0.666267
     27          6           0      -11.107759    1.423948   -1.078054
     28          6           0      -11.237757    0.084485   -1.144615
     29          6           0       -9.949652   -0.382975   -0.930090
     30          6           0      -12.226043    2.397620   -1.361723
     31          6           0      -12.450037   -0.707972   -1.667156
     32          6           0      -12.352652   -0.986103   -3.124490
     33          7           0       -7.132323   -1.433495   -0.261836
     34          6           0       -8.251775   -2.236774   -0.565639
     35          6           0       -7.772741   -3.661331   -0.661409
     36          6           0       -6.465759   -3.558315   -0.178470
     37          6           0       -6.130521   -2.185178   -0.000478
     38          6           0       -8.627555   -4.835154   -0.803691
     39          6           0       -5.298748   -4.344662    0.169349
     40          8           0       -5.196203   -5.564802    0.170946
     41          6           0       -4.214347   -3.309783    0.550007
     42          6           0       -3.421255   -3.662817    1.915106
     43          8           0       -3.602914   -3.104042    2.904069
     44          8           0       -2.522138   -4.632692    1.667965
     45          6           0       -1.861849   -5.144227    2.836396
     46          6           0        2.820984   -0.665300   -1.234742
     47          6           0        4.061783   -0.480935   -0.546620
     48          6           0        5.068471    0.459299   -0.868540
     49          6           0        4.906394    1.277216   -2.080810
     50          6           0        6.310425    0.587507   -0.138337
     51          6           0        7.513678   -0.194511   -0.859060
     52          6           0        8.914307    0.061107   -0.004957
     53          6           0       10.120879   -0.548832   -0.865536
     54          6           0        9.977581   -2.238747   -0.893133
     55          6           0       11.367961   -0.142666    0.005274
     56          6           0       12.755386   -0.509390   -0.697732
     57          6           0       13.875506   -0.185394    0.188573
     58          6           0       15.277919   -0.268484   -0.479152
     59          6           0       15.589869   -1.663803   -0.880453
     60          6           0       16.424181    0.407959    0.451665
     61          6           0       17.789496    0.415736   -0.189109
     62          6           0       18.786853    1.279716    0.655396
     63          6           0       20.233725    1.329148    0.064743
     64          6           0       20.293887    2.162200   -1.225656
     65          6           0       21.203311    2.025842    1.012151
     66          1           0       -4.196488    3.503136    1.579865
     67          1           0      -10.190665    3.647071   -0.326554
     68          1           0      -10.267839   -2.521678   -1.201296
     69          1           0       -2.694322   -1.174915    2.024800
     70          1           0       -2.067912    1.634150    1.326497
     71          1           0       -2.127465    0.796686    3.668830
     72          1           0       -3.059484    2.315346    3.581341
     73          1           0       -3.823379    0.606334    3.760911
     74          1           0       -1.947330   -1.492366   -0.418791
     75          1           0       -2.237182    0.389448   -0.603040
     76          1           0       -0.034492    0.619629    0.848356
     77          1           0       -0.262494   -0.885786    1.377527
     78          1           0       -5.366805    6.782828    0.406405
     79          1           0       -5.505595    6.216398    2.124018
     80          1           0       -4.439944    5.289896    1.268476
     81          1           0       -9.335073    5.868903   -0.768390
     82          1           0       -9.117399    7.842351    0.463865
     83          1           0       -7.803163    7.504952    1.584570
     84          1           0      -12.019671    2.976581   -2.347984
     85          1           0      -13.372054    1.879049   -1.438931
     86          1           0      -12.136887    3.416238   -0.763885
     87          1           0      -12.606775   -1.744851   -1.153994
     88          1           0      -13.393891   -0.140956   -1.339901
     89          1           0      -13.371420   -1.359604   -3.632399
     90          1           0      -12.127073   -0.094301   -3.509793
     91          1           0      -11.619124   -1.917446   -3.385209
     92          1           0       -9.290258   -4.731592   -1.775411
     93          1           0       -7.956725   -5.828293   -0.621149
     94          1           0       -9.219037   -4.886421    0.049514
     95          1           0       -3.446490   -3.447600   -0.151893
     96          1           0       -1.281331   -4.163547    3.479491
     97          1           0       -2.642832   -5.505225    3.420005
     98          1           0       -1.069756   -5.649342    2.356233
     99          1           0        2.685204   -1.930369   -1.437357
    100          1           0        2.581367   -0.308928   -2.286669
    101          1           0        4.136556   -1.094504    0.387804
    102          1           0        3.972035    0.919347   -2.457439
    103          1           0        4.857184    2.260599   -1.935339
    104          1           0        5.616082    0.976197   -3.030366
    105          1           0        6.618982    1.690470   -0.133122
    106          1           0        6.146963    0.190080    0.823954
    107          1           0        7.414721   -1.363119   -0.829470
    108          1           0        7.461139   -0.007870   -2.059135
    109          1           0        8.995087    1.200796    0.172196
    110          1           0        8.761673   -0.528254    1.099595
    111          1           0       10.078250   -0.206998   -1.795417
    112          1           0        9.093298   -2.502121   -1.466880
    113          1           0       10.814887   -2.842294   -1.350854
    114          1           0        9.666214   -2.695860    0.270179
    115          1           0       11.148568    1.073531    0.326320
    116          1           0       11.328149   -0.643165    0.923913
    117          1           0       12.632399   -1.689348   -0.877618
    118          1           0       12.896406    0.001090   -1.735387
    119          1           0       13.764893    0.788758    0.525424
    120          1           0       13.696509   -0.737316    0.964869
    121          1           0       15.262216    0.533281   -1.314716
    122          1           0       15.602251   -2.375435    0.005666
    123          1           0       14.585045   -2.118138   -1.359343
    124          1           0       16.299673   -1.894674   -1.563669
    125          1           0       16.028279    1.381443    0.788970
    126          1           0       16.491401   -0.211653    1.351001
    127          1           0       18.176835   -0.466516   -0.415836
    128          1           0       17.710142    1.169692   -1.179960
    129          1           0       18.480769    2.268173    0.689087
    130          1           0       18.736635    1.049335    1.638524
    131          1           0       20.561482    0.350526   -0.176285
    132          1           0       20.105219    3.291377   -0.858127
    133          1           0       21.318120    2.095485   -1.657477
    134          1           0       19.366527    1.804409   -1.993143
    135          1           0       21.316099    1.337019    1.858319
    136          1           0       22.207447    2.075336    0.606671
    137          1           0       20.769667    3.125179    1.509359
 ---------------------------------------------------------------------

 SCF Done:  E(RCAM-B3LYP) =  -2932.61350244     A.U. after   16 cycles

 Excitation energies and oscillator strengths:

 Excited State   1:      Singlet-A      2.1942 eV  565.06 nm  f=0.2195  <S**2>=0.000
     240 -> 243       -0.25250
     241 -> 242        0.64879
 This state for optimization and/or second-order correction.
 Total Energy, E(TD-HF/TD-KS) =  -2932.53286790
 Copying the excited state density for this state as the 1-particle RhoCI density.

 The electronic state is 1-A.
 Alpha  occ. eigenvalues --  -46.84476 -19.26539 -19.24964 -19.22105 -19.20744
 Alpha  occ. eigenvalues --  -19.20016 -14.40683 -14.39588 -14.39428 -14.38398
 Alpha  occ. eigenvalues --  -10.39455 -10.38436 -10.34682 -10.33210 -10.32678
 Alpha  occ. eigenvalues --  -10.30381 -10.30205 -10.29993 -10.29420 -10.29374
 Alpha  occ. eigenvalues --  -10.29257 -10.28781 -10.28709 -10.28700 -10.28547
 Alpha  occ. eigenvalues --  -10.28405 -10.28216 -10.28137 -10.27775 -10.27692
 Alpha  occ. eigenvalues --  -10.27579 -10.27543 -10.27439 -10.27411 -10.27325
 Alpha  occ. eigenvalues --  -10.27305 -10.27190 -10.27161 -10.27100 -10.26971
 Alpha  occ. eigenvalues --  -10.26886 -10.26702 -10.26680 -10.26646 -10.26395
 Alpha  occ. eigenvalues --  -10.26389 -10.26321 -10.26298 -10.26230 -10.25980
 Alpha  occ. eigenvalues --  -10.25874 -10.25807 -10.25738 -10.25446 -10.25363
 Alpha  occ. eigenvalues --  -10.25236 -10.24901 -10.24870 -10.24853 -10.24777
 Alpha  occ. eigenvalues --  -10.24679 -10.24568 -10.23828 -10.23225 -10.22379
 Alpha  occ. eigenvalues --   -3.13481  -1.88195  -1.87722  -1.87649  -1.20327
 Alpha  occ. eigenvalues --   -1.16198  -1.12364  -1.10289  -1.07924  -1.05383
 Alpha  occ. eigenvalues --   -1.04614  -1.04256  -1.02696  -0.92242  -0.91132
 Alpha  occ. eigenvalues --   -0.90286  -0.89764  -0.89197  -0.88931  -0.88912
 Alpha  occ. eigenvalues --   -0.88334  -0.87876  -0.87313  -0.86986  -0.86092
 Alpha  occ. eigenvalues --   -0.84521  -0.84173  -0.83546  -0.82957  -0.82785
 Alpha  occ. eigenvalues --   -0.81504  -0.81103  -0.80745  -0.79575  -0.78551
 Alpha  occ. eigenvalues --   -0.78078  -0.76975  -0.76191  -0.75218  -0.74834
 Alpha  occ. eigenvalues --   -0.74508  -0.74118  -0.73493  -0.72886  -0.71346
 Alpha  occ. eigenvalues --   -0.71031  -0.69939  -0.68829  -0.68457  -0.68090
 Alpha  occ. eigenvalues --   -0.67544  -0.66339  -0.64874  -0.64556  -0.64174
 Alpha  occ. eigenvalues --   -0.64163  -0.63574  -0.63129  -0.62515  -0.62323
 Alpha  occ. eigenvalues --   -0.62281  -0.60783  -0.60131  -0.59641  -0.59291
 Alpha  occ. eigenvalues --   -0.58572  -0.58277  -0.57882  -0.57302  -0.56811
 Alpha  occ. eigenvalues --   -0.56529  -0.55853  -0.55257  -0.55071  -0.54819
 Alpha  occ. eigenvalues --   -0.54461  -0.54017  -0.53606  -0.53375  -0.53195
 Alpha  occ. eigenvalues --   -0.52289  -0.52132  -0.51842  -0.51755  -0.51458
 Alpha  occ. eigenvalues --   -0.51273  -0.51207  -0.50930  -0.50616  -0.50362
 Alpha  occ. eigenvalues --   -0.50317  -0.50052  -0.49767  -0.49656  -0.49504
 Alpha  occ. eigenvalues --   -0.49139  -0.48793  -0.48590  -0.48481  -0.48339
 Alpha  occ. eigenvalues --   -0.48284  -0.47782  -0.47220  -0.46958  -0.46746
 Alpha  occ. eigenvalues --   -0.46559  -0.46490  -0.46209  -0.46068  -0.45801
 Alpha  occ. eigenvalues --   -0.45686  -0.45517  -0.45099  -0.44906  -0.44773
 Alpha  occ. eigenvalues --   -0.44492  -0.44364  -0.44050  -0.43802  -0.43764
 Alpha  occ. eigenvalues --   -0.43503  -0.43245  -0.43066  -0.42907  -0.42714
 Alpha  occ. eigenvalues --   -0.42667  -0.42556  -0.42457  -0.42266  -0.42184
 Alpha  occ. eigenvalues --   -0.41997  -0.41833  -0.41780  -0.41660  -0.41271
 Alpha  occ. eigenvalues --   -0.41158  -0.41068  -0.40818  -0.40726  -0.40306
 Alpha  occ. eigenvalues --   -0.40007  -0.39962  -0.39751  -0.39639  -0.39479
 Alpha  occ. eigenvalues --   -0.39055  -0.38397  -0.38342  -0.38092  -0.37963
 Alpha  occ. eigenvalues --   -0.37845  -0.37506  -0.37276  -0.36893  -0.36830
 Alpha  occ. eigenvalues --   -0.36630  -0.36471  -0.36245  -0.35748  -0.35366
 Alpha  occ. eigenvalues --   -0.35122  -0.34643  -0.34335  -0.33664  -0.33486
 Alpha  occ. eigenvalues --   -0.32874  -0.32296  -0.31995  -0.30996  -0.29976
 Alpha  occ. eigenvalues --   -0.29755  -0.28102  -0.27643  -0.27600  -0.23187
 Alpha  occ. eigenvalues --   -0.22016
 Alpha virt. eigenvalues --   -0.06309  -0.03411   0.02478   0.03936   0.04246
 Alpha virt. eigenvalues --    0.05208   0.06972   0.07244   0.07508   0.07711
 Alpha virt. eigenvalues --    0.09163   0.10361   0.11197   0.11382   0.11390

 Mulliken charges:
               1
     1  Mg   0.822665
     2  C    0.064898
     3  C   -0.207822
     4  C   -0.139733
     5  C   -0.168735
     6  N   -0.659996
     7  C    0.289999
     8  C   -0.157522
     9  C   -0.132415
    10  C    0.365951
    11  C   -0.290229
    12  C   -0.166007
    13  C   -0.267648
    14  C    0.612487
    15  O   -0.469582
    16  O   -0.515856
    17  N   -0.712521
    18  C    0.334089
    19  C    0.007555
    20  C    0.038394
    21  C    0.275886
    22  C   -0.366874
    23  C   -0.108772
    24  C   -0.230758
    25  N   -0.682424
    26  C    0.299703
    27  C    0.056695
    28  C    0.016750
    29  C    0.242472
    30  C   -0.388239
    31  C   -0.234436
    32  C   -0.274096
    33  N   -0.718179
    34  C    0.251871
    35  C    0.046010
    36  C   -0.019944
    37  C    0.323166
    38  C   -0.386027
    39  C    0.369595
    40  O   -0.473570
    41  C   -0.308876
    42  C    0.587692
    43  O   -0.416495
    44  O   -0.449232
    45  C   -0.068185
    46  C    0.006344
    47  C   -0.110742
    48  C    0.105694
    49  C   -0.343923
    50  C   -0.212001
    51  C   -0.184966
    52  C   -0.168229
    53  C   -0.040138
    54  C   -0.321654
    55  C   -0.157599
    56  C   -0.184350
    57  C   -0.152455
    58  C   -0.052303
    59  C   -0.310847
    60  C   -0.184581
    61  C   -0.158361
    62  C   -0.170326
    63  C   -0.063040
    64  C   -0.277520
    65  C   -0.296390
    66  H    0.056816
    67  H    0.089157
    68  H    0.091202
    69  H    0.120394
    70  H    0.079540
    71  H    0.118581
    72  H    0.075939
    73  H    0.125747
    74  H    0.113535
    75  H    0.126182
    76  H    0.139364
    77  H    0.145821
    78  H    0.119454
    79  H    0.132658
    80  H    0.103465
    81  H    0.097255
    82  H    0.101681
    83  H    0.113242
    84  H    0.110588
    85  H    0.099807
    86  H    0.100913
    87  H    0.086960
    88  H    0.096125
    89  H    0.081032
    90  H    0.127595
    91  H    0.088658
    92  H    0.115234
    93  H    0.141896
    94  H    0.154954
    95  H    0.164522
    96  H    0.077937
    97  H    0.152594
    98  H    0.145262
    99  H    0.079511
   100  H    0.156048
   101  H    0.098036
   102  H    0.097197
   103  H    0.128538
   104  H    0.091777
   105  H    0.091984
   106  H    0.106708
   107  H    0.093965
   108  H    0.077488
   109  H    0.092979
   110  H    0.075692
   111  H    0.107233
   112  H    0.111709
   113  H    0.108375
   114  H    0.066063
   115  H    0.047040
   116  H    0.106821
   117  H    0.080282
   118  H    0.078348
   119  H    0.094602
   120  H    0.096797
   121  H    0.073767
   122  H    0.096573
   123  H    0.076358
   124  H    0.115504
   125  H    0.088117
   126  H    0.084896
   127  H    0.105992
   128  H    0.059642
   129  H    0.095204
   130  H    0.091907
   131  H    0.091673
   132  H    0.080891
   133  H    0.100827
   134  H    0.070561
   135  H    0.098089
   136  H    0.104250
   137  H    0.070125
 Sum of Mulliken charges =   0.00000

 Dipole moment (field-independent basis, Debye):
    X=              1.5110    Y=              3.3987    Z=              1.1609  Tot=              3.8965
 Quadrupole moment (field-independent basis, Debye-Ang):
   XX=           -357.4827   YY=           -388.6958   ZZ=           -397.6621
   XY=            -27.6636   XZ=             14.2587   YZ=             -3.0002

 Normal termination of Gaussian 09 at Sat Jul  6 15:11:03 2019.
