 Gaussian 09, Revision D.01,
 Gaussian 09:  ES64L-G09RevD.01 24-Apr-2013

 -------------------------------------
 # td=(NStates=1) CAM-B3LYP/6-31G(d,p)
 -------------------------------------

 --
 TD
 --
 Symbolic Z-matrix:
 Charge =  0 Multiplicity = 1

                         Standard orientation:
 ---------------------------------------------------------------------
 Center     Atomic      Atomic             Coordinates (Angstroms)
 Number     Number       Type             X           Y           Z
 ---------------------------------------------------------------------
      1         12           0       -7.104729    0.713441    0.120566
      2          6           0       -4.841070   -1.932007    0.483676
      3          6           0       -4.851011    2.823121    1.056661
      4          6           0       -9.447791    3.126071   -0.271550
      5          6           0       -9.532052   -1.690379   -0.820821
      6          7           0       -5.155183    0.439363    0.805096
      7          6           0       -4.343121   -0.636650    0.689744
      8          6           0       -2.986924   -0.357230    1.103147
      9          6           0       -2.988725    1.064108    1.631136
     10          6           0       -4.377546    1.485694    1.100228
     11          6           0       -2.904096    1.267962    3.018550
     12          6           0       -1.958721   -0.581639   -0.032259
     13          6           0       -0.486145   -0.389329    0.511746
     14          6           0        0.538060   -0.730769   -0.563172
     15          8           0        0.358802   -1.062944   -1.697782
     16          8           0        1.873241   -0.533502   -0.086031
     17          7           0       -7.183013    2.608263    0.269232
     18          6           0       -6.012975    3.337096    0.616332
     19          6           0       -6.400165    4.781783    0.675429
     20          6           0       -7.624174    4.866151    0.352873
     21          6           0       -8.213209    3.488824    0.003194
     22          6           0       -5.445243    5.938054    0.969276
     23          6           0       -8.581323    5.969411    0.340943
     24          6           0       -8.552314    7.199466    0.843446
     25          7           0       -9.160528    0.645508   -0.479482
     26          6           0       -9.981116    1.791382   -0.647037
     27          6           0      -11.252226    1.440202   -1.167713
     28          6           0      -11.255463    0.112575   -1.195996
     29          6           0       -9.976223   -0.304096   -0.807048
     30          6           0      -12.313894    2.470467   -1.381542
     31          6           0      -12.414307   -0.767402   -1.727142
     32          6           0      -12.381109   -1.149189   -3.162786
     33          7           0       -7.220202   -1.410320   -0.091857
     34          6           0       -8.335641   -2.265435   -0.532904
     35          6           0       -7.832103   -3.678043   -0.523243
     36          6           0       -6.535953   -3.576528   -0.137476
     37          6           0       -6.224472   -2.241171    0.153331
     38          6           0       -8.733054   -4.859052   -0.889590
     39          6           0       -5.350831   -4.380033    0.229025
     40          8           0       -5.177465   -5.526935    0.128665
     41          6           0       -4.155386   -3.271050    0.442176
     42          6           0       -3.534708   -3.641701    1.872368
     43          8           0       -3.679310   -3.039146    2.938241
     44          8           0       -2.684413   -4.700783    1.718301
     45          6           0       -2.125227   -5.188010    2.930757
     46          6           0        2.820420   -0.696959   -1.116413
     47          6           0        4.106360   -0.439986   -0.466914
     48          6           0        5.187860    0.284307   -0.906252
     49          6           0        5.109101    1.218831   -2.170465
     50          6           0        6.421296    0.348095   -0.091064
     51          6           0        7.636430   -0.073185   -0.831781
     52          6           0        8.916151   -0.186783   -0.066685
     53          6           0       10.200077   -0.684089   -0.785249
     54          6           0        9.998207   -2.150120   -1.201966
     55          6           0       11.488553   -0.446606   -0.000016
     56          6           0       12.852415   -0.634682   -0.661051
     57          6           0       14.009522   -0.099120    0.194413
     58          6           0       15.367625   -0.320522   -0.434852
     59          6           0       15.715463   -1.746192   -0.554852
     60          6           0       16.453889    0.467165    0.361839
     61          6           0       17.902703    0.515908   -0.217857
     62          6           0       18.819884    1.334548    0.716189
     63          6           0       20.276954    1.548688    0.032154
     64          6           0       20.243631    2.279797   -1.249939
     65          6           0       21.196772    2.127932    1.168529
     66          1           0       -4.162099    3.464499    1.489774
     67          1           0      -10.240849    3.747360   -0.545439
     68          1           0      -10.345299   -2.399840   -1.330944
     69          1           0       -2.785266   -1.178393    1.951500
     70          1           0       -2.307270    1.686512    1.112243
     71          1           0       -1.958437    0.981638    3.428641
     72          1           0       -3.167435    2.199213    3.358717
     73          1           0       -3.673483    0.520697    3.334746
     74          1           0       -2.122314   -1.565918   -0.448326
     75          1           0       -2.271194    0.256985   -0.842648
     76          1           0       -0.222365    0.583351    0.877178
     77          1           0       -0.288688   -1.005829    1.423499
     78          1           0       -5.750004    6.865174    0.476726
     79          1           0       -5.282024    6.380777    2.046255
     80          1           0       -4.252661    5.797008    0.774097
     81          1           0       -9.433233    5.764428   -0.446020
     82          1           0       -9.362426    8.043371    0.738270
     83          1           0       -7.802011    7.588719    1.470390
     84          1           0      -12.015398    3.094976   -2.237359
     85          1           0      -13.318655    1.918569   -1.655461
     86          1           0      -12.478980    3.068093   -0.589004
     87          1           0      -12.485504   -1.749476   -1.174442
     88          1           0      -13.274301   -0.325627   -1.615826
     89          1           0      -13.186002   -1.924005   -3.294084
     90          1           0      -12.405185   -0.338634   -3.912898
     91          1           0      -11.575302   -1.884545   -3.607141
     92          1           0       -9.306657   -4.584563   -1.927211
     93          1           0       -8.096208   -5.731352   -0.686243
     94          1           0       -9.346764   -5.056550    0.043729
     95          1           0       -3.324886   -3.248176   -0.431449
     96          1           0       -1.649327   -4.354908    3.589723
     97          1           0       -2.775398   -5.480496    3.578660
     98          1           0       -1.340694   -5.888176    2.869728
     99          1           0        2.720776   -1.646149   -1.446877
    100          1           0        2.641619    0.164114   -1.901760
    101          1           0        4.276920   -0.775038    0.546398
    102          1           0        4.128286    1.323317   -2.528567
    103          1           0        5.744365    2.189837   -2.016003
    104          1           0        5.754767    0.823035   -3.056182
    105          1           0        6.451349    1.360634    0.161102
    106          1           0        6.305366   -0.193532    0.834704
    107          1           0        7.341847   -1.138110   -1.104482
    108          1           0        7.728269    0.273395   -1.869294
    109          1           0        9.063495    0.715403    0.454237
    110          1           0        8.876164   -0.816024    0.816797
    111          1           0       10.322689   -0.307304   -1.844367
    112          1           0        9.147942   -2.432902   -1.826613
    113          1           0       11.029288   -2.496460   -1.768506
    114          1           0       10.119556   -2.656168   -0.157575
    115          1           0       11.442394    0.480894    0.482856
    116          1           0       11.575867   -1.010690    0.925464
    117          1           0       13.059899   -1.690595   -0.939577
    118          1           0       12.815839   -0.106491   -1.754091
    119          1           0       13.763055    0.970620    0.070629
    120          1           0       14.223442   -0.564320    1.214585
    121          1           0       15.401212    0.147791   -1.312883
    122          1           0       15.536025   -2.475566    0.299454
    123          1           0       15.216183   -2.201435   -1.526189
    124          1           0       16.794373   -1.767921   -0.714879
    125          1           0       16.200727    1.508334    0.651152
    126          1           0       16.368120    0.084057    1.504959
    127          1           0       18.079431   -0.655152   -0.462074
    128          1           0       17.962717    0.961499   -1.162241
    129          1           0       18.379362    2.321644    0.794176
    130          1           0       19.092307    0.720733    1.576255
    131          1           0       20.524770    0.614718   -0.328623
    132          1           0       19.729601    3.134354   -1.207987
    133          1           0       21.322779    2.550118   -1.609307
    134          1           0       19.707100    1.698038   -2.052520
    135          1           0       20.965426    1.693152    2.028889
    136          1           0       22.185994    2.085713    0.915690
    137          1           0       20.891069    3.214966    1.225866
 ---------------------------------------------------------------------

 SCF Done:  E(RCAM-B3LYP) =  -2932.69066481     A.U. after   16 cycles

 Excitation energies and oscillator strengths:

 Excited State   1:      Singlet-A      2.2057 eV  562.11 nm  f=0.1474  <S**2>=0.000
     240 -> 243       -0.29767
     241 -> 242        0.62128
     241 -> 243        0.10625
 This state for optimization and/or second-order correction.
 Total Energy, E(TD-HF/TD-KS) =  -2932.60960735
 Copying the excited state density for this state as the 1-particle RhoCI density.

 The electronic state is 1-A.
 Alpha  occ. eigenvalues --  -46.84085 -19.27221 -19.24769 -19.22317 -19.22077
 Alpha  occ. eigenvalues --  -19.21825 -14.42007 -14.39427 -14.39280 -14.38037
 Alpha  occ. eigenvalues --  -10.40531 -10.39791 -10.35956 -10.31698 -10.31090
 Alpha  occ. eigenvalues --  -10.30634 -10.30519 -10.30347 -10.29978 -10.29363
 Alpha  occ. eigenvalues --  -10.29137 -10.29004 -10.28973 -10.28946 -10.28707
 Alpha  occ. eigenvalues --  -10.28408 -10.28342 -10.28279 -10.27792 -10.27668
 Alpha  occ. eigenvalues --  -10.27576 -10.27284 -10.27260 -10.27118 -10.26924
 Alpha  occ. eigenvalues --  -10.26911 -10.26881 -10.26707 -10.26661 -10.26260
 Alpha  occ. eigenvalues --  -10.26173 -10.25772 -10.25656 -10.25653 -10.25635
 Alpha  occ. eigenvalues --  -10.25525 -10.25520 -10.25307 -10.25285 -10.25255
 Alpha  occ. eigenvalues --  -10.25212 -10.25201 -10.25065 -10.25032 -10.24887
 Alpha  occ. eigenvalues --  -10.24743 -10.24709 -10.24688 -10.24501 -10.24474
 Alpha  occ. eigenvalues --  -10.24351 -10.24264 -10.24184 -10.23940 -10.23154
 Alpha  occ. eigenvalues --   -3.13223  -1.87915  -1.87459  -1.87419  -1.18133
 Alpha  occ. eigenvalues --   -1.17646  -1.15050  -1.09749  -1.09228  -1.06307
 Alpha  occ. eigenvalues --   -1.03609  -1.02562  -1.02113  -0.91837  -0.91656
 Alpha  occ. eigenvalues --   -0.91439  -0.90841  -0.89555  -0.89237  -0.89119
 Alpha  occ. eigenvalues --   -0.88534  -0.88478  -0.87867  -0.87238  -0.86427
 Alpha  occ. eigenvalues --   -0.85287  -0.84343  -0.83521  -0.83222  -0.82544
 Alpha  occ. eigenvalues --   -0.82029  -0.81407  -0.81018  -0.79820  -0.78753
 Alpha  occ. eigenvalues --   -0.78015  -0.77205  -0.77165  -0.76351  -0.76210
 Alpha  occ. eigenvalues --   -0.75098  -0.75041  -0.73913  -0.73358  -0.72119
 Alpha  occ. eigenvalues --   -0.71799  -0.70959  -0.69230  -0.69022  -0.68301
 Alpha  occ. eigenvalues --   -0.66970  -0.66872  -0.66073  -0.65534  -0.64478
 Alpha  occ. eigenvalues --   -0.64225  -0.63661  -0.63062  -0.62808  -0.62502
 Alpha  occ. eigenvalues --   -0.61800  -0.60984  -0.60342  -0.59315  -0.59174
 Alpha  occ. eigenvalues --   -0.58582  -0.57831  -0.57569  -0.57229  -0.57092
 Alpha  occ. eigenvalues --   -0.56749  -0.56088  -0.55735  -0.55468  -0.55302
 Alpha  occ. eigenvalues --   -0.54969  -0.54439  -0.54185  -0.54051  -0.53404
 Alpha  occ. eigenvalues --   -0.53295  -0.53052  -0.52530  -0.52104  -0.51850
 Alpha  occ. eigenvalues --   -0.51647  -0.51475  -0.51430  -0.51109  -0.51025
 Alpha  occ. eigenvalues --   -0.50772  -0.50518  -0.50346  -0.50187  -0.49679
 Alpha  occ. eigenvalues --   -0.49405  -0.49298  -0.49278  -0.48861  -0.48666
 Alpha  occ. eigenvalues --   -0.48651  -0.48186  -0.47754  -0.47685  -0.47381
 Alpha  occ. eigenvalues --   -0.47164  -0.46560  -0.46272  -0.46219  -0.46136
 Alpha  occ. eigenvalues --   -0.46044  -0.45678  -0.45554  -0.45150  -0.45077
 Alpha  occ. eigenvalues --   -0.44863  -0.44782  -0.44627  -0.44341  -0.44186
 Alpha  occ. eigenvalues --   -0.44033  -0.43788  -0.43678  -0.43582  -0.43351
 Alpha  occ. eigenvalues --   -0.43014  -0.42942  -0.42873  -0.42542  -0.42470
 Alpha  occ. eigenvalues --   -0.42324  -0.42164  -0.41911  -0.41842  -0.41680
 Alpha  occ. eigenvalues --   -0.41604  -0.41185  -0.40874  -0.40507  -0.40479
 Alpha  occ. eigenvalues --   -0.40366  -0.39721  -0.39564  -0.39385  -0.39349
 Alpha  occ. eigenvalues --   -0.39139  -0.38953  -0.38823  -0.38314  -0.37573
 Alpha  occ. eigenvalues --   -0.37313  -0.37137  -0.36809  -0.36750  -0.36555
 Alpha  occ. eigenvalues --   -0.36261  -0.36011  -0.35919  -0.35767  -0.35715
 Alpha  occ. eigenvalues --   -0.35363  -0.35177  -0.34592  -0.34506  -0.34494
 Alpha  occ. eigenvalues --   -0.33610  -0.32872  -0.32526  -0.30863  -0.30478
 Alpha  occ. eigenvalues --   -0.29555  -0.28818  -0.28525  -0.28162  -0.23503
 Alpha  occ. eigenvalues --   -0.20743
 Alpha virt. eigenvalues --   -0.04902  -0.03801   0.01897   0.04052   0.05264
 Alpha virt. eigenvalues --    0.05662   0.06053   0.06521   0.06807   0.07558
 Alpha virt. eigenvalues --    0.08270   0.10537   0.11150   0.11979   0.12207

 Mulliken charges:
               1
     1  Mg   0.832117
     2  C    0.075647
     3  C   -0.211401
     4  C   -0.176456
     5  C   -0.190715
     6  N   -0.625838
     7  C    0.331578
     8  C   -0.208778
     9  C   -0.108968
    10  C    0.298393
    11  C   -0.291048
    12  C   -0.159130
    13  C   -0.273887
    14  C    0.607213
    15  O   -0.444518
    16  O   -0.517658
    17  N   -0.762005
    18  C    0.325015
    19  C    0.040693
    20  C    0.046953
    21  C    0.338949
    22  C   -0.389809
    23  C   -0.057139
    24  C   -0.267212
    25  N   -0.645021
    26  C    0.175192
    27  C    0.036372
    28  C    0.014474
    29  C    0.299036
    30  C   -0.369584
    31  C   -0.208668
    32  C   -0.306109
    33  N   -0.691215
    34  C    0.240908
    35  C    0.020801
    36  C   -0.011132
    37  C    0.316772
    38  C   -0.368759
    39  C    0.382497
    40  O   -0.400197
    41  C   -0.359979
    42  C    0.611072
    43  O   -0.471184
    44  O   -0.439846
    45  C   -0.085432
    46  C    0.056807
    47  C   -0.151319
    48  C    0.109708
    49  C   -0.361459
    50  C   -0.217807
    51  C   -0.186864
    52  C   -0.168411
    53  C   -0.067698
    54  C   -0.293939
    55  C   -0.173026
    56  C   -0.188588
    57  C   -0.158171
    58  C   -0.048822
    59  C   -0.304188
    60  C   -0.183368
    61  C   -0.184272
    62  C   -0.176843
    63  C   -0.075155
    64  C   -0.311770
    65  C   -0.303921
    66  H    0.070798
    67  H    0.072773
    68  H    0.082256
    69  H    0.130246
    70  H    0.104731
    71  H    0.111236
    72  H    0.120241
    73  H    0.121716
    74  H    0.121640
    75  H    0.100830
    76  H    0.150222
    77  H    0.144982
    78  H    0.131981
    79  H    0.109257
    80  H    0.099625
    81  H    0.087858
    82  H    0.100585
    83  H    0.103782
    84  H    0.120932
    85  H    0.094003
    86  H    0.137747
    87  H    0.095307
    88  H    0.111039
    89  H    0.094844
    90  H    0.110361
    91  H    0.083167
    92  H    0.129855
    93  H    0.148357
    94  H    0.135921
    95  H    0.153680
    96  H    0.100565
    97  H    0.140172
    98  H    0.128235
    99  H    0.133691
   100  H    0.096223
   101  H    0.087490
   102  H    0.118980
   103  H    0.106085
   104  H    0.104315
   105  H    0.106823
   106  H    0.100234
   107  H    0.089335
   108  H    0.099871
   109  H    0.089993
   110  H    0.090156
   111  H    0.078328
   112  H    0.114346
   113  H    0.072430
   114  H    0.084142
   115  H    0.097161
   116  H    0.088243
   117  H    0.096020
   118  H    0.063582
   119  H    0.096073
   120  H    0.088026
   121  H    0.096307
   122  H    0.098961
   123  H    0.088696
   124  H    0.096083
   125  H    0.082655
   126  H    0.053155
   127  H    0.070458
   128  H    0.102252
   129  H    0.100948
   130  H    0.104408
   131  H    0.098001
   132  H    0.107230
   133  H    0.084831
   134  H    0.094655
   135  H    0.110568
   136  H    0.107880
   137  H    0.089529
 Sum of Mulliken charges =   0.00000

 Dipole moment (field-independent basis, Debye):
    X=              1.8517    Y=              3.7532    Z=              0.9098  Tot=              4.2829
 Quadrupole moment (field-independent basis, Debye-Ang):
   XX=           -361.8046   YY=           -386.6453   ZZ=           -396.4319
   XY=             -5.6306   XZ=              9.7666   YZ=             -2.8054

 Normal termination of Gaussian 09 at Sat Jul  6 02:46:07 2019.
