 Gaussian 16, Revision A.03,
 Gaussian 16:  ES64L-G16RevA.03 25-Dec-2016

 ----------------------------------------------------------------------
 # td=(NStates=1) iop(3/107=0140000000,3/108=0140000000) CAM-B3LYP/6-31
 G(d,p)
 ----------------------------------------------------------------------

 --
 TD
 --
 Symbolic Z-matrix:
 Charge =  0 Multiplicity = 1

                         Standard orientation:
 ---------------------------------------------------------------------
 Center     Atomic      Atomic             Coordinates (Angstroms)
 Number     Number       Type             X           Y           Z
 ---------------------------------------------------------------------
      1         12           0       -7.173149    0.581604    0.148385
      2          6           0       -4.841826   -1.904185    0.547053
      3          6           0       -4.906755    2.862537    1.188548
      4          6           0       -9.465964    3.067968   -0.342931
      5          6           0       -9.513855   -1.749022   -0.952102
      6          7           0       -5.065911    0.501502    0.735441
      7          6           0       -4.342567   -0.694601    0.758206
      8          6           0       -2.886678   -0.318150    1.161043
      9          6           0       -3.012333    1.149366    1.738643
     10          6           0       -4.379972    1.528023    1.166642
     11          6           0       -2.936084    1.377367    3.219955
     12          6           0       -1.891698   -0.628227    0.051155
     13          6           0       -0.462872   -0.330586    0.506726
     14          6           0        0.527422   -0.719897   -0.602694
     15          8           0        0.178535   -1.027081   -1.711860
     16          8           0        1.770406   -0.316262   -0.185276
     17          7           0       -7.115205    2.601723    0.260650
     18          6           0       -6.149469    3.354372    0.889403
     19          6           0       -6.444788    4.794879    0.833006
     20          6           0       -7.768146    4.865546    0.375985
     21          6           0       -8.168294    3.449755    0.119630
     22          6           0       -5.446531    5.847925    1.066710
     23          6           0       -8.538363    6.044744    0.143344
     24          6           0       -8.431243    7.288118    0.721775
     25          7           0       -9.096946    0.684168   -0.574491
     26          6           0       -9.907631    1.821219   -0.728099
     27          6           0      -11.255728    1.456937   -1.154626
     28          6           0      -11.163264    0.073405   -1.224804
     29          6           0       -9.902584   -0.400001   -0.961566
     30          6           0      -12.258579    2.349211   -1.536135
     31          6           0      -12.272908   -0.879576   -1.838753
     32          6           0      -12.234282   -1.379500   -3.206850
     33          7           0       -7.156092   -1.511281   -0.154162
     34          6           0       -8.222895   -2.293820   -0.473401
     35          6           0       -7.751868   -3.688655   -0.455758
     36          6           0       -6.498059   -3.625384   -0.058096
     37          6           0       -6.090778   -2.244667    0.127681
     38          6           0       -8.535237   -4.869072   -0.812452
     39          6           0       -5.356092   -4.360107    0.309067
     40          8           0       -5.121584   -5.545204    0.241948
     41          6           0       -4.154077   -3.264615    0.608792
     42          6           0       -3.528106   -3.703682    1.890197
     43          8           0       -3.822801   -3.136567    2.986297
     44          8           0       -2.647801   -4.654847    1.803716
     45          6           0       -2.045627   -5.228345    2.996587
     46          6           0        2.810359   -0.361749   -1.172628
     47          6           0        4.147041   -0.326386   -0.599247
     48          6           0        5.179123    0.514289   -0.983939
     49          6           0        5.050398    1.308884   -2.223984
     50          6           0        6.460922    0.448887   -0.190591
     51          6           0        7.585354    0.093695   -1.078687
     52          6           0        8.944244    0.012489   -0.297614
     53          6           0       10.176413   -0.480071   -0.946025
     54          6           0       10.107480   -2.071629   -1.299801
     55          6           0       11.366616   -0.374976   -0.033191
     56          6           0       12.682703   -0.594918   -0.774116
     57          6           0       13.962686   -0.281517    0.116296
     58          6           0       15.303161   -0.360235   -0.432356
     59          6           0       15.688289   -1.779423   -0.809938
     60          6           0       16.408012    0.261635    0.458779
     61          6           0       17.825736    0.349324   -0.068062
     62          6           0       18.669673    1.300366    0.729404
     63          6           0       20.131841    1.469189    0.284173
     64          6           0       20.264654    2.074756   -1.095291
     65          6           0       21.098645    2.049786    1.319638
     66          1           0       -4.100490    3.558952    1.468755
     67          1           0       -9.946241    3.913027   -0.458068
     68          1           0      -10.038045   -2.647813   -1.147282
     69          1           0       -2.657224   -1.006137    1.954033
     70          1           0       -2.216754    1.705822    1.170630
     71          1           0       -1.925917    0.886998    3.356946
     72          1           0       -2.999297    2.331696    3.492236
     73          1           0       -3.906151    0.784314    3.742711
     74          1           0       -1.925476   -1.714083   -0.121992
     75          1           0       -2.013088   -0.275387   -0.823810
     76          1           0       -0.462451    0.710151    0.771447
     77          1           0        0.028876   -0.812489    1.622825
     78          1           0       -5.678893    6.700889    0.601596
     79          1           0       -5.425876    6.326881    2.260174
     80          1           0       -4.345063    5.492793    0.588552
     81          1           0       -9.363554    5.923444   -0.476243
     82          1           0       -9.247847    7.901500    0.266566
     83          1           0       -7.793768    7.728839    1.298290
     84          1           0      -11.995067    3.008884   -2.302089
     85          1           0      -13.306771    2.001797   -1.470546
     86          1           0      -12.442209    3.104114   -0.489537
     87          1           0      -12.300237   -1.786338   -1.114649
     88          1           0      -13.222244   -0.301606   -1.790676
     89          1           0      -13.117433   -2.152375   -3.350121
     90          1           0      -12.367612   -0.529135   -3.878313
     91          1           0      -11.346931   -2.140288   -3.170008
     92          1           0       -8.992137   -4.674567   -1.791858
     93          1           0       -8.079353   -5.898262   -0.809055
     94          1           0       -9.534163   -4.871271   -0.199084
     95          1           0       -3.474662   -3.314001   -0.428970
     96          1           0       -1.403079   -4.595525    3.405516
     97          1           0       -2.894812   -5.594538    3.805762
     98          1           0       -1.578408   -6.235568    2.520506
     99          1           0        2.566336   -1.372616   -1.575221
    100          1           0        2.740657    0.533149   -1.762594
    101          1           0        4.381796   -0.866904    0.249611
    102          1           0        4.021986    1.108443   -2.804138
    103          1           0        5.175486    2.396206   -2.062254
    104          1           0        5.860861    0.875848   -2.852499
    105          1           0        6.602692    1.487011    0.367803
    106          1           0        6.221835   -0.400904    0.512388
    107          1           0        7.400041   -0.813286   -1.622641
    108          1           0        7.792724    0.765169   -1.903249
    109          1           0        9.105692    0.936889    0.241436
    110          1           0        8.627004   -0.577278    0.661882
    111          1           0       10.600196   -0.171701   -1.994089
    112          1           0        9.372587   -2.226903   -2.070531
    113          1           0       10.967830   -2.342372   -1.641494
    114          1           0        9.990572   -2.693364   -0.566477
    115          1           0       11.350406    0.646622    0.325852
    116          1           0       11.258000   -0.819620    0.989572
    117          1           0       12.971542   -1.769992   -1.096012
    118          1           0       12.692962    0.109408   -1.561410
    119          1           0       13.684010    0.711941    0.374888
    120          1           0       13.829581   -0.915611    1.122404
    121          1           0       15.387677    0.271483   -1.378194
    122          1           0       15.753772   -2.466403    0.013845
    123          1           0       15.051528   -2.210283   -1.524422
    124          1           0       16.734421   -1.702443   -1.265532
    125          1           0       16.125483    1.390238    0.591540
    126          1           0       16.355454   -0.203007    1.447010
    127          1           0       18.302875   -0.561142   -0.329989
    128          1           0       17.770318    0.870494   -1.252063
    129          1           0       18.076263    2.285916    0.948146
    130          1           0       18.570979    0.987363    1.743360
    131          1           0       20.404477    0.329854    0.234828
    132          1           0       19.715975    2.929431   -1.000937
    133          1           0       21.378057    2.280107   -1.458439
    134          1           0       19.751277    1.724085   -1.959446
    135          1           0       21.041536    1.506495    2.228187
    136          1           0       22.000919    2.068528    1.023648
    137          1           0       20.945696    3.086027    1.521480
 ---------------------------------------------------------------------

 SCF Done:  E(RCAM-B3LYP) =  -2933.44449682     A.U. after   16 cycles

 Excitation energies and oscillator strengths:

 Excited State   1:      Singlet-A      2.0532 eV  603.87 nm  f=0.2413  <S**2>=0.000
     240 -> 243        0.24818
     241 -> 242        0.65860
 This state for optimization and/or second-order correction.
 Total Energy, E(TD-HF/TD-DFT) =  -2933.36904397
 Copying the excited state density for this state as the 1-particle RhoCI density.

 The electronic state is 1-A.
 Alpha  occ. eigenvalues --  -46.80411 -19.22407 -19.21413 -19.17610 -19.15533
 Alpha  occ. eigenvalues --  -19.14473 -14.37412 -14.35230 -14.34771 -14.34619
 Alpha  occ. eigenvalues --  -10.34757 -10.33876 -10.29658 -10.28516 -10.26676
 Alpha  occ. eigenvalues --  -10.26136 -10.25395 -10.25242 -10.25090 -10.24788
 Alpha  occ. eigenvalues --  -10.24729 -10.24564 -10.24260 -10.24069 -10.23989
 Alpha  occ. eigenvalues --  -10.23627 -10.23433 -10.23240 -10.23224 -10.23216
 Alpha  occ. eigenvalues --  -10.22996 -10.22934 -10.22804 -10.22782 -10.22759
 Alpha  occ. eigenvalues --  -10.22661 -10.22623 -10.22531 -10.22488 -10.22377
 Alpha  occ. eigenvalues --  -10.22354 -10.22321 -10.22052 -10.21986 -10.21768
 Alpha  occ. eigenvalues --  -10.21719 -10.21696 -10.21577 -10.21521 -10.21498
 Alpha  occ. eigenvalues --  -10.21406 -10.21370 -10.21239 -10.21235 -10.20887
 Alpha  occ. eigenvalues --  -10.20788 -10.20748 -10.20670 -10.20595 -10.20588
 Alpha  occ. eigenvalues --  -10.19704 -10.19650 -10.19510 -10.18136 -10.16920
 Alpha  occ. eigenvalues --   -3.08814  -1.83773  -1.83252  -1.83229  -1.13218
 Alpha  occ. eigenvalues --   -1.12669  -1.05860  -1.05478  -1.00749  -0.99622
 Alpha  occ. eigenvalues --   -0.98761  -0.98024  -0.96398  -0.87466  -0.87068
 Alpha  occ. eigenvalues --   -0.85932  -0.85052  -0.84849  -0.84322  -0.83709
 Alpha  occ. eigenvalues --   -0.83645  -0.83211  -0.83058  -0.82196  -0.81481
 Alpha  occ. eigenvalues --   -0.80688  -0.79373  -0.78911  -0.78758  -0.78356
 Alpha  occ. eigenvalues --   -0.77330  -0.76689  -0.76452  -0.75701  -0.73677
 Alpha  occ. eigenvalues --   -0.73335  -0.72860  -0.72728  -0.72590  -0.71608
 Alpha  occ. eigenvalues --   -0.71215  -0.70568  -0.70401  -0.69181  -0.68070
 Alpha  occ. eigenvalues --   -0.67304  -0.66645  -0.65023  -0.64577  -0.63559
 Alpha  occ. eigenvalues --   -0.62818  -0.62701  -0.61296  -0.60797  -0.60546
 Alpha  occ. eigenvalues --   -0.60368  -0.59865  -0.59280  -0.58637  -0.58151
 Alpha  occ. eigenvalues --   -0.57409  -0.56986  -0.56337  -0.55981  -0.55394
 Alpha  occ. eigenvalues --   -0.55025  -0.54243  -0.53827  -0.53460  -0.52850
 Alpha  occ. eigenvalues --   -0.52330  -0.51803  -0.51281  -0.51227  -0.51034
 Alpha  occ. eigenvalues --   -0.50699  -0.50188  -0.49965  -0.49754  -0.49255
 Alpha  occ. eigenvalues --   -0.49161  -0.49041  -0.48853  -0.48653  -0.48478
 Alpha  occ. eigenvalues --   -0.48245  -0.47858  -0.47613  -0.47514  -0.47313
 Alpha  occ. eigenvalues --   -0.46921  -0.46497  -0.46373  -0.46349  -0.45942
 Alpha  occ. eigenvalues --   -0.45796  -0.45357  -0.45200  -0.45109  -0.44821
 Alpha  occ. eigenvalues --   -0.44642  -0.44377  -0.44205  -0.43928  -0.43694
 Alpha  occ. eigenvalues --   -0.43600  -0.43440  -0.43014  -0.42912  -0.42615
 Alpha  occ. eigenvalues --   -0.42294  -0.42213  -0.41978  -0.41886  -0.41589
 Alpha  occ. eigenvalues --   -0.41397  -0.41286  -0.40909  -0.40869  -0.40758
 Alpha  occ. eigenvalues --   -0.40529  -0.40163  -0.40045  -0.39953  -0.39801
 Alpha  occ. eigenvalues --   -0.39537  -0.39389  -0.39223  -0.39178  -0.38975
 Alpha  occ. eigenvalues --   -0.38909  -0.38627  -0.38416  -0.38366  -0.37974
 Alpha  occ. eigenvalues --   -0.37755  -0.37688  -0.37463  -0.37275  -0.37014
 Alpha  occ. eigenvalues --   -0.36971  -0.36856  -0.36839  -0.36492  -0.36352
 Alpha  occ. eigenvalues --   -0.35938  -0.35465  -0.35382  -0.35079  -0.34595
 Alpha  occ. eigenvalues --   -0.34348  -0.34138  -0.33701  -0.33351  -0.33304
 Alpha  occ. eigenvalues --   -0.32847  -0.32744  -0.32546  -0.32178  -0.31979
 Alpha  occ. eigenvalues --   -0.31942  -0.31747  -0.31468  -0.30905  -0.30411
 Alpha  occ. eigenvalues --   -0.29810  -0.29393  -0.28758  -0.28307  -0.27199
 Alpha  occ. eigenvalues --   -0.26288  -0.26092  -0.25139  -0.24750  -0.21509
 Alpha  occ. eigenvalues --   -0.19681
 Alpha virt. eigenvalues --   -0.06729  -0.04041  -0.00165   0.01821   0.02877
 Alpha virt. eigenvalues --    0.03512   0.03934   0.04393   0.05059   0.05992
 Alpha virt. eigenvalues --    0.06663   0.08653   0.09195   0.09499   0.09657

 Mulliken charges:
               1
     1  Mg   0.814146
     2  C    0.202714
     3  C   -0.215634
     4  C   -0.144314
     5  C   -0.136417
     6  N   -0.623050
     7  C    0.256829
     8  C   -0.159499
     9  C   -0.158006
    10  C    0.329514
    11  C   -0.273774
    12  C   -0.159823
    13  C   -0.264340
    14  C    0.608703
    15  O   -0.451567
    16  O   -0.487171
    17  N   -0.684069
    18  C    0.303762
    19  C    0.064561
    20  C    0.022279
    21  C    0.289887
    22  C   -0.362539
    23  C   -0.112392
    24  C   -0.202721
    25  N   -0.708859
    26  C    0.298771
    27  C    0.105701
    28  C   -0.009080
    29  C    0.341460
    30  C   -0.403392
    31  C   -0.224656
    32  C   -0.277350
    33  N   -0.726550
    34  C    0.217908
    35  C    0.018022
    36  C    0.124584
    37  C    0.230018
    38  C   -0.401291
    39  C    0.309245
    40  O   -0.458882
    41  C   -0.353621
    42  C    0.625233
    43  O   -0.524395
    44  O   -0.418631
    45  C   -0.076985
    46  C    0.043961
    47  C   -0.124590
    48  C    0.118228
    49  C   -0.369836
    50  C   -0.217044
    51  C   -0.184590
    52  C   -0.178162
    53  C   -0.057792
    54  C   -0.315164
    55  C   -0.167729
    56  C   -0.179918
    57  C   -0.163710
    58  C   -0.048199
    59  C   -0.314565
    60  C   -0.165186
    61  C   -0.151063
    62  C   -0.174962
    63  C   -0.045381
    64  C   -0.313929
    65  C   -0.310249
    66  H    0.068718
    67  H    0.037551
    68  H    0.074322
    69  H    0.123303
    70  H    0.096225
    71  H    0.108567
    72  H    0.129210
    73  H    0.103595
    74  H    0.116083
    75  H    0.125361
    76  H    0.137978
    77  H    0.084472
    78  H    0.136430
    79  H    0.086119
    80  H    0.098082
    81  H    0.094065
    82  H    0.090962
    83  H    0.093503
    84  H    0.142389
    85  H    0.128616
    86  H    0.067257
    87  H    0.085691
    88  H    0.083710
    89  H    0.091569
    90  H    0.114631
    91  H    0.094249
    92  H    0.127034
    93  H    0.147224
    94  H    0.113429
    95  H    0.140524
    96  H    0.146871
    97  H    0.123480
    98  H    0.121067
    99  H    0.121153
   100  H    0.107242
   101  H    0.074751
   102  H    0.101108
   103  H    0.119262
   104  H    0.126439
   105  H    0.094545
   106  H    0.104408
   107  H    0.108570
   108  H    0.102879
   109  H    0.089009
   110  H    0.078488
   111  H    0.079693
   112  H    0.087607
   113  H    0.106361
   114  H    0.106547
   115  H    0.085104
   116  H    0.089682
   117  H    0.071680
   118  H    0.104959
   119  H    0.087327
   120  H    0.062848
   121  H    0.073780
   122  H    0.102556
   123  H    0.107386
   124  H    0.090276
   125  H    0.077403
   126  H    0.090622
   127  H    0.106852
   128  H    0.034950
   129  H    0.067230
   130  H    0.095294
   131  H    0.065439
   132  H    0.114420
   133  H    0.081411
   134  H    0.109373
   135  H    0.104211
   136  H    0.114197
   137  H    0.098198
 Sum of Mulliken charges =  -0.00000

 Dipole moment (field-independent basis, Debye):
    X=              2.9771    Y=              4.7460    Z=              0.2296  Tot=              5.6071
 Quadrupole moment (field-independent basis, Debye-Ang):
   XX=           -347.3570   YY=           -387.9538   ZZ=           -399.7117
   XY=            -18.8703   XZ=             16.0304   YZ=             -2.6198

 Normal termination of Gaussian 16 at Sat Sep 14 08:15:26 2019.
