 Gaussian 16, Revision A.03,
 Gaussian 16:  ES64L-G16RevA.03 25-Dec-2016

 -------------------------------------
 # td=(NStates=1) CAM-B3LYP/6-31G(d,p)
 -------------------------------------

 --
 TD
 --
 Symbolic Z-matrix:
 Charge =  0 Multiplicity = 1

                         Standard orientation:
 ---------------------------------------------------------------------
 Center     Atomic      Atomic             Coordinates (Angstroms)
 Number     Number       Type             X           Y           Z
 ---------------------------------------------------------------------
      1         12           0       -7.240673    0.633700    0.064480
      2          6           0       -4.769685   -1.967885    0.369401
      3          6           0       -4.811933    2.797937    1.214379
      4          6           0       -9.431319    3.082570   -0.219311
      5          6           0       -9.548573   -1.730437   -0.887252
      6          7           0       -5.079445    0.427673    0.606480
      7          6           0       -4.338891   -0.795674    0.697546
      8          6           0       -2.931882   -0.398568    1.092445
      9          6           0       -3.079796    1.148169    1.522511
     10          6           0       -4.421893    1.485831    1.117492
     11          6           0       -2.815207    1.330442    3.032776
     12          6           0       -1.869047   -0.704764    0.071743
     13          6           0       -0.464283   -0.691618    0.538462
     14          6           0        0.594035   -0.927814   -0.491273
     15          8           0        0.353170   -1.256286   -1.593767
     16          8           0        1.834024   -0.630113   -0.168109
     17          7           0       -7.139967    2.580635    0.260165
     18          6           0       -6.053436    3.353114    0.788345
     19          6           0       -6.368546    4.814759    0.680130
     20          6           0       -7.678730    4.806592    0.312523
     21          6           0       -8.193114    3.472405    0.010268
     22          6           0       -5.418041    5.874309    1.101370
     23          6           0       -8.620847    6.021441    0.195766
     24          6           0       -8.516244    7.201655    0.755232
     25          7           0       -9.202996    0.680600   -0.485936
     26          6           0       -9.952273    1.800375   -0.635186
     27          6           0      -11.242677    1.471698   -1.081457
     28          6           0      -11.269397    0.169091   -1.275831
     29          6           0       -9.991120   -0.364634   -0.905290
     30          6           0      -12.326058    2.545689   -1.245449
     31          6           0      -12.492562   -0.615684   -1.723095
     32          6           0      -12.371584   -1.111048   -3.128350
     33          7           0       -7.262744   -1.411138   -0.099432
     34          6           0       -8.348082   -2.188065   -0.422391
     35          6           0       -7.815185   -3.597035   -0.439798
     36          6           0       -6.475794   -3.587802   -0.102024
     37          6           0       -6.185082   -2.222866    0.059231
     38          6           0       -8.662447   -4.712249   -0.892730
     39          6           0       -5.313205   -4.333276    0.115982
     40          8           0       -5.168042   -5.543792    0.093695
     41          6           0       -4.157410   -3.353327    0.509644
     42          6           0       -3.590613   -3.677554    1.954285
     43          8           0       -3.693659   -3.002717    2.875258
     44          8           0       -2.753833   -4.764037    1.854251
     45          6           0       -2.158366   -5.134841    3.057347
     46          6           0        2.902396   -0.821210   -1.216699
     47          6           0        4.150906   -0.575053   -0.570687
     48          6           0        5.066091    0.314050   -0.923627
     49          6           0        5.044542    1.208154   -2.158698
     50          6           0        6.332326    0.393009   -0.083757
     51          6           0        7.575896   -0.117693   -0.905329
     52          6           0        8.891921   -0.272724   -0.074732
     53          6           0       10.142707   -0.512170   -0.837413
     54          6           0       10.163073   -1.955048   -1.290534
     55          6           0       11.423604   -0.207867   -0.096252
     56          6           0       12.773642   -0.322208   -0.799689
     57          6           0       13.903002    0.057326    0.088322
     58          6           0       15.391666   -0.048457   -0.532149
     59          6           0       15.706336   -1.576004   -0.861389
     60          6           0       16.485453    0.629252    0.333874
     61          6           0       17.923357    0.618569   -0.255825
     62          6           0       18.798511    1.253141    0.668979
     63          6           0       20.303444    1.318022    0.311546
     64          6           0       20.597807    2.135487   -0.998062
     65          6           0       21.197316    1.791835    1.402823
     66          1           0       -4.051025    3.397703    1.636702
     67          1           0      -10.037406    3.915614   -0.381984
     68          1           0      -10.178042   -2.628157   -1.121967
     69          1           0       -2.801884   -0.945044    2.117250
     70          1           0       -2.229065    1.665719    1.020254
     71          1           0       -1.812251    1.050067    3.381225
     72          1           0       -3.048488    2.282038    3.421198
     73          1           0       -3.362067    0.565743    3.588379
     74          1           0       -2.102274   -1.668049   -0.271879
     75          1           0       -2.176528   -0.029981   -0.695858
     76          1           0       -0.111174    0.259083    0.900723
     77          1           0       -0.210585   -1.444963    1.388936
     78          1           0       -5.856260    6.818975    0.568126
     79          1           0       -5.421955    6.043165    2.031567
     80          1           0       -4.442647    5.709879    0.442751
     81          1           0       -9.386060    5.967688   -0.747944
     82          1           0       -9.346795    7.872491    0.467979
     83          1           0       -7.848580    7.719392    1.539516
     84          1           0      -12.184697    3.252704   -2.111107
     85          1           0      -13.359006    2.064644   -1.328570
     86          1           0      -12.385511    3.229821   -0.404919
     87          1           0      -12.766366   -1.633769   -1.108213
     88          1           0      -13.257545    0.028495   -1.580649
     89          1           0      -13.232665   -1.645688   -3.312048
     90          1           0      -12.446294   -0.253193   -3.697969
     91          1           0      -11.310194   -1.519645   -3.256804
     92          1           0       -8.855287   -4.546855   -1.990205
     93          1           0       -8.190806   -5.725108   -0.623665
     94          1           0       -9.714537   -4.730328   -0.363892
     95          1           0       -3.348454   -3.577229   -0.138754
     96          1           0       -1.677700   -4.265312    3.654892
     97          1           0       -2.988415   -5.494373    3.564294
     98          1           0       -1.514743   -5.931839    2.752923
     99          1           0        2.903688   -1.861817   -1.565178
    100          1           0        2.549390   -0.224464   -2.023324
    101          1           0        4.274474   -1.222196    0.275871
    102          1           0        4.034327    1.240270   -2.441611
    103          1           0        5.564048    2.262293   -2.152484
    104          1           0        5.794797    0.587779   -2.750099
    105          1           0        6.541719    1.538130    0.102715
    106          1           0        6.262102   -0.112369    0.911422
    107          1           0        7.229157   -1.135528   -1.213553
    108          1           0        7.770391    0.525003   -1.683130
    109          1           0        9.035878    0.912331    0.238719
    110          1           0        8.772664   -1.054813    0.707504
    111          1           0       10.212611    0.263585   -1.734844
    112          1           0        9.208054   -2.201643   -1.910176
    113          1           0       11.014153   -2.294300   -1.834914
    114          1           0       10.118355   -2.596054   -0.315090
    115          1           0       11.340377    0.923350    0.099303
    116          1           0       11.303836   -0.879141    0.871173
    117          1           0       13.008599   -1.373340   -1.069537
    118          1           0       12.820370    0.073018   -1.860108
    119          1           0       13.716554    1.072186    0.532179
    120          1           0       13.820388   -0.500228    1.083258
    121          1           0       15.225232    0.332994   -1.602380
    122          1           0       15.752162   -2.014217    0.139708
    123          1           0       14.879177   -1.899482   -1.543121
    124          1           0       16.563515   -1.444091   -1.404411
    125          1           0       16.089230    1.668874    0.392624
    126          1           0       16.554100    0.166082    1.441982
    127          1           0       18.348955   -0.486339   -0.454195
    128          1           0       18.107152    1.047834   -1.366124
    129          1           0       18.568268    2.171693    0.993957
    130          1           0       18.743446    0.746360    1.567169
    131          1           0       20.638383    0.333481   -0.016081
    132          1           0       20.140872    3.149615   -0.753800
    133          1           0       21.582167    2.038781   -1.222349
    134          1           0       19.950688    1.598113   -1.753224
    135          1           0       21.007498    1.173972    2.276869
    136          1           0       22.284356    1.511620    1.143890
    137          1           0       20.926791    2.757650    1.628907
 ---------------------------------------------------------------------

 SCF Done:  E(RCAM-B3LYP) =  -2932.77414487     A.U. after   15 cycles

 Excitation energies and oscillator strengths:

 Excited State   1:      Singlet-A      2.1715 eV  570.96 nm  f=0.2198  <S**2>=0.000
     240 -> 243        0.25232
     241 -> 242        0.65250
 This state for optimization and/or second-order correction.
 Total Energy, E(TD-HF/TD-DFT) =  -2932.69434367
 Copying the excited state density for this state as the 1-particle RhoCI density.

 The electronic state is 1-A.
 Alpha  occ. eigenvalues --  -46.83335 -19.25331 -19.24604 -19.22309 -19.19456
 Alpha  occ. eigenvalues --  -19.18596 -14.40368 -14.39391 -14.39033 -14.38957
 Alpha  occ. eigenvalues --  -10.39292 -10.37108 -10.34216 -10.31286 -10.31153
 Alpha  occ. eigenvalues --  -10.30212 -10.30073 -10.29411 -10.29326 -10.28917
 Alpha  occ. eigenvalues --  -10.28800 -10.28717 -10.28657 -10.28483 -10.28325
 Alpha  occ. eigenvalues --  -10.28298 -10.28019 -10.27993 -10.27691 -10.27642
 Alpha  occ. eigenvalues --  -10.27433 -10.27236 -10.27233 -10.27225 -10.27152
 Alpha  occ. eigenvalues --  -10.27016 -10.26912 -10.26847 -10.26836 -10.26819
 Alpha  occ. eigenvalues --  -10.26780 -10.26764 -10.26520 -10.26408 -10.26329
 Alpha  occ. eigenvalues --  -10.26089 -10.25830 -10.25685 -10.25648 -10.25572
 Alpha  occ. eigenvalues --  -10.25519 -10.25410 -10.25324 -10.25048 -10.24936
 Alpha  occ. eigenvalues --  -10.24902 -10.24884 -10.24754 -10.24738 -10.24533
 Alpha  occ. eigenvalues --  -10.24005 -10.23829 -10.23800 -10.23500 -10.22582
 Alpha  occ. eigenvalues --   -3.12449  -1.87158  -1.86667  -1.86646  -1.20209
 Alpha  occ. eigenvalues --   -1.18389  -1.12152  -1.10341  -1.08189  -1.04041
 Alpha  occ. eigenvalues --   -1.03237  -1.02276  -1.01000  -0.92883  -0.91894
 Alpha  occ. eigenvalues --   -0.91040  -0.90721  -0.89909  -0.89229  -0.88567
 Alpha  occ. eigenvalues --   -0.88484  -0.88120  -0.87756  -0.86959  -0.86028
 Alpha  occ. eigenvalues --   -0.85491  -0.84693  -0.84002  -0.83655  -0.83340
 Alpha  occ. eigenvalues --   -0.82163  -0.81375  -0.81222  -0.80559  -0.78675
 Alpha  occ. eigenvalues --   -0.78444  -0.77462  -0.76440  -0.76015  -0.75922
 Alpha  occ. eigenvalues --   -0.75285  -0.74866  -0.74501  -0.73308  -0.72234
 Alpha  occ. eigenvalues --   -0.71827  -0.70720  -0.69495  -0.68977  -0.68428
 Alpha  occ. eigenvalues --   -0.66634  -0.66030  -0.65012  -0.64746  -0.64104
 Alpha  occ. eigenvalues --   -0.63802  -0.62988  -0.62378  -0.61998  -0.61926
 Alpha  occ. eigenvalues --   -0.60799  -0.60771  -0.60351  -0.59521  -0.59022
 Alpha  occ. eigenvalues --   -0.58638  -0.58036  -0.57947  -0.57239  -0.56806
 Alpha  occ. eigenvalues --   -0.56241  -0.55688  -0.55440  -0.55169  -0.54982
 Alpha  occ. eigenvalues --   -0.54929  -0.54699  -0.54010  -0.53575  -0.53533
 Alpha  occ. eigenvalues --   -0.53276  -0.53133  -0.52657  -0.52161  -0.52027
 Alpha  occ. eigenvalues --   -0.51650  -0.51616  -0.51279  -0.50687  -0.50635
 Alpha  occ. eigenvalues --   -0.50440  -0.50389  -0.50112  -0.49924  -0.49659
 Alpha  occ. eigenvalues --   -0.49557  -0.49281  -0.49059  -0.48758  -0.48633
 Alpha  occ. eigenvalues --   -0.48409  -0.48274  -0.48125  -0.47794  -0.47548
 Alpha  occ. eigenvalues --   -0.47084  -0.46981  -0.46446  -0.46400  -0.46260
 Alpha  occ. eigenvalues --   -0.46097  -0.45982  -0.45787  -0.45625  -0.45398
 Alpha  occ. eigenvalues --   -0.45243  -0.45079  -0.44731  -0.44584  -0.44436
 Alpha  occ. eigenvalues --   -0.44406  -0.44277  -0.44095  -0.43363  -0.43195
 Alpha  occ. eigenvalues --   -0.42987  -0.42841  -0.42737  -0.42679  -0.42626
 Alpha  occ. eigenvalues --   -0.42294  -0.42159  -0.42019  -0.41966  -0.41720
 Alpha  occ. eigenvalues --   -0.41508  -0.41235  -0.40395  -0.40208  -0.40144
 Alpha  occ. eigenvalues --   -0.39826  -0.39405  -0.39382  -0.39117  -0.38872
 Alpha  occ. eigenvalues --   -0.38573  -0.38076  -0.38026  -0.37826  -0.37461
 Alpha  occ. eigenvalues --   -0.37354  -0.36922  -0.36910  -0.36610  -0.36395
 Alpha  occ. eigenvalues --   -0.35877  -0.35774  -0.35591  -0.35445  -0.35287
 Alpha  occ. eigenvalues --   -0.35158  -0.34855  -0.34495  -0.34340  -0.34074
 Alpha  occ. eigenvalues --   -0.32681  -0.32496  -0.32098  -0.30934  -0.29904
 Alpha  occ. eigenvalues --   -0.29691  -0.29357  -0.28942  -0.28447  -0.23636
 Alpha  occ. eigenvalues --   -0.21332
 Alpha virt. eigenvalues --   -0.05818  -0.03103   0.02067   0.04580   0.06432
 Alpha virt. eigenvalues --    0.06710   0.06935   0.07199   0.07629   0.08395
 Alpha virt. eigenvalues --    0.09489   0.11252   0.11415   0.11572   0.12170

 Mulliken charges:
               1
     1  Mg   0.821917
     2  C    0.071713
     3  C   -0.211389
     4  C   -0.147592
     5  C   -0.146897
     6  N   -0.664797
     7  C    0.279525
     8  C   -0.189524
     9  C   -0.173660
    10  C    0.424158
    11  C   -0.328031
    12  C   -0.145586
    13  C   -0.270514
    14  C    0.585457
    15  O   -0.467654
    16  O   -0.497038
    17  N   -0.733599
    18  C    0.290517
    19  C    0.024192
    20  C    0.000731
    21  C    0.325794
    22  C   -0.356983
    23  C   -0.089020
    24  C   -0.238762
    25  N   -0.683033
    26  C    0.265746
    27  C    0.046318
    28  C    0.009434
    29  C    0.253709
    30  C   -0.377860
    31  C   -0.217955
    32  C   -0.298382
    33  N   -0.722950
    34  C    0.291649
    35  C   -0.025865
    36  C    0.124865
    37  C    0.256314
    38  C   -0.394758
    39  C    0.312893
    40  O   -0.467391
    41  C   -0.317742
    42  C    0.605473
    43  O   -0.407000
    44  O   -0.455581
    45  C   -0.084131
    46  C    0.006273
    47  C   -0.120617
    48  C    0.107892
    49  C   -0.348086
    50  C   -0.220455
    51  C   -0.176650
    52  C   -0.152997
    53  C   -0.057956
    54  C   -0.300942
    55  C   -0.145413
    56  C   -0.180787
    57  C   -0.168551
    58  C   -0.091908
    59  C   -0.298310
    60  C   -0.168760
    61  C   -0.171527
    62  C   -0.146165
    63  C   -0.094318
    64  C   -0.290272
    65  C   -0.299182
    66  H    0.077773
    67  H    0.068869
    68  H    0.104354
    69  H    0.116295
    70  H    0.107296
    71  H    0.107391
    72  H    0.112920
    73  H    0.123588
    74  H    0.122490
    75  H    0.121525
    76  H    0.133580
    77  H    0.126079
    78  H    0.111525
    79  H    0.143313
    80  H    0.119779
    81  H    0.095933
    82  H    0.099055
    83  H    0.112522
    84  H    0.116639
    85  H    0.104785
    86  H    0.124962
    87  H    0.073230
    88  H    0.099457
    89  H    0.108774
    90  H    0.112687
    91  H    0.104644
    92  H    0.134856
    93  H    0.141008
    94  H    0.111540
    95  H    0.168365
    96  H    0.113218
    97  H    0.132017
    98  H    0.128035
    99  H    0.129251
   100  H    0.130188
   101  H    0.098451
   102  H    0.121716
   103  H    0.110880
   104  H    0.130081
   105  H    0.080633
   106  H    0.099898
   107  H    0.094921
   108  H    0.105201
   109  H    0.061296
   110  H    0.090697
   111  H    0.059142
   112  H    0.090312
   113  H    0.110793
   114  H    0.080438
   115  H    0.080744
   116  H    0.073013
   117  H    0.094356
   118  H    0.087976
   119  H    0.075660
   120  H    0.078877
   121  H    0.077009
   122  H    0.104200
   123  H    0.093328
   124  H    0.114461
   125  H    0.104914
   126  H    0.082233
   127  H    0.079306
   128  H    0.076879
   129  H    0.093835
   130  H    0.094833
   131  H    0.075122
   132  H    0.088666
   133  H    0.109935
   134  H    0.087476
   135  H    0.096029
   136  H    0.093301
   137  H    0.107462
 Sum of Mulliken charges =  -0.00000

 Dipole moment (field-independent basis, Debye):
    X=              2.1320    Y=              4.9747    Z=              0.9034  Tot=              5.4871
 Quadrupole moment (field-independent basis, Debye-Ang):
   XX=           -346.7124   YY=           -389.0425   ZZ=           -395.6400
   XY=            -27.7113   XZ=              9.1157   YZ=             -3.5042

 Normal termination of Gaussian 16 at Sat Jun 29 22:10:31 2019.
