 Gaussian 16, Revision A.03,
 Gaussian 16:  ES64L-G16RevA.03 25-Dec-2016

 ----------------------------------------------------------------------
 # td=(NStates=1) iop(3/107=0140000000,3/108=0140000000) CAM-B3LYP/6-31
 G(d,p)
 ----------------------------------------------------------------------

 --
 TD
 --
 Symbolic Z-matrix:
 Charge =  0 Multiplicity = 1

                         Standard orientation:
 ---------------------------------------------------------------------
 Center     Atomic      Atomic             Coordinates (Angstroms)
 Number     Number       Type             X           Y           Z
 ---------------------------------------------------------------------
      1         12           0       -7.043527    0.615142    0.047909
      2          6           0       -4.820641   -1.884098    0.569225
      3          6           0       -4.773369    2.833255    1.070476
      4          6           0       -9.407724    3.170839   -0.294284
      5          6           0       -9.495473   -1.690148   -0.782435
      6          7           0       -5.047461    0.539529    0.681462
      7          6           0       -4.268587   -0.747867    0.769361
      8          6           0       -2.886646   -0.411083    1.282247
      9          6           0       -2.977088    1.079648    1.650461
     10          6           0       -4.268714    1.574524    1.020448
     11          6           0       -2.885462    1.258572    3.205852
     12          6           0       -1.905327   -0.569886    0.114219
     13          6           0       -0.453216   -0.429332    0.469444
     14          6           0        0.431229   -0.763466   -0.697361
     15          8           0        0.232188   -1.162893   -1.932402
     16          8           0        1.686655   -0.460356   -0.427015
     17          7           0       -6.979510    2.590901    0.201247
     18          6           0       -5.882994    3.366402    0.648018
     19          6           0       -6.268099    4.775119    0.702888
     20          6           0       -7.625322    4.834658    0.207529
     21          6           0       -8.063865    3.485089    0.075790
     22          6           0       -5.503181    5.863664    1.090920
     23          6           0       -8.515565    6.012301   -0.034028
     24          6           0       -8.402786    7.238906    0.558646
     25          7           0       -9.182269    0.744550   -0.399233
     26          6           0       -9.883161    1.851954   -0.519175
     27          6           0      -11.313150    1.432421   -0.848055
     28          6           0      -11.305860    0.090159   -0.993928
     29          6           0       -9.897619   -0.328461   -0.863274
     30          6           0      -12.478742    2.365078   -1.172872
     31          6           0      -12.395230   -0.699261   -1.625021
     32          6           0      -12.189069   -1.210170   -3.081775
     33          7           0       -7.271026   -1.277925    0.025004
     34          6           0       -8.280178   -2.217051   -0.403015
     35          6           0       -7.823541   -3.538347   -0.524466
     36          6           0       -6.457470   -3.519557   -0.103852
     37          6           0       -6.137997   -2.112954    0.117211
     38          6           0       -8.622411   -4.751467   -1.041494
     39          6           0       -5.338993   -4.310136    0.112695
     40          8           0       -5.168719   -5.526396    0.029094
     41          6           0       -4.173549   -3.320771    0.527493
     42          6           0       -3.451669   -3.621636    1.864204
     43          8           0       -3.507493   -2.994715    2.936863
     44          8           0       -2.686747   -4.739733    1.818067
     45          6           0       -2.340801   -5.327755    3.088784
     46          6           0        2.832948   -0.785959   -1.235048
     47          6           0        4.037593   -0.418134   -0.528078
     48          6           0        5.087235    0.246012   -1.050455
     49          6           0        5.103631    0.968816   -2.389850
     50          6           0        6.367416    0.545199   -0.242974
     51          6           0        7.519461   -0.215509   -0.929474
     52          6           0        8.875681   -0.204200   -0.129282
     53          6           0       10.123858   -0.607029   -0.851077
     54          6           0       10.056904   -2.145465   -1.151984
     55          6           0       11.408228   -0.449569    0.011358
     56          6           0       12.726756   -0.529896   -0.660314
     57          6           0       13.893159   -0.150182    0.252682
     58          6           0       15.256921   -0.211895   -0.450290
     59          6           0       15.614719   -1.647414   -0.848781
     60          6           0       16.365024    0.522442    0.332078
     61          6           0       17.842271    0.513205   -0.212577
     62          6           0       18.734991    1.238174    0.733382
     63          6           0       20.186189    1.483078    0.217664
     64          6           0       20.259279    2.377625   -0.992392
     65          6           0       21.118530    1.929515    1.455272
     66          1           0       -3.942529    3.383974    1.624861
     67          1           0      -10.172798    3.896178   -0.133719
     68          1           0      -10.417462   -2.506816   -0.941962
     69          1           0       -2.566025   -1.033354    1.952496
     70          1           0       -2.129547    1.897202    1.190298
     71          1           0       -2.123966    0.710619    3.699851
     72          1           0       -2.901802    2.280405    3.544836
     73          1           0       -4.064599    0.888380    3.545068
     74          1           0       -1.920796   -1.522900   -0.328814
     75          1           0       -2.153805   -0.110157   -0.818639
     76          1           0       -0.332188    0.706140    0.629349
     77          1           0       -0.026005   -1.067248    1.293910
     78          1           0       -5.356562    6.861057    0.720690
     79          1           0       -5.707925    6.010609    2.265819
     80          1           0       -4.264301    5.755095    1.086626
     81          1           0       -9.327139    5.730470   -0.607056
     82          1           0       -8.909181    8.289045    0.027341
     83          1           0       -7.629651    7.512796    1.307221
     84          1           0      -12.274407    2.861542   -2.166549
     85          1           0      -13.362088    1.702019   -1.328184
     86          1           0      -12.686098    3.202372   -0.460674
     87          1           0      -12.319933   -1.623878   -0.882418
     88          1           0      -13.388685   -0.237545   -1.622890
     89          1           0      -13.074548   -1.833314   -3.347222
     90          1           0      -11.908686   -0.281382   -3.852899
     91          1           0      -11.345421   -1.924646   -3.125005
     92          1           0       -9.001912   -4.684296   -2.097531
     93          1           0       -7.972754   -5.727402   -1.085482
     94          1           0       -9.282054   -5.028820   -0.261035
     95          1           0       -3.335312   -3.334176   -0.236764
     96          1           0       -1.979447   -4.448780    3.648883
     97          1           0       -3.234640   -5.627342    3.608018
     98          1           0       -1.820483   -6.170528    2.902447
     99          1           0        2.654127   -1.910741   -1.345806
    100          1           0        2.733177   -0.505591   -2.255770
    101          1           0        4.214173   -0.913128    0.461345
    102          1           0        4.013334    0.935582   -2.935430
    103          1           0        5.390251    1.976272   -2.308329
    104          1           0        5.757134    0.528684   -3.214101
    105          1           0        6.666997    1.517299   -0.242213
    106          1           0        6.381455    0.136429    0.810352
    107          1           0        7.249764   -1.274641   -1.070747
    108          1           0        7.637452    0.081782   -1.949736
    109          1           0        9.117611    0.897715    0.197837
    110          1           0        8.655010   -0.930399    0.658726
    111          1           0       10.221607    0.001540   -1.818119
    112          1           0        9.376522   -2.516093   -2.059586
    113          1           0       11.157776   -2.565562   -1.333880
    114          1           0        9.897473   -2.604905   -0.075054
    115          1           0       11.377072    0.704725    0.180732
    116          1           0       11.538017   -0.971873    1.011706
    117          1           0       13.015339   -1.525501   -0.969014
    118          1           0       12.921436    0.120345   -1.539986
    119          1           0       13.522303    0.849694    0.815223
    120          1           0       13.696504   -0.655306    1.154630
    121          1           0       14.862785    0.469015   -1.283630
    122          1           0       15.628268   -2.528517   -0.140896
    123          1           0       14.830889   -2.084134   -1.499768
    124          1           0       16.591253   -1.678906   -1.278556
    125          1           0       16.209030    1.514520    0.576705
    126          1           0       16.548145    0.013463    1.308640
    127          1           0       18.137837   -0.474029   -0.775366
    128          1           0       17.614193    1.097815   -1.267973
    129          1           0       18.386205    2.269534    0.746537
    130          1           0       18.566202    0.799596    1.685813
    131          1           0       20.593802    0.464238   -0.015336
    132          1           0       19.804885    3.314989   -0.705756
    133          1           0       21.452840    2.900704   -1.030695
    134          1           0       19.774747    1.849071   -1.814940
    135          1           0       21.129122    1.128948    2.255592
    136          1           0       22.093975    2.209211    1.120707
    137          1           0       20.860018    2.916729    1.719721
 ---------------------------------------------------------------------

 SCF Done:  E(RCAM-B3LYP) =  -2933.47426364     A.U. after   16 cycles

 Excitation energies and oscillator strengths:

 Excited State   1:      Singlet-A      2.0065 eV  617.91 nm  f=0.2648  <S**2>=0.000
     240 -> 243       -0.18250
     241 -> 242        0.67847
 This state for optimization and/or second-order correction.
 Total Energy, E(TD-HF/TD-DFT) =  -2933.40052522
 Copying the excited state density for this state as the 1-particle RhoCI density.

 The electronic state is 1-A.
 Alpha  occ. eigenvalues --  -46.79006 -19.21055 -19.21047 -19.16421 -19.15022
 Alpha  occ. eigenvalues --  -19.15003 -14.37655 -14.36009 -14.35393 -14.35181
 Alpha  occ. eigenvalues --  -10.34848 -10.34476 -10.29638 -10.27219 -10.26602
 Alpha  occ. eigenvalues --  -10.25923 -10.25918 -10.25679 -10.25575 -10.25464
 Alpha  occ. eigenvalues --  -10.25247 -10.25172 -10.25144 -10.24855 -10.24683
 Alpha  occ. eigenvalues --  -10.24566 -10.24515 -10.24220 -10.24210 -10.24166
 Alpha  occ. eigenvalues --  -10.23876 -10.23745 -10.23325 -10.23299 -10.23141
 Alpha  occ. eigenvalues --  -10.23138 -10.22948 -10.22921 -10.22803 -10.22697
 Alpha  occ. eigenvalues --  -10.22686 -10.22648 -10.22473 -10.22428 -10.22393
 Alpha  occ. eigenvalues --  -10.22307 -10.22276 -10.22022 -10.22012 -10.21982
 Alpha  occ. eigenvalues --  -10.21949 -10.21818 -10.21758 -10.21731 -10.21358
 Alpha  occ. eigenvalues --  -10.21302 -10.21204 -10.21186 -10.21006 -10.20833
 Alpha  occ. eigenvalues --  -10.20623 -10.20551 -10.20469 -10.20209 -10.19954
 Alpha  occ. eigenvalues --   -3.07873  -1.82782  -1.82372  -1.82291  -1.12278
 Alpha  occ. eigenvalues --   -1.12062  -1.04415  -1.02387  -0.98792  -0.98575
 Alpha  occ. eigenvalues --   -0.97960  -0.96837  -0.96042  -0.87962  -0.86485
 Alpha  occ. eigenvalues --   -0.86086  -0.85676  -0.84536  -0.84329  -0.83915
 Alpha  occ. eigenvalues --   -0.83373  -0.83246  -0.82379  -0.81824  -0.81511
 Alpha  occ. eigenvalues --   -0.80313  -0.79773  -0.78930  -0.78219  -0.77741
 Alpha  occ. eigenvalues --   -0.77021  -0.76952  -0.76316  -0.75448  -0.73959
 Alpha  occ. eigenvalues --   -0.73239  -0.72062  -0.71628  -0.71132  -0.71007
 Alpha  occ. eigenvalues --   -0.70712  -0.70372  -0.69677  -0.69143  -0.68931
 Alpha  occ. eigenvalues --   -0.67087  -0.66281  -0.64952  -0.64754  -0.64528
 Alpha  occ. eigenvalues --   -0.63183  -0.62463  -0.61915  -0.61340  -0.60498
 Alpha  occ. eigenvalues --   -0.59487  -0.59343  -0.59283  -0.58508  -0.57774
 Alpha  occ. eigenvalues --   -0.57506  -0.56882  -0.56745  -0.55549  -0.55012
 Alpha  occ. eigenvalues --   -0.55006  -0.54272  -0.53292  -0.52979  -0.52554
 Alpha  occ. eigenvalues --   -0.51885  -0.51558  -0.51175  -0.50747  -0.50529
 Alpha  occ. eigenvalues --   -0.50472  -0.50330  -0.50007  -0.49949  -0.49651
 Alpha  occ. eigenvalues --   -0.49060  -0.48854  -0.48383  -0.48176  -0.47644
 Alpha  occ. eigenvalues --   -0.47493  -0.47364  -0.47325  -0.46927  -0.46767
 Alpha  occ. eigenvalues --   -0.46644  -0.46417  -0.46250  -0.46147  -0.45982
 Alpha  occ. eigenvalues --   -0.45911  -0.45836  -0.45347  -0.45149  -0.44870
 Alpha  occ. eigenvalues --   -0.44676  -0.44520  -0.44304  -0.43944  -0.43674
 Alpha  occ. eigenvalues --   -0.43548  -0.43120  -0.43007  -0.42801  -0.42732
 Alpha  occ. eigenvalues --   -0.42076  -0.42003  -0.41961  -0.41501  -0.41388
 Alpha  occ. eigenvalues --   -0.41035  -0.40765  -0.40653  -0.40463  -0.40306
 Alpha  occ. eigenvalues --   -0.40275  -0.40147  -0.40014  -0.39922  -0.39613
 Alpha  occ. eigenvalues --   -0.39471  -0.39225  -0.39043  -0.38942  -0.38815
 Alpha  occ. eigenvalues --   -0.38733  -0.38418  -0.38283  -0.38059  -0.37787
 Alpha  occ. eigenvalues --   -0.37520  -0.37368  -0.37173  -0.36971  -0.36656
 Alpha  occ. eigenvalues --   -0.36612  -0.36421  -0.36301  -0.36062  -0.35585
 Alpha  occ. eigenvalues --   -0.35558  -0.35279  -0.35261  -0.35085  -0.34662
 Alpha  occ. eigenvalues --   -0.34482  -0.34163  -0.34148  -0.34048  -0.33323
 Alpha  occ. eigenvalues --   -0.33078  -0.32474  -0.32225  -0.32041  -0.31976
 Alpha  occ. eigenvalues --   -0.31574  -0.31171  -0.30924  -0.30635  -0.30344
 Alpha  occ. eigenvalues --   -0.29975  -0.29582  -0.28965  -0.28542  -0.27264
 Alpha  occ. eigenvalues --   -0.27158  -0.26513  -0.25698  -0.24702  -0.22711
 Alpha  occ. eigenvalues --   -0.20320
 Alpha virt. eigenvalues --   -0.07678  -0.03937  -0.00974   0.01116   0.02861
 Alpha virt. eigenvalues --    0.03020   0.03147   0.03978   0.04802   0.05764
 Alpha virt. eigenvalues --    0.06423   0.08381   0.08906   0.09141   0.09298

 Mulliken charges:
               1
     1  Mg   0.813583
     2  C    0.113190
     3  C   -0.193011
     4  C   -0.193860
     5  C   -0.184870
     6  N   -0.627786
     7  C    0.240026
     8  C   -0.093961
     9  C   -0.137104
    10  C    0.360301
    11  C   -0.300404
    12  C   -0.204492
    13  C   -0.247619
    14  C    0.572028
    15  O   -0.538157
    16  O   -0.446238
    17  N   -0.728453
    18  C    0.354601
    19  C    0.083549
    20  C   -0.002811
    21  C    0.318863
    22  C   -0.426240
    23  C   -0.041975
    24  C   -0.246894
    25  N   -0.635460
    26  C    0.319023
    27  C   -0.005292
    28  C    0.039091
    29  C    0.262664
    30  C   -0.377508
    31  C   -0.231628
    32  C   -0.292256
    33  N   -0.722727
    34  C    0.268741
    35  C    0.040220
    36  C    0.070048
    37  C    0.241271
    38  C   -0.391389
    39  C    0.325056
    40  O   -0.480444
    41  C   -0.324522
    42  C    0.611884
    43  O   -0.489474
    44  O   -0.450911
    45  C   -0.082632
    46  C    0.020672
    47  C   -0.123696
    48  C    0.139238
    49  C   -0.372942
    50  C   -0.216345
    51  C   -0.202270
    52  C   -0.148045
    53  C   -0.050581
    54  C   -0.301141
    55  C   -0.176045
    56  C   -0.168204
    57  C   -0.186869
    58  C   -0.039356
    59  C   -0.325561
    60  C   -0.169214
    61  C   -0.189628
    62  C   -0.153954
    63  C   -0.062486
    64  C   -0.295608
    65  C   -0.325322
    66  H    0.074595
    67  H    0.097427
    68  H    0.084646
    69  H    0.109759
    70  H    0.069283
    71  H    0.131200
    72  H    0.115275
    73  H    0.090481
    74  H    0.118006
    75  H    0.129478
    76  H    0.139631
    77  H    0.140592
    78  H    0.148158
    79  H    0.112832
    80  H    0.079598
    81  H    0.093891
    82  H    0.080635
    83  H    0.107954
    84  H    0.120686
    85  H    0.108571
    86  H    0.114455
    87  H    0.087387
    88  H    0.106382
    89  H    0.108443
    90  H    0.089322
    91  H    0.110559
    92  H    0.128081
    93  H    0.134893
    94  H    0.140432
    95  H    0.165341
    96  H    0.135955
    97  H    0.128279
    98  H    0.129945
    99  H    0.111902
   100  H    0.131591
   101  H    0.087961
   102  H    0.093012
   103  H    0.131435
   104  H    0.121640
   105  H    0.114528
   106  H    0.094110
   107  H    0.099515
   108  H    0.093443
   109  H    0.068833
   110  H    0.094680
   111  H    0.081614
   112  H    0.092979
   113  H    0.084866
   114  H    0.086681
   115  H    0.076538
   116  H    0.092729
   117  H    0.095252
   118  H    0.085118
   119  H    0.051660
   120  H    0.089264
   121  H    0.086656
   122  H    0.103812
   123  H    0.105647
   124  H    0.108750
   125  H    0.103141
   126  H    0.081435
   127  H    0.082645
   128  H    0.051831
   129  H    0.097072
   130  H    0.099448
   131  H    0.081190
   132  H    0.108788
   133  H    0.063851
   134  H    0.122468
   135  H    0.102617
   136  H    0.098632
   137  H    0.101831
 Sum of Mulliken charges =  -0.00000

 Dipole moment (field-independent basis, Debye):
    X=              2.0394    Y=              4.7222    Z=              1.1412  Tot=              5.2689
 Quadrupole moment (field-independent basis, Debye-Ang):
   XX=           -353.9623   YY=           -390.0546   ZZ=           -398.9880
   XY=            -15.9769   XZ=             13.8010   YZ=             -3.3925

 Normal termination of Gaussian 16 at Fri Sep 13 00:14:23 2019.
