 Gaussian 09, Revision D.01,
 Gaussian 09:  ES64L-G09RevD.01 24-Apr-2013

 -------------------------------------
 # td=(NStates=1) CAM-B3LYP/6-31G(d,p)
 -------------------------------------

 --
 TD
 --
 Symbolic Z-matrix:
 Charge =  0 Multiplicity = 1

                         Standard orientation:
 ---------------------------------------------------------------------
 Center     Atomic      Atomic             Coordinates (Angstroms)
 Number     Number       Type             X           Y           Z
 ---------------------------------------------------------------------
      1         12           0       -7.081608    0.645892   -0.019290
      2          6           0       -4.805427   -1.939957    0.448782
      3          6           0       -4.849431    2.865339    1.047783
      4          6           0       -9.378143    3.099939   -0.545569
      5          6           0       -9.498990   -1.747363   -0.988756
      6          7           0       -5.023028    0.472005    0.663787
      7          6           0       -4.251810   -0.669799    0.812520
      8          6           0       -2.883333   -0.309548    1.169457
      9          6           0       -3.072703    1.070030    1.709359
     10          6           0       -4.339372    1.536273    1.090286
     11          6           0       -2.994524    1.005269    3.332761
     12          6           0       -1.926117   -0.486294    0.001140
     13          6           0       -0.419542   -0.662451    0.479048
     14          6           0        0.579375   -0.890613   -0.616637
     15          8           0        0.324427   -1.338636   -1.718608
     16          8           0        1.864071   -0.513191   -0.178443
     17          7           0       -7.067823    2.601338    0.248482
     18          6           0       -6.010614    3.381278    0.738039
     19          6           0       -6.438484    4.787573    0.893400
     20          6           0       -7.734089    4.820957    0.361805
     21          6           0       -8.137673    3.524365    0.096385
     22          6           0       -5.566308    5.815436    1.529910
     23          6           0       -8.569519    6.038242    0.141295
     24          6           0       -8.507361    7.185617    0.754344
     25          7           0       -9.108787    0.716460   -0.644008
     26          6           0       -9.849815    1.796829   -0.691256
     27          6           0      -11.231632    1.438865   -1.092909
     28          6           0      -11.296417    0.148663   -1.294858
     29          6           0       -9.901317   -0.398078   -0.998433
     30          6           0      -12.355541    2.461282   -1.337424
     31          6           0      -12.401504   -0.825906   -1.652886
     32          6           0      -12.236301   -1.091980   -3.282756
     33          7           0       -7.127643   -1.408330   -0.212959
     34          6           0       -8.263448   -2.258662   -0.678535
     35          6           0       -7.828201   -3.614239   -0.602719
     36          6           0       -6.476646   -3.523452   -0.103418
     37          6           0       -6.175397   -2.152603    0.076902
     38          6           0       -8.596147   -4.789287   -0.869635
     39          6           0       -5.372114   -4.345831    0.196708
     40          8           0       -5.154839   -5.522464    0.177943
     41          6           0       -4.149215   -3.191729    0.603652
     42          6           0       -3.709371   -3.706090    1.987883
     43          8           0       -4.088258   -3.171235    3.127226
     44          8           0       -2.816728   -4.722118    1.917595
     45          6           0       -2.360328   -5.153383    3.167450
     46          6           0        2.859839   -0.736814   -1.203245
     47          6           0        4.195216   -0.445298   -0.583365
     48          6           0        5.127649    0.455563   -1.012771
     49          6           0        5.020715    1.227524   -2.258807
     50          6           0        6.433001    0.471763   -0.183969
     51          6           0        7.620636   -0.026499   -0.932811
     52          6           0        8.846935    0.083953   -0.146075
     53          6           0       10.159584   -0.398212   -0.825855
     54          6           0       10.064151   -1.836741   -1.350672
     55          6           0       11.455903   -0.123630    0.089497
     56          6           0       12.827180   -0.432716   -0.689906
     57          6           0       13.995930   -0.101446    0.296813
     58          6           0       15.294048   -0.154763   -0.486934
     59          6           0       15.613179   -1.619454   -0.869824
     60          6           0       16.535177    0.372421    0.439607
     61          6           0       17.923965    0.342740   -0.205145
     62          6           0       18.833403    1.222471    0.772552
     63          6           0       20.218586    1.271582    0.148753
     64          6           0       20.318259    2.161434   -1.136311
     65          6           0       21.291965    1.844508    1.232921
     66          1           0       -4.227770    3.719416    1.474407
     67          1           0      -10.213485    3.870792   -0.619141
     68          1           0      -10.232228   -2.678859   -1.150339
     69          1           0       -2.788456   -1.044449    1.919358
     70          1           0       -2.250228    1.692942    1.340813
     71          1           0       -1.944509    0.901423    3.448697
     72          1           0       -3.166763    1.880098    3.827035
     73          1           0       -3.709589    0.125372    3.756454
     74          1           0       -2.069635   -1.488098   -0.518879
     75          1           0       -2.042302    0.050408   -0.835951
     76          1           0       -0.025318    0.280051    1.211832
     77          1           0       -0.318067   -1.411491    1.207271
     78          1           0       -5.650330    6.930073    1.198374
     79          1           0       -5.864183    5.920642    2.618352
     80          1           0       -4.330343    5.892655    1.323581
     81          1           0       -9.240985    6.024622   -0.679554
     82          1           0       -9.325179    7.985856    0.678396
     83          1           0       -7.701677    7.134697    1.478178
     84          1           0      -11.810288    3.309382   -2.113416
     85          1           0      -13.292923    2.125518   -1.830845
     86          1           0      -12.644076    3.088782   -0.473774
     87          1           0      -12.266249   -1.819955   -1.196374
     88          1           0      -13.262112   -0.428581   -1.345804
     89          1           0      -12.894556   -1.933289   -3.916745
     90          1           0      -12.418654   -0.032294   -3.650971
     91          1           0      -11.227205   -1.437043   -3.420098
     92          1           0       -8.906226   -4.980312   -2.087143
     93          1           0       -8.087607   -5.731928   -0.758316
     94          1           0       -9.586476   -4.582255   -0.337504
     95          1           0       -3.429450   -3.521848   -0.191367
     96          1           0       -1.725340   -4.245314    3.703154
     97          1           0       -3.183105   -5.763496    3.585653
     98          1           0       -1.630546   -5.838246    2.601133
     99          1           0        2.736930   -1.722279   -1.661545
    100          1           0        2.462543   -0.170887   -2.083084
    101          1           0        4.560173   -0.984773    0.418246
    102          1           0        4.042829    1.495284   -2.375141
    103          1           0        5.278396    2.233664   -2.171641
    104          1           0        5.414060    0.968264   -3.291606
    105          1           0        6.587677    1.552691    0.062600
    106          1           0        6.358081   -0.098033    0.724605
    107          1           0        7.348443   -1.013128   -1.200618
    108          1           0        7.804445    0.522442   -1.655546
    109          1           0        8.725311    1.135116    0.331056
    110          1           0        8.724711   -0.538381    0.619352
    111          1           0       10.225571    0.174011   -1.720940
    112          1           0        9.104235   -2.155926   -1.738404
    113          1           0       10.785796   -2.019528   -2.015403
    114          1           0       10.233580   -2.397100   -0.460513
    115          1           0       11.588759    0.707100    0.439835
    116          1           0       11.376510   -0.731784    0.859366
    117          1           0       12.948890   -1.424800   -0.981792
    118          1           0       12.916119    0.180114   -1.598464
    119          1           0       13.865470    0.749368    0.962259
    120          1           0       14.209037   -1.035329    1.014294
    121          1           0       15.328424    0.342325   -1.441834
    122          1           0       15.843502   -2.428723   -0.095940
    123          1           0       14.793895   -2.096899   -1.517398
    124          1           0       16.502192   -1.733909   -1.534123
    125          1           0       16.191117    1.533230    0.785782
    126          1           0       16.470296   -0.328853    1.436311
    127          1           0       18.327519   -0.635280   -0.324402
    128          1           0       17.789790    0.760165   -1.221053
    129          1           0       18.573827    2.222469    0.962892
    130          1           0       19.014161    0.709442    1.706604
    131          1           0       20.572817    0.209016   -0.115925
    132          1           0       20.019443    3.198830   -0.818241
    133          1           0       21.263954    2.064083   -1.778559
    134          1           0       19.602248    1.937645   -1.853370
    135          1           0       20.961502    1.211939    2.216371
    136          1           0       22.370638    1.695745    0.859569
    137          1           0       21.016680    2.855073    1.383166
 ---------------------------------------------------------------------

 SCF Done:  E(RCAM-B3LYP) =  -2932.59841283     A.U. after   18 cycles

 Excitation energies and oscillator strengths:

 Excited State   1:      Singlet-A      1.9634 eV  631.47 nm  f=0.2568  <S**2>=0.000
     240 -> 243       -0.22195
     241 -> 242        0.66600
 This state for optimization and/or second-order correction.
 Total Energy, E(TD-HF/TD-KS) =  -2932.52625881
 Copying the excited state density for this state as the 1-particle RhoCI density.

 The electronic state is 1-A.
 Alpha  occ. eigenvalues --  -46.84837 -19.26258 -19.25840 -19.22233 -19.20160
 Alpha  occ. eigenvalues --  -19.19380 -14.42165 -14.40039 -14.39275 -14.39201
 Alpha  occ. eigenvalues --  -10.39916 -10.39077 -10.34444 -10.32093 -10.31800
 Alpha  occ. eigenvalues --  -10.31526 -10.30656 -10.30496 -10.29726 -10.29681
 Alpha  occ. eigenvalues --  -10.29676 -10.29459 -10.29044 -10.28958 -10.28891
 Alpha  occ. eigenvalues --  -10.28810 -10.28406 -10.28209 -10.28159 -10.28119
 Alpha  occ. eigenvalues --  -10.28000 -10.27688 -10.27582 -10.27496 -10.27469
 Alpha  occ. eigenvalues --  -10.27423 -10.27184 -10.27131 -10.26967 -10.26842
 Alpha  occ. eigenvalues --  -10.26759 -10.26676 -10.26654 -10.26478 -10.26465
 Alpha  occ. eigenvalues --  -10.26358 -10.26280 -10.26184 -10.26046 -10.26011
 Alpha  occ. eigenvalues --  -10.25691 -10.25630 -10.25607 -10.25550 -10.25264
 Alpha  occ. eigenvalues --  -10.25148 -10.24752 -10.24728 -10.24591 -10.24422
 Alpha  occ. eigenvalues --  -10.24406 -10.23430 -10.22934 -10.22578 -10.21783
 Alpha  occ. eigenvalues --   -3.13782  -1.88497  -1.88013  -1.87959  -1.17414
 Alpha  occ. eigenvalues --   -1.16907  -1.11566  -1.09397  -1.05713  -1.04254
 Alpha  occ. eigenvalues --   -1.03989  -1.03528  -1.02223  -0.92113  -0.91871
 Alpha  occ. eigenvalues --   -0.90726  -0.89744  -0.89692  -0.89182  -0.88919
 Alpha  occ. eigenvalues --   -0.88572  -0.88023  -0.87873  -0.86931  -0.86006
 Alpha  occ. eigenvalues --   -0.85234  -0.84549  -0.83084  -0.82835  -0.82418
 Alpha  occ. eigenvalues --   -0.81434  -0.80949  -0.80800  -0.80105  -0.78729
 Alpha  occ. eigenvalues --   -0.78538  -0.77203  -0.76173  -0.75795  -0.75364
 Alpha  occ. eigenvalues --   -0.74966  -0.74715  -0.73920  -0.73258  -0.72167
 Alpha  occ. eigenvalues --   -0.71854  -0.71280  -0.70233  -0.69574  -0.68000
 Alpha  occ. eigenvalues --   -0.67129  -0.66578  -0.66049  -0.65117  -0.64940
 Alpha  occ. eigenvalues --   -0.64462  -0.63495  -0.63126  -0.62782  -0.61383
 Alpha  occ. eigenvalues --   -0.61165  -0.60909  -0.60683  -0.60114  -0.59183
 Alpha  occ. eigenvalues --   -0.58740  -0.58359  -0.58086  -0.57111  -0.56662
 Alpha  occ. eigenvalues --   -0.56440  -0.55776  -0.55528  -0.55127  -0.55009
 Alpha  occ. eigenvalues --   -0.54871  -0.54204  -0.53820  -0.53599  -0.52952
 Alpha  occ. eigenvalues --   -0.52545  -0.52096  -0.52090  -0.51682  -0.51636
 Alpha  occ. eigenvalues --   -0.51201  -0.51028  -0.50893  -0.50613  -0.50563
 Alpha  occ. eigenvalues --   -0.50261  -0.50092  -0.49627  -0.49467  -0.49152
 Alpha  occ. eigenvalues --   -0.48779  -0.48734  -0.48519  -0.48243  -0.48096
 Alpha  occ. eigenvalues --   -0.47800  -0.47528  -0.47438  -0.47229  -0.46963
 Alpha  occ. eigenvalues --   -0.46609  -0.46588  -0.46151  -0.45912  -0.45645
 Alpha  occ. eigenvalues --   -0.45481  -0.45298  -0.45095  -0.45042  -0.44858
 Alpha  occ. eigenvalues --   -0.44584  -0.44570  -0.44347  -0.44195  -0.44080
 Alpha  occ. eigenvalues --   -0.43931  -0.43770  -0.43522  -0.43483  -0.43391
 Alpha  occ. eigenvalues --   -0.43069  -0.42971  -0.42739  -0.42551  -0.42465
 Alpha  occ. eigenvalues --   -0.42234  -0.41858  -0.41552  -0.41317  -0.40950
 Alpha  occ. eigenvalues --   -0.40817  -0.40794  -0.40637  -0.40629  -0.40392
 Alpha  occ. eigenvalues --   -0.40348  -0.40296  -0.39555  -0.39276  -0.39218
 Alpha  occ. eigenvalues --   -0.39181  -0.38793  -0.38663  -0.37971  -0.37899
 Alpha  occ. eigenvalues --   -0.37802  -0.37591  -0.37473  -0.37389  -0.36961
 Alpha  occ. eigenvalues --   -0.36953  -0.36364  -0.36199  -0.36127  -0.35700
 Alpha  occ. eigenvalues --   -0.35641  -0.34904  -0.34647  -0.34540  -0.33617
 Alpha  occ. eigenvalues --   -0.33021  -0.31914  -0.31895  -0.30392  -0.29584
 Alpha  occ. eigenvalues --   -0.29495  -0.28525  -0.28380  -0.28255  -0.23439
 Alpha  occ. eigenvalues --   -0.21084
 Alpha virt. eigenvalues --   -0.06991  -0.02904   0.01228   0.04308   0.05249
 Alpha virt. eigenvalues --    0.05353   0.05681   0.05760   0.06711   0.06830
 Alpha virt. eigenvalues --    0.08129   0.10522   0.11152   0.11205   0.11553

 Mulliken charges:
               1
     1  Mg   0.821395
     2  C    0.112095
     3  C   -0.232988
     4  C   -0.186379
     5  C   -0.175215
     6  N   -0.614098
     7  C    0.270788
     8  C   -0.134161
     9  C   -0.169633
    10  C    0.376044
    11  C   -0.309844
    12  C   -0.180060
    13  C   -0.266944
    14  C    0.625938
    15  O   -0.470171
    16  O   -0.494315
    17  N   -0.731963
    18  C    0.351612
    19  C    0.064188
    20  C    0.003291
    21  C    0.275676
    22  C   -0.414005
    23  C   -0.052344
    24  C   -0.244872
    25  N   -0.667409
    26  C    0.337519
    27  C    0.006540
    28  C    0.047478
    29  C    0.230577
    30  C   -0.371935
    31  C   -0.228027
    32  C   -0.308916
    33  N   -0.745804
    34  C    0.218909
    35  C    0.100715
    36  C   -0.003614
    37  C    0.389027
    38  C   -0.392426
    39  C    0.302034
    40  O   -0.451630
    41  C   -0.382701
    42  C    0.618962
    43  O   -0.544682
    44  O   -0.425906
    45  C   -0.076068
    46  C    0.000945
    47  C   -0.127587
    48  C    0.119689
    49  C   -0.383126
    50  C   -0.242423
    51  C   -0.139143
    52  C   -0.176825
    53  C   -0.091266
    54  C   -0.321046
    55  C   -0.153691
    56  C   -0.197655
    57  C   -0.169583
    58  C   -0.063304
    59  C   -0.325288
    60  C   -0.150832
    61  C   -0.179947
    62  C   -0.160782
    63  C   -0.074197
    64  C   -0.307722
    65  C   -0.299924
    66  H    0.071972
    67  H    0.084577
    68  H    0.099367
    69  H    0.134298
    70  H    0.107788
    71  H    0.120118
    72  H    0.119566
    73  H    0.130862
    74  H    0.126954
    75  H    0.128282
    76  H    0.098574
    77  H    0.155435
    78  H    0.123941
    79  H    0.140601
    80  H    0.108859
    81  H    0.093655
    82  H    0.113708
    83  H    0.085695
    84  H    0.084773
    85  H    0.119999
    86  H    0.126466
    87  H    0.108660
    88  H    0.110120
    89  H    0.078305
    90  H    0.110439
    91  H    0.125808
    92  H    0.092153
    93  H    0.158783
    94  H    0.123656
    95  H    0.153084
    96  H    0.117317
    97  H    0.145919
    98  H    0.118492
    99  H    0.131538
   100  H    0.122055
   101  H    0.087605
   102  H    0.124020
   103  H    0.113832
   104  H    0.124299
   105  H    0.084590
   106  H    0.095409
   107  H    0.095834
   108  H    0.100473
   109  H    0.070188
   110  H    0.090861
   111  H    0.079273
   112  H    0.106091
   113  H    0.115510
   114  H    0.101543
   115  H    0.094265
   116  H    0.099488
   117  H    0.110007
   118  H    0.091577
   119  H    0.092695
   120  H    0.076447
   121  H    0.089212
   122  H    0.095358
   123  H    0.088923
   124  H    0.094511
   125  H    0.054986
   126  H    0.066226
   127  H    0.110778
   128  H    0.100909
   129  H    0.100104
   130  H    0.100101
   131  H    0.070346
   132  H    0.089272
   133  H    0.093840
   134  H    0.105748
   135  H    0.071336
   136  H    0.100482
   137  H    0.109077
 Sum of Mulliken charges =   0.00000

 Dipole moment (field-independent basis, Debye):
    X=              0.9590    Y=              5.5258    Z=             -0.2984  Tot=              5.6164
 Quadrupole moment (field-independent basis, Debye-Ang):
   XX=           -356.2992   YY=           -389.4081   ZZ=           -399.4487
   XY=            -29.1926   XZ=              0.0939   YZ=              4.9090

 Normal termination of Gaussian 09 at Thu Jul  4 09:33:27 2019.
