 Gaussian 16, Revision A.03,
 Gaussian 16:  ES64L-G16RevA.03 25-Dec-2016

 ----------------------------------------------------------------------
 # td=(NStates=1) iop(3/107=0140000000,3/108=0140000000) CAM-B3LYP/6-31
 G(d,p)
 ----------------------------------------------------------------------

 --
 TD
 --
 Symbolic Z-matrix:
 Charge =  0 Multiplicity = 1

                         Standard orientation:
 ---------------------------------------------------------------------
 Center     Atomic      Atomic             Coordinates (Angstroms)
 Number     Number       Type             X           Y           Z
 ---------------------------------------------------------------------
      1         12           0       -7.106948    0.518814   -0.067600
      2          6           0       -4.958185   -1.953344    0.563592
      3          6           0       -4.734762    2.832280    1.187419
      4          6           0       -9.385070    3.109164   -0.387658
      5          6           0       -9.505548   -1.704280   -0.833973
      6          7           0       -5.175344    0.417435    0.558808
      7          6           0       -4.387553   -0.673174    0.781811
      8          6           0       -2.945777   -0.407088    1.210633
      9          6           0       -3.033495    1.093805    1.637403
     10          6           0       -4.411376    1.502463    1.028591
     11          6           0       -3.053062    1.235012    3.146495
     12          6           0       -1.828882   -0.563929    0.089052
     13          6           0       -0.474142   -0.249131    0.570106
     14          6           0        0.540712   -0.732838   -0.428014
     15          8           0        0.223289   -1.146860   -1.525004
     16          8           0        1.871242   -0.565921   -0.105949
     17          7           0       -6.955288    2.604716    0.168483
     18          6           0       -5.999603    3.413717    0.753159
     19          6           0       -6.365137    4.812308    0.764987
     20          6           0       -7.668112    4.914440    0.323015
     21          6           0       -8.061307    3.441154   -0.057832
     22          6           0       -5.334191    5.773791    1.262738
     23          6           0       -8.543724    6.007646    0.046055
     24          6           0       -8.299233    7.253856    0.502040
     25          7           0       -9.170700    0.677034   -0.557671
     26          6           0       -9.837801    1.788714   -0.682120
     27          6           0      -11.161732    1.517273   -1.057356
     28          6           0      -11.223091    0.123457   -1.153331
     29          6           0       -9.927088   -0.390496   -0.934608
     30          6           0      -12.282108    2.504399   -1.321413
     31          6           0      -12.460179   -0.769327   -1.495919
     32          6           0      -12.479894   -1.209725   -3.046403
     33          7           0       -7.262302   -1.377183   -0.216683
     34          6           0       -8.315455   -2.232232   -0.506429
     35          6           0       -7.885067   -3.593020   -0.481940
     36          6           0       -6.507527   -3.500083   -0.149078
     37          6           0       -6.221321   -2.209591    0.025253
     38          6           0       -8.666072   -4.888662   -0.819703
     39          6           0       -5.335742   -4.418815    0.258688
     40          8           0       -5.147004   -5.585973    0.209305
     41          6           0       -4.191553   -3.302940    0.511891
     42          6           0       -3.514424   -3.588938    1.924572
     43          8           0       -3.741281   -3.023480    2.959183
     44          8           0       -2.656890   -4.678967    1.789878
     45          6           0       -2.052211   -5.026088    2.935015
     46          6           0        2.837032   -0.867525   -1.114644
     47          6           0        4.220768   -0.633468   -0.541270
     48          6           0        5.071373    0.317905   -0.965761
     49          6           0        5.091267    1.248527   -2.094551
     50          6           0        6.389663    0.320681   -0.047994
     51          6           0        7.543834   -0.110140   -0.948049
     52          6           0        8.997705   -0.033718   -0.182439
     53          6           0       10.281660   -0.480206   -1.031734
     54          6           0       10.078938   -1.911261   -1.591847
     55          6           0       11.433515   -0.216289   -0.171851
     56          6           0       12.760980   -0.580401   -0.791030
     57          6           0       13.923269    0.010556    0.182958
     58          6           0       15.297857   -0.138522   -0.540192
     59          6           0       15.650460   -1.574093   -0.982721
     60          6           0       16.330912    0.381931    0.427759
     61          6           0       17.775971    0.568311   -0.257762
     62          6           0       18.722462    1.280312    0.771002
     63          6           0       20.145930    1.277785    0.316373
     64          6           0       20.417519    2.184067   -0.874191
     65          6           0       21.139868    1.772183    1.436514
     66          1           0       -4.049234    3.440127    1.618732
     67          1           0      -10.157913    4.012959   -0.342627
     68          1           0      -10.304688   -2.502996   -1.119949
     69          1           0       -2.615359   -1.088563    2.051679
     70          1           0       -2.147267    1.617555    1.214908
     71          1           0       -2.191631    0.638153    3.595411
     72          1           0       -3.178073    2.375832    3.587198
     73          1           0       -4.017479    0.528702    3.468049
     74          1           0       -1.835628   -1.537943   -0.416045
     75          1           0       -2.270357    0.200293   -0.634885
     76          1           0       -0.415101    0.963578    0.948866
     77          1           0       -0.192791   -0.945470    1.519279
     78          1           0       -5.353002    6.584636    0.608016
     79          1           0       -5.552035    6.096005    2.242841
     80          1           0       -4.285196    5.510940    0.884906
     81          1           0       -9.403551    5.682656   -0.393870
     82          1           0       -9.050924    8.088659    0.374018
     83          1           0       -7.254114    7.615247    1.085872
     84          1           0      -12.168124    3.135123   -2.147712
     85          1           0      -13.239952    2.039417   -1.472647
     86          1           0      -12.520983    3.188418   -0.560817
     87          1           0      -12.524169   -1.608545   -0.871683
     88          1           0      -13.329367   -0.156718   -1.128671
     89          1           0      -13.185411   -2.016120   -3.031987
     90          1           0      -12.828769   -0.241747   -3.701630
     91          1           0      -11.534171   -1.414805   -3.493708
     92          1           0       -9.249052   -4.591624   -1.737799
     93          1           0       -7.881990   -5.647638   -1.123067
     94          1           0       -9.561911   -5.258960    0.181080
     95          1           0       -3.536577   -3.574310   -0.211917
     96          1           0       -1.095155   -4.260550    3.205535
     97          1           0       -2.676776   -5.180429    3.775829
     98          1           0       -1.637438   -5.831616    2.607784
     99          1           0        2.828716   -1.900846   -1.431429
    100          1           0        2.432975   -0.265781   -1.949987
    101          1           0        4.467128   -1.243937    0.225652
    102          1           0        3.983009    1.374098   -2.508685
    103          1           0        5.396974    2.138012   -1.696492
    104          1           0        5.793038    0.704478   -2.903937
    105          1           0        6.534750    1.266955    0.050733
    106          1           0        6.384399   -0.024471    0.883813
    107          1           0        7.391699   -1.075885   -1.225780
    108          1           0        7.690065    0.429872   -1.774108
    109          1           0        9.156267    0.926935    0.256993
    110          1           0        8.892129   -0.951092    0.571099
    111          1           0       10.213269    0.113134   -1.778112
    112          1           0        9.171511   -2.113416   -2.327621
    113          1           0       10.920137   -2.218331   -2.133171
    114          1           0        9.933639   -2.617327   -0.893441
    115          1           0       11.306264    0.809157    0.121188
    116          1           0       10.993496   -0.608005    0.783185
    117          1           0       12.902538   -1.760332   -0.785046
    118          1           0       13.134920   -0.143945   -1.755516
    119          1           0       13.676661    1.034059    0.196002
    120          1           0       13.957066   -0.508852    1.107253
    121          1           0       15.282864    0.318269   -1.457620
    122          1           0       15.458612   -2.434990   -0.265524
    123          1           0       14.963587   -1.986955   -1.610829
    124          1           0       16.720787   -1.841503   -1.301384
    125          1           0       15.978733    1.425168    0.826456
    126          1           0       16.396111   -0.314488    1.513041
    127          1           0       18.223226   -0.418130   -0.479745
    128          1           0       17.648709    1.131037   -1.235356
    129          1           0       18.362592    2.397071    0.906473
    130          1           0       18.634291    0.729460    1.745685
    131          1           0       20.208413    0.210983    0.049937
    132          1           0       19.807103    3.029402   -0.627838
    133          1           0       21.646418    2.108630   -1.201415
    134          1           0       19.789676    1.626577   -1.900768
    135          1           0       21.047746    1.204541    2.310234
    136          1           0       22.216404    1.889241    1.022803
    137          1           0       20.924628    2.872296    1.621725
 ---------------------------------------------------------------------

 SCF Done:  E(RCAM-B3LYP) =  -2933.42001610     A.U. after   16 cycles

 Excitation energies and oscillator strengths:

 Excited State   1:      Singlet-A      2.1295 eV  582.23 nm  f=0.2294  <S**2>=0.000
     240 -> 242       -0.11670
     240 -> 243       -0.25794
     241 -> 242        0.63762
 This state for optimization and/or second-order correction.
 Total Energy, E(TD-HF/TD-DFT) =  -2933.34175935
 Copying the excited state density for this state as the 1-particle RhoCI density.

 The electronic state is 1-A.
 Alpha  occ. eigenvalues --  -46.79013 -19.21645 -19.20948 -19.17543 -19.17477
 Alpha  occ. eigenvalues --  -19.16477 -14.37793 -14.35894 -14.34228 -14.33952
 Alpha  occ. eigenvalues --  -10.34527 -10.34517 -10.31327 -10.26476 -10.26433
 Alpha  occ. eigenvalues --  -10.26324 -10.26059 -10.25912 -10.25813 -10.25131
 Alpha  occ. eigenvalues --  -10.25106 -10.24243 -10.24025 -10.23993 -10.23931
 Alpha  occ. eigenvalues --  -10.23838 -10.23542 -10.23437 -10.23425 -10.23420
 Alpha  occ. eigenvalues --  -10.23386 -10.23366 -10.23300 -10.23222 -10.23122
 Alpha  occ. eigenvalues --  -10.23104 -10.23015 -10.22821 -10.22670 -10.22656
 Alpha  occ. eigenvalues --  -10.22615 -10.22414 -10.22018 -10.21995 -10.21791
 Alpha  occ. eigenvalues --  -10.21733 -10.21680 -10.21490 -10.21457 -10.21110
 Alpha  occ. eigenvalues --  -10.21047 -10.20975 -10.20871 -10.20833 -10.20709
 Alpha  occ. eigenvalues --  -10.20645 -10.20289 -10.20254 -10.20211 -10.20130
 Alpha  occ. eigenvalues --  -10.19770 -10.19574 -10.19344 -10.19277 -10.19002
 Alpha  occ. eigenvalues --   -3.07831  -1.82751  -1.82324  -1.82244  -1.13789
 Alpha  occ. eigenvalues --   -1.12151  -1.08647  -1.06019  -1.03843  -0.99792
 Alpha  occ. eigenvalues --   -0.98964  -0.97902  -0.96472  -0.86906  -0.86133
 Alpha  occ. eigenvalues --   -0.85416  -0.85091  -0.84554  -0.84497  -0.83386
 Alpha  occ. eigenvalues --   -0.83294  -0.82515  -0.81678  -0.81481  -0.80763
 Alpha  occ. eigenvalues --   -0.79813  -0.79100  -0.78705  -0.77438  -0.77065
 Alpha  occ. eigenvalues --   -0.76592  -0.76258  -0.74957  -0.74750  -0.73022
 Alpha  occ. eigenvalues --   -0.72549  -0.72395  -0.71745  -0.71557  -0.71081
 Alpha  occ. eigenvalues --   -0.70491  -0.69966  -0.69198  -0.68457  -0.67333
 Alpha  occ. eigenvalues --   -0.66766  -0.65793  -0.65352  -0.64493  -0.63687
 Alpha  occ. eigenvalues --   -0.62816  -0.62453  -0.60768  -0.60343  -0.60263
 Alpha  occ. eigenvalues --   -0.60142  -0.59328  -0.59041  -0.58189  -0.57837
 Alpha  occ. eigenvalues --   -0.57348  -0.56704  -0.56575  -0.56057  -0.55035
 Alpha  occ. eigenvalues --   -0.54503  -0.54219  -0.53592  -0.53178  -0.52106
 Alpha  occ. eigenvalues --   -0.51983  -0.51541  -0.51353  -0.50892  -0.50691
 Alpha  occ. eigenvalues --   -0.50516  -0.50173  -0.49916  -0.49452  -0.49342
 Alpha  occ. eigenvalues --   -0.49204  -0.49091  -0.48508  -0.47743  -0.47541
 Alpha  occ. eigenvalues --   -0.47491  -0.47275  -0.47212  -0.46945  -0.46656
 Alpha  occ. eigenvalues --   -0.46620  -0.46307  -0.46207  -0.46017  -0.45725
 Alpha  occ. eigenvalues --   -0.45656  -0.45552  -0.45416  -0.44899  -0.44526
 Alpha  occ. eigenvalues --   -0.44437  -0.44212  -0.44055  -0.43635  -0.43439
 Alpha  occ. eigenvalues --   -0.43015  -0.42733  -0.42496  -0.42333  -0.42085
 Alpha  occ. eigenvalues --   -0.42002  -0.41972  -0.41867  -0.41758  -0.41601
 Alpha  occ. eigenvalues --   -0.41451  -0.41205  -0.41127  -0.40868  -0.40824
 Alpha  occ. eigenvalues --   -0.40658  -0.40501  -0.40176  -0.39962  -0.39808
 Alpha  occ. eigenvalues --   -0.39673  -0.39470  -0.39360  -0.38938  -0.38909
 Alpha  occ. eigenvalues --   -0.38789  -0.38595  -0.38436  -0.38138  -0.37899
 Alpha  occ. eigenvalues --   -0.37879  -0.37730  -0.37620  -0.37367  -0.36967
 Alpha  occ. eigenvalues --   -0.36523  -0.36375  -0.36271  -0.36023  -0.35843
 Alpha  occ. eigenvalues --   -0.35329  -0.35235  -0.34994  -0.34881  -0.34872
 Alpha  occ. eigenvalues --   -0.34221  -0.34215  -0.34046  -0.33705  -0.33582
 Alpha  occ. eigenvalues --   -0.33370  -0.33271  -0.32769  -0.32746  -0.32338
 Alpha  occ. eigenvalues --   -0.32016  -0.31839  -0.31768  -0.30704  -0.30270
 Alpha  occ. eigenvalues --   -0.30052  -0.29942  -0.29398  -0.28351  -0.26897
 Alpha  occ. eigenvalues --   -0.26772  -0.26586  -0.25155  -0.24833  -0.21673
 Alpha  occ. eigenvalues --   -0.20202
 Alpha virt. eigenvalues --   -0.06720  -0.04236   0.00191   0.01893   0.02847
 Alpha virt. eigenvalues --    0.03661   0.04755   0.04950   0.05391   0.05616
 Alpha virt. eigenvalues --    0.06641   0.07991   0.09042   0.09059   0.09632

 Mulliken charges:
               1
     1  Mg   0.815786
     2  C    0.024340
     3  C   -0.176734
     4  C   -0.168879
     5  C   -0.206825
     6  N   -0.638642
     7  C    0.334070
     8  C   -0.160311
     9  C   -0.137112
    10  C    0.334750
    11  C   -0.285213
    12  C   -0.159327
    13  C   -0.246132
    14  C    0.608336
    15  O   -0.461867
    16  O   -0.483663
    17  N   -0.670397
    18  C    0.296005
    19  C    0.023911
    20  C    0.004577
    21  C    0.279876
    22  C   -0.388748
    23  C   -0.019167
    24  C   -0.255267
    25  N   -0.694451
    26  C    0.330548
    27  C    0.015241
    28  C   -0.005294
    29  C    0.303723
    30  C   -0.395885
    31  C   -0.242962
    32  C   -0.304662
    33  N   -0.778320
    34  C    0.319958
    35  C    0.009119
    36  C   -0.028317
    37  C    0.330341
    38  C   -0.346479
    39  C    0.381202
    40  O   -0.418065
    41  C   -0.311851
    42  C    0.605209
    43  O   -0.448844
    44  O   -0.430734
    45  C   -0.062228
    46  C    0.015357
    47  C   -0.114164
    48  C    0.090934
    49  C   -0.349147
    50  C   -0.205637
    51  C   -0.187985
    52  C   -0.221086
    53  C   -0.039031
    54  C   -0.325533
    55  C   -0.161813
    56  C   -0.192978
    57  C   -0.179859
    58  C   -0.052665
    59  C   -0.328220
    60  C   -0.145921
    61  C   -0.185918
    62  C   -0.161084
    63  C   -0.045171
    64  C   -0.267937
    65  C   -0.304211
    66  H    0.067026
    67  H    0.097473
    68  H    0.081409
    69  H    0.115932
    70  H    0.090341
    71  H    0.109515
    72  H    0.092837
    73  H    0.105685
    74  H    0.131000
    75  H    0.109098
    76  H    0.117223
    77  H    0.117784
    78  H    0.129563
    79  H    0.141075
    80  H    0.113452
    81  H    0.078179
    82  H    0.103154
    83  H    0.090349
    84  H    0.125597
    85  H    0.112249
    86  H    0.117419
    87  H    0.111039
    88  H    0.097466
    89  H    0.113028
    90  H    0.085872
    91  H    0.125624
    92  H    0.122310
    93  H    0.146628
    94  H    0.082436
    95  H    0.153997
    96  H    0.058100
    97  H    0.128900
    98  H    0.125048
    99  H    0.116278
   100  H    0.107259
   101  H    0.087440
   102  H    0.104235
   103  H    0.133156
   104  H    0.124921
   105  H    0.100284
   106  H    0.100654
   107  H    0.106317
   108  H    0.099512
   109  H    0.088107
   110  H    0.070636
   111  H    0.092234
   112  H    0.080067
   113  H    0.106042
   114  H    0.110234
   115  H    0.089245
   116  H    0.091519
   117  H    0.087132
   118  H    0.099272
   119  H    0.102039
   120  H    0.104671
   121  H    0.096490
   122  H    0.080139
   123  H    0.107634
   124  H    0.096824
   125  H    0.074756
   126  H    0.051875
   127  H    0.097806
   128  H    0.094573
   129  H    0.064682
   130  H    0.091410
   131  H    0.081747
   132  H    0.116945
   133  H    0.089318
   134  H    0.041864
   135  H    0.107040
   136  H    0.087492
   137  H    0.092797
 Sum of Mulliken charges =  -0.00000

 Dipole moment (field-independent basis, Debye):
    X=              1.5107    Y=              4.9880    Z=             -0.0916  Tot=              5.2125
 Quadrupole moment (field-independent basis, Debye-Ang):
   XX=           -362.2937   YY=           -386.4711   ZZ=           -401.5799
   XY=            -23.4097   XZ=              7.7852   YZ=              1.9754

 Normal termination of Gaussian 16 at Wed Sep 11 02:05:00 2019.
