 Gaussian 16, Revision A.03,
 Gaussian 16:  ES64L-G16RevA.03 25-Dec-2016

 ----------------------------------------------------------------------
 # td=(NStates=1) iop(3/107=0140000000,3/108=0140000000) CAM-B3LYP/6-31
 G(d,p)
 ----------------------------------------------------------------------

 --
 TD
 --
 Symbolic Z-matrix:
 Charge =  0 Multiplicity = 1

                         Standard orientation:
 ---------------------------------------------------------------------
 Center     Atomic      Atomic             Coordinates (Angstroms)
 Number     Number       Type             X           Y           Z
 ---------------------------------------------------------------------
      1         12           0       -7.168257    0.590622    0.071194
      2          6           0       -4.937365   -1.894248    0.593397
      3          6           0       -4.688369    2.756600    1.216825
      4          6           0       -9.289649    3.216723   -0.371218
      5          6           0       -9.604890   -1.681309   -0.956863
      6          7           0       -5.086460    0.430342    0.631588
      7          6           0       -4.376067   -0.696023    0.785774
      8          6           0       -2.982388   -0.452222    1.181051
      9          6           0       -3.102611    0.947139    1.726447
     10          6           0       -4.391852    1.402015    1.215383
     11          6           0       -2.913485    1.071145    3.219830
     12          6           0       -1.885968   -0.677803    0.109038
     13          6           0       -0.490766   -0.465387    0.462223
     14          6           0        0.468431   -0.785003   -0.600802
     15          8           0        0.150128   -1.184579   -1.710640
     16          8           0        1.735088   -0.588239   -0.290416
     17          7           0       -7.005742    2.647916    0.408812
     18          6           0       -5.932575    3.384915    0.855113
     19          6           0       -6.270019    4.826650    0.941152
     20          6           0       -7.629729    4.874284    0.306374
     21          6           0       -7.962601    3.488949    0.084733
     22          6           0       -5.330287    5.908519    1.273431
     23          6           0       -8.432580    6.141914    0.183118
     24          6           0       -8.241715    7.355238    0.877162
     25          7           0       -9.072159    0.709012   -0.557711
     26          6           0       -9.768580    1.895947   -0.728377
     27          6           0      -11.202821    1.589023   -1.147668
     28          6           0      -11.210818    0.266883   -1.327174
     29          6           0       -9.886525   -0.257501   -1.005261
     30          6           0      -12.153894    2.645659   -1.476642
     31          6           0      -12.356586   -0.515735   -1.931229
     32          6           0      -12.149572   -1.075661   -3.325155
     33          7           0       -7.313291   -1.360980   -0.259584
     34          6           0       -8.298784   -2.172488   -0.634404
     35          6           0       -8.008334   -3.554972   -0.431729
     36          6           0       -6.596938   -3.552119    0.009265
     37          6           0       -6.230407   -2.136881    0.037420
     38          6           0       -8.777828   -4.808346   -0.700841
     39          6           0       -5.454350   -4.355881    0.197965
     40          8           0       -5.290172   -5.548190    0.302224
     41          6           0       -4.293150   -3.294258    0.595955
     42          6           0       -3.651342   -3.680190    2.015556
     43          8           0       -3.896310   -3.180789    3.055574
     44          8           0       -2.874051   -4.702742    1.797272
     45          6           0       -2.448251   -5.306184    2.967913
     46          6           0        2.781473   -0.841993   -1.148252
     47          6           0        4.121937   -0.690720   -0.460366
     48          6           0        4.964292    0.282384   -0.850408
     49          6           0        4.994216    1.078299   -2.130585
     50          6           0        6.360809    0.454542   -0.238960
     51          6           0        7.599212   -0.188008   -0.998007
     52          6           0        8.841219    0.003473   -0.241261
     53          6           0       10.145126   -0.584573   -0.941603
     54          6           0       10.099429   -2.163588   -1.363271
     55          6           0       11.391212   -0.294865   -0.077888
     56          6           0       12.789961   -0.515311   -0.825261
     57          6           0       13.971944   -0.282601    0.107171
     58          6           0       15.334535   -0.149092   -0.564536
     59          6           0       15.868949   -1.493740   -0.942394
     60          6           0       16.395583    0.540489    0.325402
     61          6           0       17.849106    0.608228   -0.191302
     62          6           0       18.792886    1.371240    0.801474
     63          6           0       20.201753    1.378770    0.275165
     64          6           0       20.442938    2.133112   -0.897709
     65          6           0       21.201502    1.933633    1.385072
     66          1           0       -4.036229    3.339637    1.512348
     67          1           0       -9.965077    3.966058   -0.507828
     68          1           0      -10.238564   -2.511062   -1.178159
     69          1           0       -2.905920   -1.263486    1.813822
     70          1           0       -2.310387    1.450198    1.445351
     71          1           0       -1.779213    0.746080    3.449809
     72          1           0       -3.103328    2.078261    3.462613
     73          1           0       -3.672713    0.375213    3.712892
     74          1           0       -1.906575   -1.828343   -0.486429
     75          1           0       -2.006706   -0.081795   -0.717134
     76          1           0       -0.374772    0.566305    0.864408
     77          1           0       -0.243700   -1.023482    1.321098
     78          1           0       -5.364463    6.860457    0.487238
     79          1           0       -5.566769    6.369952    2.246308
     80          1           0       -4.217725    5.642408    1.067619
     81          1           0       -9.183744    5.854901   -0.447325
     82          1           0       -8.923098    8.285226    0.656803
     83          1           0       -7.232898    7.451926    1.382791
     84          1           0      -11.671393    3.116381   -2.285070
     85          1           0      -13.155802    2.176265   -1.694873
     86          1           0      -12.133512    3.229993   -0.522199
     87          1           0      -12.382249   -1.436300   -1.224163
     88          1           0      -13.212647    0.242149   -1.935953
     89          1           0      -13.048450   -1.484740   -3.593203
     90          1           0      -11.925107   -0.167782   -4.063470
     91          1           0      -11.286365   -1.897879   -3.576983
     92          1           0       -9.269903   -4.872683   -1.728738
     93          1           0       -8.197295   -5.773063   -0.829329
     94          1           0       -9.517099   -5.057043   -0.018346
     95          1           0       -3.439535   -3.656037   -0.107041
     96          1           0       -1.783798   -4.564043    3.430342
     97          1           0       -3.124144   -5.855091    3.530269
     98          1           0       -1.978795   -6.248463    2.556026
     99          1           0        2.593494   -1.782272   -1.544872
    100          1           0        2.645041   -0.074144   -1.837737
    101          1           0        4.344204   -1.199809    0.442313
    102          1           0        4.131274    1.297329   -2.729555
    103          1           0        5.227818    2.027535   -2.189888
    104          1           0        5.759785    0.627328   -2.859947
    105          1           0        6.404111    1.390594   -0.234830
    106          1           0        6.257688   -0.000355    0.718632
    107          1           0        7.402419   -1.263609   -1.003135
    108          1           0        7.926351   -0.003642   -2.215313
    109          1           0        9.085077    1.032729   -0.129807
    110          1           0        8.891771   -0.516007    0.864237
    111          1           0       10.428525    0.068175   -1.875737
    112          1           0        9.388689   -2.341389   -2.044636
    113          1           0       10.948380   -2.469103   -1.920747
    114          1           0       10.104076   -2.610211   -0.302177
    115          1           0       11.500835    0.742708    0.528699
    116          1           0       11.607420   -1.057485    0.938105
    117          1           0       12.743040   -1.517618   -1.240791
    118          1           0       12.876143    0.169681   -1.532063
    119          1           0       13.857280    0.747464    0.583296
    120          1           0       14.182069   -1.086897    0.867685
    121          1           0       15.377335    0.278791   -1.606206
    122          1           0       16.107156   -2.248497   -0.046490
    123          1           0       15.120023   -1.859605   -1.605467
    124          1           0       16.745610   -1.625502   -1.517496
    125          1           0       16.223378    1.641624    0.737456
    126          1           0       16.599042   -0.175609    1.344888
    127          1           0       18.287473   -0.408002   -0.488633
    128          1           0       17.617426    1.388768   -1.089767
    129          1           0       18.134588    2.408713    1.043786
    130          1           0       18.739491    0.927198    1.708588
    131          1           0       20.619993    0.345909    0.072336
    132          1           0       19.982992    3.103313   -0.833188
    133          1           0       21.537465    2.156362   -1.241308
    134          1           0       19.945604    1.821780   -1.951087
    135          1           0       21.311805    1.174972    2.301991
    136          1           0       22.354038    1.670492    1.087237
    137          1           0       20.921744    2.818570    1.688518
 ---------------------------------------------------------------------

 SCF Done:  E(RCAM-B3LYP) =  -2933.38407959     A.U. after   15 cycles

 Excitation energies and oscillator strengths:

 Excited State   1:      Singlet-A      1.9300 eV  642.42 nm  f=0.2932  <S**2>=0.000
     240 -> 243       -0.20500
     241 -> 242        0.67255
 This state for optimization and/or second-order correction.
 Total Energy, E(TD-HF/TD-DFT) =  -2933.31315491
 Copying the excited state density for this state as the 1-particle RhoCI density.

 The electronic state is 1-A.
 Alpha  occ. eigenvalues --  -46.80431 -19.21943 -19.21064 -19.16213 -19.15498
 Alpha  occ. eigenvalues --  -19.14903 -14.37208 -14.35967 -14.35390 -14.35123
 Alpha  occ. eigenvalues --  -10.33965 -10.33363 -10.29069 -10.25925 -10.25851
 Alpha  occ. eigenvalues --  -10.25763 -10.25590 -10.25562 -10.25314 -10.25291
 Alpha  occ. eigenvalues --  -10.24744 -10.24709 -10.24538 -10.24160 -10.23923
 Alpha  occ. eigenvalues --  -10.23849 -10.23714 -10.23608 -10.23572 -10.23370
 Alpha  occ. eigenvalues --  -10.23362 -10.23322 -10.23313 -10.23296 -10.23281
 Alpha  occ. eigenvalues --  -10.23183 -10.22737 -10.22709 -10.22359 -10.22278
 Alpha  occ. eigenvalues --  -10.22201 -10.22194 -10.22190 -10.22124 -10.22117
 Alpha  occ. eigenvalues --  -10.21970 -10.21922 -10.21833 -10.21773 -10.21694
 Alpha  occ. eigenvalues --  -10.21685 -10.21545 -10.21424 -10.21356 -10.21144
 Alpha  occ. eigenvalues --  -10.21086 -10.21061 -10.20881 -10.20697 -10.20602
 Alpha  occ. eigenvalues --  -10.20556 -10.20252 -10.20046 -10.20045 -10.19705
 Alpha  occ. eigenvalues --   -3.09055  -1.83993  -1.83560  -1.83434  -1.15723
 Alpha  occ. eigenvalues --   -1.14501  -1.06108  -1.05322  -1.03877  -1.01333
 Alpha  occ. eigenvalues --   -0.99248  -0.98867  -0.97902  -0.86823  -0.86730
 Alpha  occ. eigenvalues --   -0.86313  -0.85570  -0.84565  -0.84530  -0.83939
 Alpha  occ. eigenvalues --   -0.83430  -0.82941  -0.82394  -0.82045  -0.81500
 Alpha  occ. eigenvalues --   -0.80360  -0.79526  -0.78770  -0.78614  -0.77418
 Alpha  occ. eigenvalues --   -0.77229  -0.76782  -0.76083  -0.75579  -0.74238
 Alpha  occ. eigenvalues --   -0.73595  -0.73159  -0.72133  -0.71251  -0.70806
 Alpha  occ. eigenvalues --   -0.70438  -0.70199  -0.70049  -0.69421  -0.68233
 Alpha  occ. eigenvalues --   -0.66774  -0.66270  -0.65369  -0.64767  -0.63888
 Alpha  occ. eigenvalues --   -0.63215  -0.62295  -0.61580  -0.60874  -0.60158
 Alpha  occ. eigenvalues --   -0.59874  -0.59332  -0.58674  -0.58378  -0.57990
 Alpha  occ. eigenvalues --   -0.57512  -0.57258  -0.56482  -0.56253  -0.55397
 Alpha  occ. eigenvalues --   -0.55045  -0.54472  -0.53973  -0.53776  -0.53614
 Alpha  occ. eigenvalues --   -0.53173  -0.52282  -0.51744  -0.51303  -0.51078
 Alpha  occ. eigenvalues --   -0.50901  -0.50697  -0.50602  -0.50179  -0.50004
 Alpha  occ. eigenvalues --   -0.49645  -0.49112  -0.48616  -0.48493  -0.48390
 Alpha  occ. eigenvalues --   -0.48198  -0.47869  -0.47457  -0.47029  -0.46993
 Alpha  occ. eigenvalues --   -0.46470  -0.46364  -0.46105  -0.46017  -0.45830
 Alpha  occ. eigenvalues --   -0.45713  -0.45552  -0.45374  -0.45190  -0.44700
 Alpha  occ. eigenvalues --   -0.44574  -0.44233  -0.44132  -0.43924  -0.43833
 Alpha  occ. eigenvalues --   -0.43485  -0.43303  -0.43203  -0.43168  -0.42777
 Alpha  occ. eigenvalues --   -0.42615  -0.42321  -0.42282  -0.42163  -0.41953
 Alpha  occ. eigenvalues --   -0.41757  -0.41533  -0.41321  -0.41176  -0.41004
 Alpha  occ. eigenvalues --   -0.40678  -0.40546  -0.40377  -0.40195  -0.39847
 Alpha  occ. eigenvalues --   -0.39738  -0.39576  -0.39363  -0.39158  -0.38920
 Alpha  occ. eigenvalues --   -0.38724  -0.38291  -0.38091  -0.37790  -0.37359
 Alpha  occ. eigenvalues --   -0.37313  -0.37202  -0.37068  -0.36960  -0.36789
 Alpha  occ. eigenvalues --   -0.36403  -0.36330  -0.36216  -0.35989  -0.35777
 Alpha  occ. eigenvalues --   -0.35079  -0.34977  -0.34784  -0.34737  -0.34356
 Alpha  occ. eigenvalues --   -0.34285  -0.33969  -0.33801  -0.33580  -0.33364
 Alpha  occ. eigenvalues --   -0.33211  -0.32937  -0.32623  -0.32576  -0.31941
 Alpha  occ. eigenvalues --   -0.31893  -0.31851  -0.31298  -0.30727  -0.30656
 Alpha  occ. eigenvalues --   -0.30083  -0.29902  -0.28924  -0.27961  -0.27727
 Alpha  occ. eigenvalues --   -0.26775  -0.26133  -0.25708  -0.24152  -0.21345
 Alpha  occ. eigenvalues --   -0.19973
 Alpha virt. eigenvalues --   -0.07732  -0.03360  -0.00285   0.01549   0.03379
 Alpha virt. eigenvalues --    0.04269   0.04490   0.04967   0.05288   0.06049
 Alpha virt. eigenvalues --    0.07175   0.09010   0.09219   0.09556   0.09722

 Mulliken charges:
               1
     1  Mg   0.825802
     2  C    0.074437
     3  C   -0.138197
     4  C   -0.165867
     5  C   -0.157255
     6  N   -0.625932
     7  C    0.315413
     8  C   -0.125989
     9  C   -0.159719
    10  C    0.365110
    11  C   -0.292042
    12  C   -0.165524
    13  C   -0.265705
    14  C    0.599650
    15  O   -0.488356
    16  O   -0.452749
    17  N   -0.702235
    18  C    0.270333
    19  C    0.036172
    20  C   -0.051943
    21  C    0.376497
    22  C   -0.401596
    23  C   -0.024399
    24  C   -0.256127
    25  N   -0.669919
    26  C    0.258425
    27  C    0.012341
    28  C    0.026164
    29  C    0.301374
    30  C   -0.362615
    31  C   -0.229590
    32  C   -0.290434
    33  N   -0.710241
    34  C    0.276414
    35  C    0.030791
    36  C    0.015010
    37  C    0.242200
    38  C   -0.406405
    39  C    0.346452
    40  O   -0.465704
    41  C   -0.342581
    42  C    0.604270
    43  O   -0.462689
    44  O   -0.394701
    45  C   -0.093630
    46  C    0.037877
    47  C   -0.126248
    48  C    0.089341
    49  C   -0.376386
    50  C   -0.198416
    51  C   -0.170459
    52  C   -0.147189
    53  C   -0.079372
    54  C   -0.311759
    55  C   -0.163152
    56  C   -0.170591
    57  C   -0.162221
    58  C   -0.061687
    59  C   -0.309416
    60  C   -0.146070
    61  C   -0.166308
    62  C   -0.151797
    63  C   -0.046839
    64  C   -0.282353
    65  C   -0.300991
    66  H    0.021348
    67  H    0.071924
    68  H    0.089431
    69  H    0.114003
    70  H    0.105758
    71  H    0.087276
    72  H    0.114373
    73  H    0.122031
    74  H    0.088637
    75  H    0.121868
    76  H    0.124526
    77  H    0.136376
    78  H    0.104556
    79  H    0.135592
    80  H    0.113845
    81  H    0.074533
    82  H    0.106672
    83  H    0.096517
    84  H    0.145270
    85  H    0.107048
    86  H    0.127697
    87  H    0.100580
    88  H    0.090861
    89  H    0.123684
    90  H    0.086298
    91  H    0.094708
    92  H    0.109978
    93  H    0.143641
    94  H    0.138616
    95  H    0.138053
    96  H    0.121882
    97  H    0.138649
    98  H    0.108450
    99  H    0.120696
   100  H    0.114705
   101  H    0.087708
   102  H    0.103377
   103  H    0.125082
   104  H    0.120190
   105  H    0.112172
   106  H    0.100056
   107  H    0.110447
   108  H    0.066029
   109  H    0.105231
   110  H    0.071800
   111  H    0.070705
   112  H    0.113565
   113  H    0.109515
   114  H    0.107595
   115  H    0.073496
   116  H    0.039126
   117  H    0.102455
   118  H    0.104832
   119  H    0.085102
   120  H    0.095010
   121  H    0.080792
   122  H    0.072934
   123  H    0.098239
   124  H    0.109823
   125  H    0.066083
   126  H    0.040832
   127  H    0.092857
   128  H    0.072128
   129  H    0.056294
   130  H    0.107679
   131  H    0.085734
   132  H    0.102564
   133  H    0.092830
   134  H    0.072835
   135  H    0.074951
   136  H    0.079317
   137  H    0.119861
 Sum of Mulliken charges =  -0.00000

 Dipole moment (field-independent basis, Debye):
    X=              1.4790    Y=              4.0678    Z=             -0.6404  Tot=              4.3755
 Quadrupole moment (field-independent basis, Debye-Ang):
   XX=           -346.5751   YY=           -394.5185   ZZ=           -399.8048
   XY=            -20.3412   XZ=              9.4792   YZ=             -2.8804

 Normal termination of Gaussian 16 at Tue Sep  3 14:07:54 2019.
