 Gaussian 16, Revision A.03,
 Gaussian 16:  ES64L-G16RevA.03 25-Dec-2016

 ----------------------------------------------------------------------
 # td=(NStates=1) iop(3/107=0140000000,3/108=0140000000) CAM-B3LYP/6-31
 G(d,p)
 ----------------------------------------------------------------------

 --
 TD
 --
 Symbolic Z-matrix:
 Charge =  0 Multiplicity = 1

                         Standard orientation:
 ---------------------------------------------------------------------
 Center     Atomic      Atomic             Coordinates (Angstroms)
 Number     Number       Type             X           Y           Z
 ---------------------------------------------------------------------
      1         12           0       -7.071426    0.668148    0.018108
      2          6           0       -4.878526   -1.989173    0.457871
      3          6           0       -4.676295    2.723450    1.170422
      4          6           0       -9.359985    3.174786   -0.460950
      5          6           0       -9.572038   -1.695658   -0.865607
      6          7           0       -5.126722    0.426356    0.686573
      7          6           0       -4.346673   -0.739078    0.750370
      8          6           0       -2.910170   -0.490316    1.162947
      9          6           0       -3.110844    0.941387    1.726175
     10          6           0       -4.356175    1.485442    1.113183
     11          6           0       -3.169045    0.925332    3.358415
     12          6           0       -1.918820   -0.589428    0.061778
     13          6           0       -0.450885   -0.490445    0.408217
     14          6           0        0.535460   -0.681907   -0.696604
     15          8           0        0.174820   -0.947686   -1.792242
     16          8           0        1.818643   -0.483817   -0.300701
     17          7           0       -6.993299    2.629727    0.156606
     18          6           0       -5.869371    3.366482    0.686468
     19          6           0       -6.252509    4.783841    0.763857
     20          6           0       -7.462621    4.950483    0.235398
     21          6           0       -7.922769    3.549198   -0.089936
     22          6           0       -5.319014    5.959670    1.178388
     23          6           0       -8.299122    6.128833    0.034298
     24          6           0       -8.183593    7.305612    0.588699
     25          7           0       -9.084666    0.692759   -0.608200
     26          6           0       -9.779117    1.896404   -0.653461
     27          6           0      -11.185365    1.573024   -0.876690
     28          6           0      -11.267848    0.164376   -0.984357
     29          6           0       -9.896724   -0.300599   -0.784080
     30          6           0      -12.438380    2.493786   -0.935138
     31          6           0      -12.498696   -0.631170   -1.364241
     32          6           0      -12.470241   -1.099716   -2.897641
     33          7           0       -7.140858   -1.305539   -0.346155
     34          6           0       -8.235300   -2.064374   -0.643530
     35          6           0       -7.824806   -3.524172   -0.670818
     36          6           0       -6.541887   -3.540160   -0.250060
     37          6           0       -6.199556   -2.168448    0.016886
     38          6           0       -8.722720   -4.709951   -1.015164
     39          6           0       -5.397849   -4.406287    0.049730
     40          8           0       -5.193851   -5.580191   -0.008179
     41          6           0       -4.209918   -3.336783    0.537341
     42          6           0       -3.614446   -3.789620    1.987848
     43          8           0       -3.729945   -3.056819    2.910994
     44          8           0       -2.858219   -4.842176    1.721224
     45          6           0       -2.403020   -5.440265    2.926292
     46          6           0        2.824041   -0.637456   -1.376788
     47          6           0        4.082241   -0.381679   -0.585204
     48          6           0        5.140750    0.428813   -0.902003
     49          6           0        5.202159    1.061785   -2.242747
     50          6           0        6.380752    0.424431   -0.179431
     51          6           0        7.521129   -0.161519   -0.897805
     52          6           0        8.833686   -0.176182   -0.037992
     53          6           0       10.111731   -0.637838   -0.749880
     54          6           0       10.170654   -2.075628   -1.176900
     55          6           0       11.330875   -0.341221    0.031075
     56          6           0       12.715998   -0.649545   -0.596521
     57          6           0       14.006737   -0.137035    0.241095
     58          6           0       15.387778   -0.145806   -0.483662
     59          6           0       15.729280   -1.498086   -0.928117
     60          6           0       16.449242    0.384240    0.439681
     61          6           0       17.845474    0.586240   -0.247918
     62          6           0       18.741560    1.320172    0.818915
     63          6           0       20.158860    1.378151    0.345713
     64          6           0       20.241617    1.985716   -1.046049
     65          6           0       21.143317    2.030098    1.245111
     66          1           0       -3.997812    3.361913    1.639767
     67          1           0      -10.035820    3.939286   -0.336973
     68          1           0      -10.349490   -2.526586   -1.072226
     69          1           0       -2.874808   -1.240432    1.895210
     70          1           0       -2.359141    1.649674    1.369406
     71          1           0       -2.232884    0.551437    3.860210
     72          1           0       -3.291410    1.976499    3.674664
     73          1           0       -4.163842    0.409302    3.621604
     74          1           0       -2.167129   -1.447471   -0.502579
     75          1           0       -2.198943    0.164239   -0.528017
     76          1           0       -0.280469    0.534771    1.001630
     77          1           0       -0.268343   -1.108626    1.230851
     78          1           0       -5.322562    6.726066    0.424270
     79          1           0       -5.509039    6.199478    2.224236
     80          1           0       -4.198397    5.404756    1.444998
     81          1           0       -9.200303    5.945263   -0.667392
     82          1           0       -8.930237    8.094739    0.387662
     83          1           0       -7.472116    7.540849    1.388029
     84          1           0      -12.264971    3.045554   -1.905403
     85          1           0      -13.376167    1.929805   -1.074374
     86          1           0      -12.515819    3.074305   -0.074386
     87          1           0      -12.524115   -1.646864   -0.686448
     88          1           0      -13.483669   -0.130476   -1.365065
     89          1           0      -13.142240   -1.914876   -3.271902
     90          1           0      -12.452198   -0.331548   -3.533716
     91          1           0      -11.606154   -1.516725   -3.198490
     92          1           0       -9.250001   -4.665527   -2.103307
     93          1           0       -7.890291   -5.547928   -0.951367
     94          1           0       -9.412447   -4.758041   -0.184485
     95          1           0       -3.487228   -3.474033   -0.106747
     96          1           0       -1.788438   -4.754015    3.483366
     97          1           0       -3.186903   -6.045761    3.452108
     98          1           0       -1.773537   -6.129847    2.669092
     99          1           0        2.768402   -1.516646   -1.825929
    100          1           0        2.850721    0.223935   -2.273897
    101          1           0        4.021100   -0.987008    0.317680
    102          1           0        4.094891    1.447513   -2.469887
    103          1           0        5.760356    2.000742   -2.236378
    104          1           0        5.515739    0.227188   -3.100939
    105          1           0        6.887297    1.392847    0.010628
    106          1           0        6.141575    0.017744    0.776225
    107          1           0        7.376652   -1.357549   -0.957284
    108          1           0        7.730328    0.449543   -1.784807
    109          1           0        8.874306    0.844949    0.312628
    110          1           0        8.663625   -0.793304    0.899693
    111          1           0       10.228353   -0.004725   -1.757480
    112          1           0        9.376383   -2.616207   -1.810424
    113          1           0       11.088998   -2.140605   -1.842737
    114          1           0       10.173458   -2.863034   -0.250837
    115          1           0       11.376633    0.757180    0.479560
    116          1           0       11.337959   -1.083488    0.947885
    117          1           0       12.813266   -1.775468   -0.811962
    118          1           0       12.669334   -0.222384   -1.658580
    119          1           0       13.830161    0.848803    0.573550
    120          1           0       14.132851   -0.620728    1.190532
    121          1           0       15.314386    0.663993   -1.341280
    122          1           0       15.765007   -2.177880   -0.005750
    123          1           0       15.033476   -1.874281   -1.718423
    124          1           0       16.746596   -1.605846   -1.421898
    125          1           0       16.101471    1.368635    0.890813
    126          1           0       16.604584   -0.319759    1.273891
    127          1           0       18.458455   -0.335911   -0.524313
    128          1           0       17.703701    1.191943   -1.071751
    129          1           0       18.224172    2.255910    0.959279
    130          1           0       18.645510    0.686264    1.595065
    131          1           0       20.534422    0.339516    0.447019
    132          1           0       19.898861    3.027327   -1.046705
    133          1           0       21.315093    2.083542   -1.411930
    134          1           0       19.607147    1.522594   -1.870865
    135          1           0       21.018188    1.539728    2.138324
    136          1           0       22.259755    2.194151    1.004688
    137          1           0       20.793965    3.112984    1.303258
 ---------------------------------------------------------------------

 SCF Done:  E(RCAM-B3LYP) =  -2933.57109327     A.U. after   16 cycles

 Excitation energies and oscillator strengths:

 Excited State   1:      Singlet-A      1.9305 eV  642.23 nm  f=0.2814  <S**2>=0.000
     240 -> 243       -0.18692
     241 -> 242        0.68035
 This state for optimization and/or second-order correction.
 Total Energy, E(TD-HF/TD-DFT) =  -2933.50014787
 Copying the excited state density for this state as the 1-particle RhoCI density.

 The electronic state is 1-A.
 Alpha  occ. eigenvalues --  -46.79012 -19.23999 -19.22109 -19.18032 -19.17207
 Alpha  occ. eigenvalues --  -19.16513 -14.36634 -14.35579 -14.35461 -14.34736
 Alpha  occ. eigenvalues --  -10.35256 -10.34042 -10.31040 -10.27734 -10.26311
 Alpha  occ. eigenvalues --  -10.25905 -10.25311 -10.25109 -10.25049 -10.24562
 Alpha  occ. eigenvalues --  -10.24557 -10.24138 -10.24103 -10.23786 -10.23736
 Alpha  occ. eigenvalues --  -10.23567 -10.23338 -10.23287 -10.23018 -10.22985
 Alpha  occ. eigenvalues --  -10.22893 -10.22641 -10.22630 -10.22529 -10.22401
 Alpha  occ. eigenvalues --  -10.22376 -10.22266 -10.22224 -10.22176 -10.22142
 Alpha  occ. eigenvalues --  -10.22134 -10.21946 -10.21748 -10.21708 -10.21703
 Alpha  occ. eigenvalues --  -10.21569 -10.21568 -10.21360 -10.21328 -10.21326
 Alpha  occ. eigenvalues --  -10.21244 -10.21224 -10.21013 -10.20956 -10.20803
 Alpha  occ. eigenvalues --  -10.20673 -10.20646 -10.20576 -10.20421 -10.20361
 Alpha  occ. eigenvalues --  -10.20093 -10.20035 -10.19687 -10.19250 -10.18781
 Alpha  occ. eigenvalues --   -3.07826  -1.82756  -1.82285  -1.82262  -1.15504
 Alpha  occ. eigenvalues --   -1.13008  -1.07977  -1.07708  -1.05186  -0.99973
 Alpha  occ. eigenvalues --   -0.98503  -0.97627  -0.96505  -0.87355  -0.86809
 Alpha  occ. eigenvalues --   -0.85933  -0.85261  -0.85054  -0.83973  -0.83647
 Alpha  occ. eigenvalues --   -0.83562  -0.82411  -0.82052  -0.81856  -0.81222
 Alpha  occ. eigenvalues --   -0.79554  -0.79171  -0.78430  -0.78090  -0.77303
 Alpha  occ. eigenvalues --   -0.76852  -0.76552  -0.75432  -0.74895  -0.73119
 Alpha  occ. eigenvalues --   -0.72473  -0.72010  -0.71477  -0.71318  -0.70826
 Alpha  occ. eigenvalues --   -0.70219  -0.70108  -0.69551  -0.68692  -0.67637
 Alpha  occ. eigenvalues --   -0.66924  -0.66440  -0.65518  -0.64645  -0.63924
 Alpha  occ. eigenvalues --   -0.62359  -0.62039  -0.61128  -0.60873  -0.60084
 Alpha  occ. eigenvalues --   -0.59847  -0.59740  -0.58759  -0.58738  -0.57651
 Alpha  occ. eigenvalues --   -0.57195  -0.56193  -0.56048  -0.54789  -0.54485
 Alpha  occ. eigenvalues --   -0.54226  -0.54065  -0.53439  -0.53346  -0.52976
 Alpha  occ. eigenvalues --   -0.52516  -0.51786  -0.51691  -0.51654  -0.51453
 Alpha  occ. eigenvalues --   -0.50508  -0.50383  -0.50008  -0.49970  -0.49548
 Alpha  occ. eigenvalues --   -0.49224  -0.48874  -0.48502  -0.48031  -0.47845
 Alpha  occ. eigenvalues --   -0.47612  -0.47371  -0.47274  -0.47113  -0.46766
 Alpha  occ. eigenvalues --   -0.46743  -0.46559  -0.46271  -0.46103  -0.45953
 Alpha  occ. eigenvalues --   -0.45907  -0.45538  -0.45427  -0.45061  -0.45026
 Alpha  occ. eigenvalues --   -0.44916  -0.44260  -0.44245  -0.43947  -0.43810
 Alpha  occ. eigenvalues --   -0.43648  -0.43488  -0.43101  -0.42763  -0.42501
 Alpha  occ. eigenvalues --   -0.42330  -0.42084  -0.42043  -0.41827  -0.41678
 Alpha  occ. eigenvalues --   -0.41635  -0.41359  -0.41146  -0.40890  -0.40707
 Alpha  occ. eigenvalues --   -0.40530  -0.40246  -0.39879  -0.39556  -0.39402
 Alpha  occ. eigenvalues --   -0.39356  -0.39278  -0.39209  -0.39110  -0.38997
 Alpha  occ. eigenvalues --   -0.38937  -0.38344  -0.38078  -0.37918  -0.37561
 Alpha  occ. eigenvalues --   -0.37344  -0.37317  -0.37229  -0.37076  -0.36882
 Alpha  occ. eigenvalues --   -0.36685  -0.36368  -0.36326  -0.36150  -0.35941
 Alpha  occ. eigenvalues --   -0.35764  -0.35641  -0.35432  -0.35220  -0.34914
 Alpha  occ. eigenvalues --   -0.34723  -0.34537  -0.34191  -0.33750  -0.33662
 Alpha  occ. eigenvalues --   -0.33472  -0.33366  -0.33014  -0.32928  -0.32747
 Alpha  occ. eigenvalues --   -0.32445  -0.32201  -0.31885  -0.31426  -0.30969
 Alpha  occ. eigenvalues --   -0.30445  -0.29951  -0.29361  -0.28344  -0.28000
 Alpha  occ. eigenvalues --   -0.26694  -0.26419  -0.25440  -0.24838  -0.21587
 Alpha  occ. eigenvalues --   -0.18920
 Alpha virt. eigenvalues --   -0.06725  -0.03259   0.00392   0.02984   0.03388
 Alpha virt. eigenvalues --    0.03967   0.04799   0.04967   0.05712   0.06419
 Alpha virt. eigenvalues --    0.06700   0.09089   0.09727   0.09945   0.10436

 Mulliken charges:
               1
     1  Mg   0.812604
     2  C    0.056696
     3  C   -0.177584
     4  C   -0.157450
     5  C   -0.169168
     6  N   -0.657496
     7  C    0.267519
     8  C   -0.139461
     9  C   -0.168231
    10  C    0.382296
    11  C   -0.308196
    12  C   -0.139332
    13  C   -0.283624
    14  C    0.626560
    15  O   -0.449743
    16  O   -0.482224
    17  N   -0.686311
    18  C    0.249487
    19  C   -0.007705
    20  C    0.051420
    21  C    0.253639
    22  C   -0.363602
    23  C   -0.061586
    24  C   -0.260910
    25  N   -0.695247
    26  C    0.315184
    27  C   -0.013712
    28  C    0.024352
    29  C    0.323087
    30  C   -0.366437
    31  C   -0.243333
    32  C   -0.331724
    33  N   -0.706630
    34  C    0.294363
    35  C   -0.038727
    36  C    0.080200
    37  C    0.284384
    38  C   -0.375775
    39  C    0.344012
    40  O   -0.436444
    41  C   -0.329016
    42  C    0.604180
    43  O   -0.433417
    44  O   -0.408828
    45  C   -0.101208
    46  C    0.022639
    47  C   -0.121581
    48  C    0.138079
    49  C   -0.368244
    50  C   -0.215007
    51  C   -0.166982
    52  C   -0.175015
    53  C   -0.035327
    54  C   -0.302036
    55  C   -0.146916
    56  C   -0.191858
    57  C   -0.175181
    58  C   -0.047327
    59  C   -0.294367
    60  C   -0.177340
    61  C   -0.191348
    62  C   -0.155451
    63  C   -0.055328
    64  C   -0.314037
    65  C   -0.295487
    66  H    0.064650
    67  H    0.087995
    68  H    0.104662
    69  H    0.120898
    70  H    0.087770
    71  H    0.110942
    72  H    0.102883
    73  H    0.122960
    74  H    0.115001
    75  H    0.119348
    76  H    0.113215
    77  H    0.136801
    78  H    0.140272
    79  H    0.133818
    80  H    0.066058
    81  H    0.080778
    82  H    0.095835
    83  H    0.100300
    84  H    0.120058
    85  H    0.112955
    86  H    0.131047
    87  H    0.077880
    88  H    0.111497
    89  H    0.092216
    90  H    0.118347
    91  H    0.114883
    92  H    0.116390
    93  H    0.135674
    94  H    0.141608
    95  H    0.151254
    96  H    0.131713
    97  H    0.128705
    98  H    0.131819
    99  H    0.143823
   100  H    0.087606
   101  H    0.089111
   102  H    0.098108
   103  H    0.113475
   104  H    0.114718
   105  H    0.086487
   106  H    0.097746
   107  H    0.078904
   108  H    0.104017
   109  H    0.084327
   110  H    0.084965
   111  H    0.062908
   112  H    0.097479
   113  H    0.106484
   114  H    0.077611
   115  H    0.075044
   116  H    0.074588
   117  H    0.097360
   118  H    0.077105
   119  H    0.090409
   120  H    0.091213
   121  H    0.064032
   122  H    0.090223
   123  H    0.099368
   124  H    0.094959
   125  H    0.079918
   126  H    0.084106
   127  H    0.090621
   128  H    0.105593
   129  H    0.089129
   130  H    0.096519
   131  H    0.080188
   132  H    0.100207
   133  H    0.088832
   134  H    0.096463
   135  H    0.102040
   136  H    0.094973
   137  H    0.080359
 Sum of Mulliken charges =  -0.00000

 Dipole moment (field-independent basis, Debye):
    X=              2.1158    Y=              0.9738    Z=              1.7624  Tot=              2.9208
 Quadrupole moment (field-independent basis, Debye-Ang):
   XX=           -356.8138   YY=           -388.1588   ZZ=           -395.7807
   XY=             -8.4489   XZ=              3.1303   YZ=             -6.6184

 Normal termination of Gaussian 16 at Sat Sep 14 13:21:29 2019.
