 Gaussian 09, Revision D.01,
 Gaussian 09:  ES64L-G09RevD.01 24-Apr-2013

 -------------------------------------
 # td=(NStates=1) CAM-B3LYP/6-31G(d,p)
 -------------------------------------

 --
 TD
 --
 Symbolic Z-matrix:
 Charge =  0 Multiplicity = 1

                         Standard orientation:
 ---------------------------------------------------------------------
 Center     Atomic      Atomic             Coordinates (Angstroms)
 Number     Number       Type             X           Y           Z
 ---------------------------------------------------------------------
      1         12           0       -7.151395    0.613506    0.103697
      2          6           0       -4.816355   -1.915286    0.427005
      3          6           0       -4.788438    2.860723    1.076266
      4          6           0       -9.404705    3.143765   -0.526126
      5          6           0       -9.459569   -1.695403   -0.862693
      6          7           0       -5.077213    0.493372    0.781970
      7          6           0       -4.342496   -0.627849    0.807643
      8          6           0       -2.996309   -0.391341    1.347323
      9          6           0       -3.002871    1.157037    1.727763
     10          6           0       -4.423852    1.497406    1.200335
     11          6           0       -2.829780    1.309454    3.229318
     12          6           0       -1.968031   -0.767227    0.209813
     13          6           0       -0.481815   -0.532652    0.744897
     14          6           0        0.512730   -0.786860   -0.471050
     15          8           0        0.238884   -1.167429   -1.484632
     16          8           0        1.802606   -0.492302   -0.030318
     17          7           0       -7.016197    2.526758    0.312818
     18          6           0       -5.985606    3.440472    0.704152
     19          6           0       -6.377000    4.713393    0.686648
     20          6           0       -7.709749    4.795423    0.324198
     21          6           0       -8.148825    3.435056    0.118679
     22          6           0       -5.416869    5.994154    1.027321
     23          6           0       -8.621079    5.981761    0.178958
     24          6           0       -8.546449    7.110325    0.840678
     25          7           0       -9.165573    0.662230   -0.532165
     26          6           0       -9.832051    1.739775   -0.724957
     27          6           0      -11.194257    1.495632   -1.320773
     28          6           0      -11.263596    0.068794   -1.356097
     29          6           0       -9.936269   -0.408402   -0.923670
     30          6           0      -12.294098    2.431129   -1.577042
     31          6           0      -12.385821   -0.877601   -1.768373
     32          6           0      -12.276469   -1.206793   -3.268517
     33          7           0       -7.275986   -1.387134   -0.227848
     34          6           0       -8.298078   -2.274898   -0.563558
     35          6           0       -7.843773   -3.648055   -0.458061
     36          6           0       -6.573525   -3.568886   -0.119947
     37          6           0       -6.281365   -2.166630    0.133867
     38          6           0       -8.647741   -4.894446   -0.787589
     39          6           0       -5.361131   -4.393644    0.155013
     40          8           0       -5.077101   -5.569004    0.257011
     41          6           0       -4.175328   -3.249996    0.507300
     42          6           0       -3.549984   -3.574666    1.897504
     43          8           0       -3.812674   -3.083865    2.891406
     44          8           0       -2.616938   -4.561907    1.788865
     45          6           0       -2.013647   -5.122092    2.992399
     46          6           0        2.772439   -0.711255   -1.085936
     47          6           0        4.143635   -0.429958   -0.437148
     48          6           0        5.111619    0.380992   -0.822698
     49          6           0        5.003805    1.186484   -2.061855
     50          6           0        6.388643    0.435916   -0.091457
     51          6           0        7.636025    0.037543   -0.964146
     52          6           0        8.900874    0.094867   -0.097078
     53          6           0       10.239720   -0.488888   -0.892225
     54          6           0       10.128807   -1.857109   -1.592576
     55          6           0       11.429870   -0.244224    0.021857
     56          6           0       12.751986   -0.443975   -0.587610
     57          6           0       13.913939   -0.100387    0.174778
     58          6           0       15.236889   -0.203079   -0.624784
     59          6           0       15.650378   -1.676388   -0.898351
     60          6           0       16.475575    0.391314    0.355805
     61          6           0       17.744219    0.620755   -0.331497
     62          6           0       18.772287    1.212589    0.693975
     63          6           0       20.209415    1.333929    0.118206
     64          6           0       20.397326    2.043806   -1.180926
     65          6           0       21.210442    1.817948    1.247780
     66          1           0       -4.004965    3.629838    1.168167
     67          1           0      -10.093320    4.099839   -0.600503
     68          1           0      -10.165887   -2.544698   -1.107598
     69          1           0       -2.752421   -1.062608    2.234165
     70          1           0       -2.342630    1.743840    0.975424
     71          1           0       -1.794422    1.109400    3.491994
     72          1           0       -3.318216    2.417704    3.503983
     73          1           0       -3.377241    0.671158    3.695155
     74          1           0       -2.193176   -1.713617   -0.211488
     75          1           0       -2.146796   -0.019857   -0.640195
     76          1           0       -0.271999    0.448099    1.016804
     77          1           0       -0.261759   -1.252567    1.582820
     78          1           0       -5.629893    6.900833    0.301310
     79          1           0       -5.497685    6.472676    2.108802
     80          1           0       -4.230629    5.667283    1.085387
     81          1           0       -9.432321    6.083355   -0.396344
     82          1           0       -9.266369    7.935391    0.884345
     83          1           0       -7.835207    7.324495    1.615402
     84          1           0      -12.070153    3.104725   -2.589230
     85          1           0      -13.289303    1.826967   -1.923982
     86          1           0      -12.658373    3.224688   -0.783986
     87          1           0      -12.310316   -1.775435   -1.074702
     88          1           0      -13.346629   -0.359880   -1.653902
     89          1           0      -13.181021   -1.789089   -3.520695
     90          1           0      -12.173530   -0.345239   -3.905911
     91          1           0      -11.474298   -2.018396   -3.453893
     92          1           0       -8.903052   -4.920926   -1.974786
     93          1           0       -8.093507   -5.692866   -0.400698
     94          1           0       -9.706340   -4.991577   -0.261151
     95          1           0       -3.402261   -3.350237   -0.243105
     96          1           0       -1.862257   -4.143768    3.666051
     97          1           0       -2.777632   -5.781121    3.397747
     98          1           0       -1.127286   -5.630471    2.713897
     99          1           0        2.582436   -1.655915   -1.434096
    100          1           0        2.772885   -0.036746   -1.900211
    101          1           0        4.291762   -1.133631    0.233148
    102          1           0        4.047434    1.102390   -2.520682
    103          1           0        5.280052    2.179172   -1.866873
    104          1           0        5.519524    0.558707   -2.923182
    105          1           0        6.514238    1.476487    0.293934
    106          1           0        6.406638   -0.226109    0.784684
    107          1           0        7.611324   -0.989465   -1.345220
    108          1           0        7.770427    0.533303   -1.926497
    109          1           0        9.019447    1.238131    0.276230
    110          1           0        8.745623   -0.666527    0.823290
    111          1           0       10.348278    0.175475   -1.688490
    112          1           0        9.274000   -2.001137   -2.384982
    113          1           0       11.079389   -2.362994   -1.742459
    114          1           0        9.737993   -2.666918   -0.787623
    115          1           0       11.320889    0.937385    0.300583
    116          1           0       11.436525   -1.133206    0.928953
    117          1           0       13.017678   -1.453164   -0.745917
    118          1           0       12.665870    0.154933   -1.577778
    119          1           0       13.602780    0.937616    0.512110
    120          1           0       14.299964   -0.706023    0.932331
    121          1           0       15.470795    0.282664   -1.655442
    122          1           0       15.720094   -2.326060    0.019191
    123          1           0       14.887809   -2.089924   -1.631770
    124          1           0       16.828903   -1.787315   -1.344799
    125          1           0       16.209056    1.191558    0.797040
    126          1           0       16.658032   -0.339644    1.441279
    127          1           0       18.111663   -0.453997   -0.743079
    128          1           0       17.621125    1.156228   -1.269117
    129          1           0       18.263061    2.029011    0.899633
    130          1           0       18.881145    0.736547    1.723664
    131          1           0       20.428792    0.340357   -0.044406
    132          1           0       19.976033    3.000695   -1.016756
    133          1           0       21.496779    2.156329   -1.539679
    134          1           0       19.783738    1.719010   -1.914075
    135          1           0       21.131805    1.103331    2.156458
    136          1           0       22.244085    1.715883    1.148716
    137          1           0       20.913969    2.768318    1.749720
 ---------------------------------------------------------------------

 SCF Done:  E(RCAM-B3LYP) =  -2932.59226704     A.U. after   17 cycles

 Excitation energies and oscillator strengths:

 Excited State   1:      Singlet-A      2.0933 eV  592.28 nm  f=0.1663  <S**2>=0.000
     240 -> 243       -0.27509
     241 -> 242        0.64071
 This state for optimization and/or second-order correction.
 Total Energy, E(TD-HF/TD-KS) =  -2932.51533859
 Copying the excited state density for this state as the 1-particle RhoCI density.

 The electronic state is 1-A.
 Alpha  occ. eigenvalues --  -46.84463 -19.24526 -19.24114 -19.22148 -19.21757
 Alpha  occ. eigenvalues --  -19.20938 -14.41455 -14.39835 -14.39435 -14.38739
 Alpha  occ. eigenvalues --  -10.38292 -10.38231 -10.36646 -10.31440 -10.30709
 Alpha  occ. eigenvalues --  -10.30305 -10.29786 -10.29779 -10.29689 -10.29663
 Alpha  occ. eigenvalues --  -10.29523 -10.29031 -10.28757 -10.28701 -10.28340
 Alpha  occ. eigenvalues --  -10.28304 -10.28275 -10.28197 -10.28073 -10.27964
 Alpha  occ. eigenvalues --  -10.27895 -10.27873 -10.27739 -10.27523 -10.27383
 Alpha  occ. eigenvalues --  -10.27311 -10.27260 -10.27003 -10.26970 -10.26927
 Alpha  occ. eigenvalues --  -10.26893 -10.26883 -10.26794 -10.26734 -10.26664
 Alpha  occ. eigenvalues --  -10.26498 -10.26357 -10.26345 -10.26174 -10.25960
 Alpha  occ. eigenvalues --  -10.25857 -10.25740 -10.25724 -10.25599 -10.25540
 Alpha  occ. eigenvalues --  -10.25517 -10.25309 -10.25280 -10.25064 -10.24809
 Alpha  occ. eigenvalues --  -10.24506 -10.24473 -10.24244 -10.23591 -10.23290
 Alpha  occ. eigenvalues --   -3.13552  -1.88241  -1.87840  -1.87702  -1.20548
 Alpha  occ. eigenvalues --   -1.19249  -1.11909  -1.10750  -1.09845  -1.06773
 Alpha  occ. eigenvalues --   -1.05112  -1.03939  -1.01091  -0.91647  -0.91359
 Alpha  occ. eigenvalues --   -0.91249  -0.89630  -0.89231  -0.89001  -0.88621
 Alpha  occ. eigenvalues --   -0.88022  -0.87774  -0.87098  -0.86815  -0.85514
 Alpha  occ. eigenvalues --   -0.84899  -0.84076  -0.83377  -0.83011  -0.82211
 Alpha  occ. eigenvalues --   -0.81185  -0.80557  -0.80072  -0.79873  -0.77827
 Alpha  occ. eigenvalues --   -0.77252  -0.76456  -0.76391  -0.76023  -0.74962
 Alpha  occ. eigenvalues --   -0.74912  -0.74272  -0.74175  -0.72668  -0.72086
 Alpha  occ. eigenvalues --   -0.71217  -0.70279  -0.69365  -0.69209  -0.68654
 Alpha  occ. eigenvalues --   -0.66574  -0.66371  -0.65457  -0.64560  -0.64486
 Alpha  occ. eigenvalues --   -0.64095  -0.63550  -0.62724  -0.62109  -0.62071
 Alpha  occ. eigenvalues --   -0.61032  -0.60820  -0.60062  -0.59368  -0.59157
 Alpha  occ. eigenvalues --   -0.58281  -0.58093  -0.57570  -0.57400  -0.57154
 Alpha  occ. eigenvalues --   -0.56670  -0.55841  -0.55770  -0.55168  -0.54807
 Alpha  occ. eigenvalues --   -0.54073  -0.53905  -0.53776  -0.53399  -0.53249
 Alpha  occ. eigenvalues --   -0.52950  -0.52772  -0.52056  -0.51813  -0.51650
 Alpha  occ. eigenvalues --   -0.51283  -0.51086  -0.51017  -0.50946  -0.50502
 Alpha  occ. eigenvalues --   -0.50419  -0.50170  -0.50023  -0.49902  -0.49617
 Alpha  occ. eigenvalues --   -0.49325  -0.49108  -0.48793  -0.48719  -0.48147
 Alpha  occ. eigenvalues --   -0.48021  -0.47809  -0.47777  -0.47566  -0.47382
 Alpha  occ. eigenvalues --   -0.47229  -0.46603  -0.46587  -0.46209  -0.45930
 Alpha  occ. eigenvalues --   -0.45607  -0.45285  -0.45078  -0.44972  -0.44816
 Alpha  occ. eigenvalues --   -0.44636  -0.44459  -0.44288  -0.44112  -0.44043
 Alpha  occ. eigenvalues --   -0.43999  -0.43830  -0.43734  -0.43612  -0.43308
 Alpha  occ. eigenvalues --   -0.43014  -0.42628  -0.42493  -0.42367  -0.42188
 Alpha  occ. eigenvalues --   -0.42180  -0.42012  -0.41456  -0.41149  -0.40878
 Alpha  occ. eigenvalues --   -0.40785  -0.40645  -0.40405  -0.40369  -0.40039
 Alpha  occ. eigenvalues --   -0.39811  -0.39720  -0.39595  -0.39100  -0.38997
 Alpha  occ. eigenvalues --   -0.38894  -0.38553  -0.38174  -0.38143  -0.37975
 Alpha  occ. eigenvalues --   -0.37870  -0.37207  -0.37116  -0.36979  -0.36784
 Alpha  occ. eigenvalues --   -0.36394  -0.36173  -0.35938  -0.35543  -0.35254
 Alpha  occ. eigenvalues --   -0.35156  -0.34982  -0.34520  -0.33965  -0.33934
 Alpha  occ. eigenvalues --   -0.33380  -0.32565  -0.32339  -0.31491  -0.30182
 Alpha  occ. eigenvalues --   -0.29818  -0.29417  -0.28089  -0.27530  -0.22526
 Alpha  occ. eigenvalues --   -0.21208
 Alpha virt. eigenvalues --   -0.06027  -0.03114   0.01529   0.04803   0.05934
 Alpha virt. eigenvalues --    0.06379   0.06952   0.07038   0.08148   0.08643
 Alpha virt. eigenvalues --    0.09301   0.10658   0.10813   0.11009   0.11416

 Mulliken charges:
               1
     1  Mg   0.828405
     2  C    0.029322
     3  C   -0.229852
     4  C   -0.165412
     5  C   -0.207095
     6  N   -0.589860
     7  C    0.323425
     8  C   -0.192258
     9  C   -0.140028
    10  C    0.324836
    11  C   -0.288859
    12  C   -0.179216
    13  C   -0.270449
    14  C    0.582467
    15  O   -0.386398
    16  O   -0.506957
    17  N   -0.738267
    18  C    0.334996
    19  C    0.045753
    20  C    0.007248
    21  C    0.259401
    22  C   -0.354168
    23  C   -0.059093
    24  C   -0.255581
    25  N   -0.659088
    26  C    0.308015
    27  C    0.023028
    28  C    0.036156
    29  C    0.283829
    30  C   -0.382691
    31  C   -0.233532
    32  C   -0.303240
    33  N   -0.672393
    34  C    0.247637
    35  C    0.045541
    36  C    0.001839
    37  C    0.279878
    38  C   -0.364019
    39  C    0.380365
    40  O   -0.441313
    41  C   -0.334628
    42  C    0.601432
    43  O   -0.420572
    44  O   -0.485343
    45  C   -0.080191
    46  C    0.018322
    47  C   -0.139112
    48  C    0.138538
    49  C   -0.362278
    50  C   -0.224926
    51  C   -0.190133
    52  C   -0.163929
    53  C   -0.045944
    54  C   -0.330557
    55  C   -0.149090
    56  C   -0.157540
    57  C   -0.144827
    58  C   -0.092579
    59  C   -0.299031
    60  C   -0.141520
    61  C   -0.186872
    62  C   -0.179423
    63  C   -0.047536
    64  C   -0.309167
    65  C   -0.330827
    66  H    0.068393
    67  H    0.104051
    68  H    0.074602
    69  H    0.125525
    70  H    0.106976
    71  H    0.115590
    72  H    0.084575
    73  H    0.140714
    74  H    0.125078
    75  H    0.101184
    76  H    0.140392
    77  H    0.129422
    78  H    0.122782
    79  H    0.112155
    80  H    0.093527
    81  H    0.095015
    82  H    0.105805
    83  H    0.101538
    84  H    0.091662
    85  H    0.095591
    86  H    0.115385
    87  H    0.106038
    88  H    0.106279
    89  H    0.099940
    90  H    0.123282
    91  H    0.097906
    92  H    0.117105
    93  H    0.150346
    94  H    0.110172
    95  H    0.156645
    96  H    0.114787
    97  H    0.138372
    98  H    0.134976
    99  H    0.124497
   100  H    0.098536
   101  H    0.077398
   102  H    0.115456
   103  H    0.120701
   104  H    0.110433
   105  H    0.098664
   106  H    0.107203
   107  H    0.098607
   108  H    0.099219
   109  H    0.074724
   110  H    0.077985
   111  H    0.097865
   112  H    0.106150
   113  H    0.124008
   114  H    0.071097
   115  H    0.073759
   116  H    0.053704
   117  H    0.095297
   118  H    0.076398
   119  H    0.074030
   120  H    0.109694
   121  H    0.080505
   122  H    0.102094
   123  H    0.098022
   124  H    0.079065
   125  H    0.101396
   126  H    0.029228
   127  H    0.063527
   128  H    0.103581
   129  H    0.103825
   130  H    0.090322
   131  H    0.102538
   132  H    0.101627
   133  H    0.093547
   134  H    0.108379
   135  H    0.076458
   136  H    0.109659
   137  H    0.100350
 Sum of Mulliken charges =   0.00000

 Dipole moment (field-independent basis, Debye):
    X=              0.8454    Y=              3.5642    Z=             -0.0981  Tot=              3.6644
 Quadrupole moment (field-independent basis, Debye-Ang):
   XX=           -356.4571   YY=           -386.4043   ZZ=           -396.7864
   XY=            -18.5111   XZ=              3.9104   YZ=             -1.0512

 Normal termination of Gaussian 09 at Fri Jul  5 03:29:23 2019.
