 Gaussian 16, Revision A.03,
 Gaussian 16:  ES64L-G16RevA.03 25-Dec-2016

 ----------------------------------------------------------------------
 # td=(NStates=1) iop(3/107=0140000000,3/108=0140000000) CAM-B3LYP/6-31
 G(d,p)
 ----------------------------------------------------------------------

 --
 TD
 --
 Symbolic Z-matrix:
 Charge =  0 Multiplicity = 1

                         Standard orientation:
 ---------------------------------------------------------------------
 Center     Atomic      Atomic             Coordinates (Angstroms)
 Number     Number       Type             X           Y           Z
 ---------------------------------------------------------------------
      1         12           0       -7.240459    0.575929    0.119518
      2          6           0       -4.867501   -1.974731    0.512815
      3          6           0       -4.819546    2.895555    1.095654
      4          6           0       -9.417710    3.029766   -0.484807
      5          6           0       -9.606600   -1.804460   -0.868927
      6          7           0       -4.991082    0.447698    0.651893
      7          6           0       -4.289599   -0.749417    0.776042
      8          6           0       -2.914617   -0.433366    1.289270
      9          6           0       -3.051623    1.046982    1.806050
     10          6           0       -4.371344    1.486863    1.136049
     11          6           0       -2.990827    1.187116    3.298225
     12          6           0       -1.794819   -0.478386    0.156690
     13          6           0       -0.454985   -0.288388    0.641915
     14          6           0        0.515203   -0.681875   -0.521301
     15          8           0        0.246384   -1.028134   -1.647427
     16          8           0        1.826045   -0.333947   -0.060096
     17          7           0       -7.139981    2.598780    0.364961
     18          6           0       -6.116003    3.455973    0.770511
     19          6           0       -6.425825    4.812228    0.711507
     20          6           0       -7.744245    4.888988    0.225207
     21          6           0       -8.141470    3.475421   -0.025661
     22          6           0       -5.472807    5.915681    1.030511
     23          6           0       -8.643113    5.955541    0.146120
     24          6           0       -8.536263    7.194808    0.737465
     25          7           0       -9.111847    0.566042   -0.533036
     26          6           0       -9.824375    1.745835   -0.741245
     27          6           0      -11.237463    1.434047   -1.191904
     28          6           0      -11.234746    0.054764   -1.188311
     29          6           0       -9.988120   -0.500903   -0.877145
     30          6           0      -12.207254    2.473575   -1.460171
     31          6           0      -12.403772   -0.837908   -1.657375
     32          6           0      -12.160234   -1.243323   -3.074228
     33          7           0       -7.240080   -1.340698   -0.022486
     34          6           0       -8.251817   -2.304748   -0.556260
     35          6           0       -7.884362   -3.592926   -0.447225
     36          6           0       -6.448402   -3.518882   -0.081528
     37          6           0       -6.159247   -2.129794    0.139444
     38          6           0       -8.573217   -4.849784   -0.825619
     39          6           0       -5.225197   -4.346532    0.106806
     40          8           0       -5.057123   -5.566786   -0.032232
     41          6           0       -4.150353   -3.325899    0.470905
     42          6           0       -3.491337   -3.695446    1.886915
     43          8           0       -3.778853   -3.194188    3.045460
     44          8           0       -2.627889   -4.613573    1.741613
     45          6           0       -1.992517   -5.157544    2.927444
     46          6           0        2.779068   -0.702708   -1.179298
     47          6           0        4.158750   -0.352250   -0.503358
     48          6           0        5.061912    0.498509   -0.961027
     49          6           0        5.081514    1.285507   -2.233080
     50          6           0        6.353946    0.609911   -0.248047
     51          6           0        7.580885   -0.190697   -0.974175
     52          6           0        8.889925   -0.207435   -0.251767
     53          6           0       10.213301   -0.589126   -0.924094
     54          6           0       10.204179   -1.993767   -1.409782
     55          6           0       11.379814   -0.396908   -0.069382
     56          6           0       12.779924   -0.568857   -0.693544
     57          6           0       13.927455   -0.239561    0.236687
     58          6           0       15.307070   -0.295090   -0.484242
     59          6           0       15.712784   -1.651549   -0.758633
     60          6           0       16.421285    0.386446    0.416731
     61          6           0       17.827137    0.518004   -0.154770
     62          6           0       18.731025    1.381480    0.782594
     63          6           0       20.207357    1.421944    0.312863
     64          6           0       20.258812    2.094007   -1.187849
     65          6           0       21.057218    2.038524    1.232347
     66          1           0       -4.247151    3.473469    1.591804
     67          1           0      -10.243557    3.844759   -0.418407
     68          1           0      -10.144290   -2.684778   -1.230808
     69          1           0       -2.591729   -1.248481    2.079937
     70          1           0       -2.169954    1.721022    1.502108
     71          1           0       -2.104497    0.957070    3.800960
     72          1           0       -3.297028    2.312379    3.691872
     73          1           0       -3.912998    0.568299    3.764944
     74          1           0       -1.850795   -1.385463   -0.708440
     75          1           0       -2.219014    0.308155   -0.618038
     76          1           0       -0.312593    0.777609    0.976226
     77          1           0       -0.289433   -1.019425    1.425862
     78          1           0       -5.809649    6.774799    0.320787
     79          1           0       -5.456116    6.502256    2.005274
     80          1           0       -4.392121    5.718445    0.517430
     81          1           0       -9.438754    5.863733   -0.630146
     82          1           0       -9.237297    8.037842    0.592094
     83          1           0       -7.760679    7.342066    1.439355
     84          1           0      -11.993897    3.088716   -2.406472
     85          1           0      -13.267910    2.177613   -1.754774
     86          1           0      -12.302456    2.952347   -0.471116
     87          1           0      -12.441269   -1.666433   -0.798653
     88          1           0      -13.335552   -0.172264   -1.493115
     89          1           0      -12.943897   -1.858791   -3.548534
     90          1           0      -12.163021   -0.494642   -3.846089
     91          1           0      -11.288820   -1.933601   -3.287174
     92          1           0       -8.993524   -4.667138   -1.864171
     93          1           0       -8.120858   -5.741768   -0.790119
     94          1           0       -9.672458   -4.951794   -0.364713
     95          1           0       -3.178861   -3.522584   -0.224282
     96          1           0       -1.596834   -4.188448    3.616967
     97          1           0       -2.686441   -5.533629    3.467490
     98          1           0       -1.169495   -5.771539    2.542934
     99          1           0        2.702023   -1.710135   -1.477695
    100          1           0        2.467367    0.025491   -1.997936
    101          1           0        4.399071   -0.746841    0.528691
    102          1           0        4.072518    1.005960   -2.980062
    103          1           0        5.029082    2.383830   -1.991263
    104          1           0        5.894090    0.858194   -2.833665
    105          1           0        6.737041    1.554955    0.039189
    106          1           0        6.413485    0.034125    0.777556
    107          1           0        7.234456   -1.259986   -1.047172
    108          1           0        7.573957    0.360410   -2.019998
    109          1           0        9.107225    0.753474    0.271471
    110          1           0        8.659421   -0.977647    0.669616
    111          1           0       10.229353    0.163060   -1.681702
    112          1           0        9.306802   -2.226306   -2.058267
    113          1           0       11.113085   -2.444692   -2.041179
    114          1           0       10.229556   -2.703149   -0.478690
    115          1           0       11.334530    0.674164    0.479530
    116          1           0       11.039970   -1.125177    0.744634
    117          1           0       12.994785   -1.524653   -0.976732
    118          1           0       12.919171   -0.022448   -1.754047
    119          1           0       13.848298    0.858941    0.632374
    120          1           0       13.894000   -0.765005    1.175359
    121          1           0       15.213145    0.382539   -1.288173
    122          1           0       15.815195   -2.255328    0.140293
    123          1           0       14.905839   -2.261566   -1.406885
    124          1           0       16.599820   -1.569875   -1.423061
    125          1           0       16.141294    1.463982    0.758157
    126          1           0       16.313962   -0.162186    1.486230
    127          1           0       18.422362   -0.490095   -0.376889
    128          1           0       17.681625    1.000698   -1.195812
    129          1           0       18.338886    2.342191    0.729000
    130          1           0       18.455559    1.051136    1.862739
    131          1           0       20.585220    0.382121   -0.025370
    132          1           0       19.848999    3.078208   -1.062312
    133          1           0       21.360344    2.063433   -1.525520
    134          1           0       19.612119    1.668100   -1.983381
    135          1           0       21.192375    1.539222    2.216104
    136          1           0       22.018576    1.886409    0.834515
    137          1           0       20.982766    3.102466    1.485204
 ---------------------------------------------------------------------

 SCF Done:  E(RCAM-B3LYP) =  -2933.51789967     A.U. after   16 cycles

 Excitation energies and oscillator strengths:

 Excited State   1:      Singlet-A      1.9639 eV  631.30 nm  f=0.2425  <S**2>=0.000
     240 -> 242       -0.10386
     240 -> 243       -0.23717
     241 -> 242        0.65349
 This state for optimization and/or second-order correction.
 Total Energy, E(TD-HF/TD-DFT) =  -2933.44572620
 Copying the excited state density for this state as the 1-particle RhoCI density.

 The electronic state is 1-A.
 Alpha  occ. eigenvalues --  -46.79188 -19.23531 -19.21400 -19.18691 -19.15143
 Alpha  occ. eigenvalues --  -19.14728 -14.37601 -14.35599 -14.34961 -14.34728
 Alpha  occ. eigenvalues --  -10.35203 -10.34626 -10.29487 -10.27766 -10.27716
 Alpha  occ. eigenvalues --  -10.27142 -10.25991 -10.25752 -10.25561 -10.25283
 Alpha  occ. eigenvalues --  -10.25150 -10.24569 -10.24348 -10.24112 -10.24111
 Alpha  occ. eigenvalues --  -10.23782 -10.23584 -10.23558 -10.23524 -10.23461
 Alpha  occ. eigenvalues --  -10.23309 -10.23271 -10.23261 -10.23246 -10.23224
 Alpha  occ. eigenvalues --  -10.23204 -10.23012 -10.22771 -10.22701 -10.22676
 Alpha  occ. eigenvalues --  -10.22594 -10.22481 -10.22411 -10.22398 -10.22246
 Alpha  occ. eigenvalues --  -10.22220 -10.22120 -10.22065 -10.22024 -10.21940
 Alpha  occ. eigenvalues --  -10.21888 -10.21864 -10.21766 -10.21648 -10.21471
 Alpha  occ. eigenvalues --  -10.21131 -10.21051 -10.20991 -10.20977 -10.20813
 Alpha  occ. eigenvalues --  -10.20759 -10.20620 -10.20604 -10.20581 -10.19084
 Alpha  occ. eigenvalues --   -3.07981  -1.82887  -1.82487  -1.82385  -1.15335
 Alpha  occ. eigenvalues --   -1.11271  -1.03679  -1.03483  -0.99938  -0.99350
 Alpha  occ. eigenvalues --   -0.97799  -0.96770  -0.95873  -0.87106  -0.86621
 Alpha  occ. eigenvalues --   -0.85542  -0.84947  -0.84747  -0.84536  -0.83896
 Alpha  occ. eigenvalues --   -0.83763  -0.83073  -0.82257  -0.81857  -0.80717
 Alpha  occ. eigenvalues --   -0.79683  -0.79419  -0.78946  -0.78009  -0.77949
 Alpha  occ. eigenvalues --   -0.76880  -0.76147  -0.75713  -0.74837  -0.73420
 Alpha  occ. eigenvalues --   -0.72706  -0.72520  -0.71498  -0.71176  -0.70913
 Alpha  occ. eigenvalues --   -0.70532  -0.69771  -0.69175  -0.68545  -0.68007
 Alpha  occ. eigenvalues --   -0.66693  -0.65397  -0.65210  -0.64430  -0.63753
 Alpha  occ. eigenvalues --   -0.62550  -0.61512  -0.60708  -0.60475  -0.59925
 Alpha  occ. eigenvalues --   -0.59838  -0.58637  -0.58357  -0.57946  -0.57775
 Alpha  occ. eigenvalues --   -0.57715  -0.56265  -0.56088  -0.55349  -0.54858
 Alpha  occ. eigenvalues --   -0.54256  -0.53974  -0.53194  -0.52461  -0.52002
 Alpha  occ. eigenvalues --   -0.51836  -0.51448  -0.51204  -0.50854  -0.50627
 Alpha  occ. eigenvalues --   -0.50062  -0.49961  -0.49798  -0.49416  -0.49168
 Alpha  occ. eigenvalues --   -0.49007  -0.48583  -0.48540  -0.48464  -0.48032
 Alpha  occ. eigenvalues --   -0.47505  -0.47395  -0.47051  -0.46940  -0.46844
 Alpha  occ. eigenvalues --   -0.46479  -0.46464  -0.45959  -0.45643  -0.45595
 Alpha  occ. eigenvalues --   -0.45491  -0.45437  -0.45311  -0.45073  -0.44900
 Alpha  occ. eigenvalues --   -0.44348  -0.44188  -0.43957  -0.43888  -0.43481
 Alpha  occ. eigenvalues --   -0.43368  -0.43127  -0.42979  -0.42875  -0.42701
 Alpha  occ. eigenvalues --   -0.42146  -0.42001  -0.41856  -0.41788  -0.41495
 Alpha  occ. eigenvalues --   -0.41344  -0.41100  -0.40930  -0.40796  -0.40505
 Alpha  occ. eigenvalues --   -0.40444  -0.40214  -0.40035  -0.39744  -0.39677
 Alpha  occ. eigenvalues --   -0.39334  -0.39106  -0.38891  -0.38868  -0.38716
 Alpha  occ. eigenvalues --   -0.38667  -0.38476  -0.38021  -0.37921  -0.37422
 Alpha  occ. eigenvalues --   -0.37165  -0.37086  -0.37010  -0.36890  -0.36656
 Alpha  occ. eigenvalues --   -0.36399  -0.36306  -0.35967  -0.35764  -0.35585
 Alpha  occ. eigenvalues --   -0.35274  -0.34807  -0.34564  -0.34429  -0.34178
 Alpha  occ. eigenvalues --   -0.34162  -0.33938  -0.33772  -0.33580  -0.33339
 Alpha  occ. eigenvalues --   -0.33122  -0.33060  -0.32621  -0.32517  -0.32420
 Alpha  occ. eigenvalues --   -0.32123  -0.31802  -0.31711  -0.31267  -0.30758
 Alpha  occ. eigenvalues --   -0.30360  -0.29763  -0.28515  -0.28024  -0.27212
 Alpha  occ. eigenvalues --   -0.26180  -0.25920  -0.25224  -0.24961  -0.21288
 Alpha  occ. eigenvalues --   -0.20311
 Alpha virt. eigenvalues --   -0.07809  -0.03745  -0.00648   0.01683   0.02858
 Alpha virt. eigenvalues --    0.03624   0.04630   0.04986   0.05506   0.05524
 Alpha virt. eigenvalues --    0.06373   0.08842   0.09230   0.09675   0.09767

 Mulliken charges:
               1
     1  Mg   0.828709
     2  C    0.114897
     3  C   -0.152497
     4  C   -0.203488
     5  C   -0.187402
     6  N   -0.604655
     7  C    0.293844
     8  C   -0.168775
     9  C   -0.139781
    10  C    0.331747
    11  C   -0.298200
    12  C   -0.180297
    13  C   -0.237925
    14  C    0.601489
    15  O   -0.442237
    16  O   -0.500159
    17  N   -0.687663
    18  C    0.289197
    19  C    0.063383
    20  C    0.044535
    21  C    0.295193
    22  C   -0.407044
    23  C   -0.098166
    24  C   -0.246958
    25  N   -0.728170
    26  C    0.321954
    27  C    0.072027
    28  C   -0.023052
    29  C    0.361837
    30  C   -0.397145
    31  C   -0.220562
    32  C   -0.313355
    33  N   -0.762207
    34  C    0.196513
    35  C    0.089927
    36  C   -0.058934
    37  C    0.358132
    38  C   -0.380008
    39  C    0.383504
    40  O   -0.493997
    41  C   -0.317055
    42  C    0.588184
    43  O   -0.530537
    44  O   -0.383701
    45  C   -0.074685
    46  C    0.002556
    47  C   -0.140079
    48  C    0.156982
    49  C   -0.351142
    50  C   -0.242269
    51  C   -0.172449
    52  C   -0.164785
    53  C   -0.040889
    54  C   -0.300431
    55  C   -0.152944
    56  C   -0.161918
    57  C   -0.176688
    58  C   -0.054757
    59  C   -0.285878
    60  C   -0.171899
    61  C   -0.168070
    62  C   -0.163452
    63  C   -0.050956
    64  C   -0.328830
    65  C   -0.305085
    66  H    0.057856
    67  H    0.086285
    68  H    0.087583
    69  H    0.112386
    70  H    0.093787
    71  H    0.126273
    72  H    0.078100
    73  H    0.107874
    74  H    0.102775
    75  H    0.096919
    76  H    0.140280
    77  H    0.139765
    78  H    0.117394
    79  H    0.131253
    80  H    0.109171
    81  H    0.092062
    82  H    0.108606
    83  H    0.098927
    84  H    0.127170
    85  H    0.109061
    86  H    0.135848
    87  H    0.096105
    88  H    0.093717
    89  H    0.097840
    90  H    0.119322
    91  H    0.108808
    92  H    0.119733
    93  H    0.153449
    94  H    0.099319
    95  H    0.147885
    96  H    0.108374
    97  H    0.157639
    98  H    0.134494
    99  H    0.140597
   100  H    0.127490
   101  H    0.091094
   102  H    0.065992
   103  H    0.128720
   104  H    0.134903
   105  H    0.104846
   106  H    0.079166
   107  H    0.103341
   108  H    0.071959
   109  H    0.086837
   110  H    0.054277
   111  H    0.090762
   112  H    0.099397
   113  H    0.088983
   114  H    0.087030
   115  H    0.062168
   116  H    0.079308
   117  H    0.110534
   118  H    0.069556
   119  H    0.064846
   120  H    0.093262
   121  H    0.090805
   122  H    0.110324
   123  H    0.071938
   124  H    0.104165
   125  H    0.074716
   126  H    0.060363
   127  H    0.078115
   128  H    0.081161
   129  H    0.100677
   130  H    0.081555
   131  H    0.080881
   132  H    0.106138
   133  H    0.091940
   134  H    0.106586
   135  H    0.101315
   136  H    0.102338
   137  H    0.102421
 Sum of Mulliken charges =  -0.00000

 Dipole moment (field-independent basis, Debye):
    X=              1.5061    Y=              4.9618    Z=             -0.2369  Tot=              5.1908
 Quadrupole moment (field-independent basis, Debye-Ang):
   XX=           -329.3156   YY=           -388.5719   ZZ=           -397.7251
   XY=            -29.1236   XZ=             14.9154   YZ=             -0.8046

 Normal termination of Gaussian 16 at Tue Sep 24 06:37:31 2019.
