 Gaussian 16, Revision A.03,
 Gaussian 16:  ES64L-G16RevA.03 25-Dec-2016

 -------------------------------------
 # td=(NStates=1) CAM-B3LYP/6-31G(d,p)
 -------------------------------------

 --
 TD
 --
 Symbolic Z-matrix:
 Charge =  0 Multiplicity = 1

                         Standard orientation:
 ---------------------------------------------------------------------
 Center     Atomic      Atomic             Coordinates (Angstroms)
 Number     Number       Type             X           Y           Z
 ---------------------------------------------------------------------
      1         12           0       -7.181751    0.695144    0.067529
      2          6           0       -4.821218   -1.917486    0.586373
      3          6           0       -4.811393    2.801528    1.212316
      4          6           0       -9.451337    3.039087   -0.353375
      5          6           0       -9.504693   -1.745364   -0.959858
      6          7           0       -5.071566    0.481719    0.726497
      7          6           0       -4.323164   -0.739154    0.857606
      8          6           0       -2.909116   -0.262499    1.342498
      9          6           0       -3.012169    1.097938    1.776425
     10          6           0       -4.457074    1.560389    1.259057
     11          6           0       -2.849395    1.415691    3.313869
     12          6           0       -1.902192   -0.581003    0.207438
     13          6           0       -0.437590   -0.388239    0.569588
     14          6           0        0.519714   -0.682178   -0.579626
     15          8           0        0.255339   -1.208930   -1.574394
     16          8           0        1.839365   -0.325847   -0.204592
     17          7           0       -7.136661    2.615053    0.305383
     18          6           0       -6.072706    3.302291    0.772624
     19          6           0       -6.400566    4.780496    0.882002
     20          6           0       -7.707590    4.823122    0.283071
     21          6           0       -8.126222    3.469579   -0.014064
     22          6           0       -5.513827    5.922291    1.177151
     23          6           0       -8.432546    6.057580    0.041295
     24          6           0       -8.424785    7.133283    0.917446
     25          7           0       -9.060857    0.717392   -0.633173
     26          6           0       -9.822654    1.784851   -0.750838
     27          6           0      -11.190299    1.415061   -1.152405
     28          6           0      -11.114166    0.092775   -1.329185
     29          6           0       -9.840223   -0.377387   -0.933427
     30          6           0      -12.242469    2.498128   -1.541354
     31          6           0      -12.283586   -0.748786   -1.889700
     32          6           0      -12.170958   -1.139290   -3.434677
     33          7           0       -7.229057   -1.424528   -0.123575
     34          6           0       -8.264398   -2.297547   -0.593076
     35          6           0       -7.825216   -3.685455   -0.581856
     36          6           0       -6.463359   -3.670803   -0.129614
     37          6           0       -6.170851   -2.232912    0.087605
     38          6           0       -8.560134   -4.911676   -0.892550
     39          6           0       -5.340950   -4.422011    0.270647
     40          8           0       -5.155840   -5.586001    0.247507
     41          6           0       -4.161501   -3.331199    0.582937
     42          6           0       -3.541526   -3.590228    1.962073
     43          8           0       -3.771936   -3.063175    3.078775
     44          8           0       -2.738462   -4.659448    1.909451
     45          6           0       -2.303143   -5.277549    3.111241
     46          6           0        2.790715   -0.637987   -1.214893
     47          6           0        4.142429   -0.401418   -0.584919
     48          6           0        5.154322    0.383478   -0.977344
     49          6           0        5.036664    1.287077   -2.225159
     50          6           0        6.373659    0.352893   -0.100746
     51          6           0        7.598728   -0.141487   -0.959598
     52          6           0        8.910861   -0.062718   -0.185010
     53          6           0       10.185781   -0.582905   -0.786674
     54          6           0        9.996023   -2.154211   -1.164315
     55          6           0       11.418441   -0.291814    0.131968
     56          6           0       12.711018   -0.430267   -0.720067
     57          6           0       13.911271   -0.165101    0.154784
     58          6           0       15.284450   -0.166845   -0.611171
     59          6           0       15.536917   -1.476550   -1.228349
     60          6           0       16.358273    0.277728    0.363211
     61          6           0       17.809617    0.488769   -0.278621
     62          6           0       18.710787    1.102629    0.651859
     63          6           0       20.205857    1.320865    0.109184
     64          6           0       20.261135    2.330419   -0.987141
     65          6           0       21.058747    1.874204    1.368564
     66          1           0       -4.225243    3.590073    1.278480
     67          1           0      -10.084684    3.773689   -0.665805
     68          1           0      -10.139302   -2.634842   -1.569437
     69          1           0       -2.459209   -0.915628    2.134314
     70          1           0       -2.124992    1.574983    1.400829
     71          1           0       -1.840229    1.265499    3.590038
     72          1           0       -2.943605    2.537194    3.451563
     73          1           0       -3.436161    0.931675    3.615382
     74          1           0       -2.117562   -1.464854   -0.192869
     75          1           0       -2.039353    0.031932   -0.524691
     76          1           0       -0.259658    0.620088    1.001816
     77          1           0       -0.251456   -1.144432    1.328575
     78          1           0       -5.857780    6.867396    0.533030
     79          1           0       -5.483336    6.168874    2.182098
     80          1           0       -4.433859    5.851031    0.720679
     81          1           0       -9.008408    6.155706   -0.773758
     82          1           0       -9.283223    7.884667    0.576493
     83          1           0       -7.812046    7.057460    1.959715
     84          1           0      -11.951548    2.966839   -2.245494
     85          1           0      -13.164711    1.854241   -1.847221
     86          1           0      -12.236853    2.881439   -0.460679
     87          1           0      -12.389427   -1.573676   -1.152142
     88          1           0      -13.171084   -0.256739   -1.741268
     89          1           0      -13.056110   -1.731961   -3.699654
     90          1           0      -11.944752   -0.053360   -4.195022
     91          1           0      -11.196669   -1.753855   -3.670396
     92          1           0       -8.458283   -5.068168   -2.112654
     93          1           0       -8.017454   -5.846845   -0.416104
     94          1           0       -9.606443   -4.868808   -0.481757
     95          1           0       -3.151712   -3.261056    0.003575
     96          1           0       -1.702148   -4.655487    3.842566
     97          1           0       -3.247211   -5.754140    3.439513
     98          1           0       -1.549806   -6.123756    2.759814
     99          1           0        2.701909   -1.700636   -1.656845
    100          1           0        2.779300   -0.084899   -2.120636
    101          1           0        4.362832   -1.108214    0.311124
    102          1           0        4.050127    1.546689   -2.541175
    103          1           0        5.266228    2.252115   -1.928826
    104          1           0        5.602320    0.869806   -2.986561
    105          1           0        6.621829    1.403817   -0.110862
    106          1           0        6.139484   -0.206414    0.868377
    107          1           0        7.240351   -1.124858   -1.325645
    108          1           0        7.835320    0.237002   -1.965034
    109          1           0        9.151943    0.934342    0.136834
    110          1           0        8.787096   -0.749633    0.707724
    111          1           0       10.255653    0.001789   -1.788541
    112          1           0        9.220092   -2.428761   -1.791714
    113          1           0       10.871108   -2.475100   -1.748608
    114          1           0        9.875487   -2.597706   -0.280747
    115          1           0       11.386510    0.789447    0.371617
    116          1           0       11.410870   -0.982635    0.985546
    117          1           0       12.815649   -1.409752   -1.128787
    118          1           0       12.810214    0.045745   -1.629640
    119          1           0       13.894444    1.006568    0.587106
    120          1           0       14.002448   -0.705035    1.091881
    121          1           0       15.342213    0.605888   -1.479281
    122          1           0       15.498786   -2.373674   -0.528089
    123          1           0       14.940500   -1.769157   -2.098561
    124          1           0       16.526589   -1.622824   -1.697060
    125          1           0       15.875295    1.261024    0.876484
    126          1           0       16.207074   -0.484147    1.188157
    127          1           0       18.200419   -0.562320   -0.320330
    128          1           0       17.876065    0.927798   -1.306286
    129          1           0       18.265784    2.079261    1.009462
    130          1           0       18.781032    0.677197    1.622279
    131          1           0       20.599893    0.271008   -0.085952
    132          1           0       19.938508    3.341283   -0.665107
    133          1           0       21.257226    2.593732   -1.323115
    134          1           0       19.665392    1.825680   -1.787588
    135          1           0       20.986516    1.090550    2.325383
    136          1           0       22.057909    1.889343    1.061961
    137          1           0       20.649814    2.908032    1.691989
 ---------------------------------------------------------------------

 SCF Done:  E(RCAM-B3LYP) =  -2932.55067569     A.U. after   15 cycles

 Excitation energies and oscillator strengths:

 Excited State   1:      Singlet-A      1.9772 eV  627.06 nm  f=0.3135  <S**2>=0.000
     240 -> 243       -0.19301
     241 -> 242        0.67339
 This state for optimization and/or second-order correction.
 Total Energy, E(TD-HF/TD-DFT) =  -2932.47801440
 Copying the excited state density for this state as the 1-particle RhoCI density.

 The electronic state is 1-A.
 Alpha  occ. eigenvalues --  -46.84437 -19.25287 -19.25179 -19.22249 -19.20362
 Alpha  occ. eigenvalues --  -19.19276 -14.40849 -14.40007 -14.39893 -14.39752
 Alpha  occ. eigenvalues --  -10.39101 -10.38422 -10.35203 -10.31861 -10.30937
 Alpha  occ. eigenvalues --  -10.30589 -10.30309 -10.30098 -10.30093 -10.29903
 Alpha  occ. eigenvalues --  -10.29869 -10.29504 -10.29382 -10.29185 -10.29125
 Alpha  occ. eigenvalues --  -10.29070 -10.28970 -10.28635 -10.28427 -10.28003
 Alpha  occ. eigenvalues --  -10.27717 -10.27436 -10.27379 -10.27042 -10.26631
 Alpha  occ. eigenvalues --  -10.26600 -10.26589 -10.26534 -10.26505 -10.26484
 Alpha  occ. eigenvalues --  -10.26305 -10.26248 -10.26186 -10.26130 -10.26027
 Alpha  occ. eigenvalues --  -10.25815 -10.25777 -10.25768 -10.25732 -10.25725
 Alpha  occ. eigenvalues --  -10.25637 -10.25555 -10.25456 -10.25421 -10.24939
 Alpha  occ. eigenvalues --  -10.24636 -10.24521 -10.24389 -10.24144 -10.23839
 Alpha  occ. eigenvalues --  -10.23815 -10.23761 -10.23632 -10.22940 -10.22745
 Alpha  occ. eigenvalues --   -3.13561  -1.88260  -1.87781  -1.87768  -1.18805
 Alpha  occ. eigenvalues --   -1.17237  -1.13121  -1.10492  -1.05883  -1.05327
 Alpha  occ. eigenvalues --   -1.04228  -1.02425  -1.01380  -0.91676  -0.90829
 Alpha  occ. eigenvalues --   -0.90667  -0.90263  -0.89272  -0.89175  -0.88973
 Alpha  occ. eigenvalues --   -0.88333  -0.87954  -0.87876  -0.87307  -0.86263
 Alpha  occ. eigenvalues --   -0.84615  -0.84086  -0.83556  -0.82662  -0.82520
 Alpha  occ. eigenvalues --   -0.81620  -0.81174  -0.80872  -0.80158  -0.78679
 Alpha  occ. eigenvalues --   -0.78434  -0.77523  -0.76802  -0.75590  -0.75446
 Alpha  occ. eigenvalues --   -0.75192  -0.74989  -0.74471  -0.73280  -0.72942
 Alpha  occ. eigenvalues --   -0.71271  -0.70528  -0.69687  -0.68705  -0.68360
 Alpha  occ. eigenvalues --   -0.66892  -0.66447  -0.65500  -0.65150  -0.64357
 Alpha  occ. eigenvalues --   -0.63831  -0.63135  -0.62760  -0.62283  -0.61713
 Alpha  occ. eigenvalues --   -0.61298  -0.60743  -0.60219  -0.59970  -0.59206
 Alpha  occ. eigenvalues --   -0.58995  -0.58042  -0.57462  -0.56584  -0.56365
 Alpha  occ. eigenvalues --   -0.55847  -0.55797  -0.55331  -0.54887  -0.54757
 Alpha  occ. eigenvalues --   -0.54321  -0.53893  -0.53777  -0.53684  -0.53467
 Alpha  occ. eigenvalues --   -0.52880  -0.52737  -0.52239  -0.52060  -0.51904
 Alpha  occ. eigenvalues --   -0.51578  -0.51327  -0.51226  -0.51066  -0.50628
 Alpha  occ. eigenvalues --   -0.50357  -0.50151  -0.49929  -0.49693  -0.49460
 Alpha  occ. eigenvalues --   -0.49405  -0.49077  -0.48842  -0.48628  -0.48360
 Alpha  occ. eigenvalues --   -0.48091  -0.47811  -0.47659  -0.47615  -0.47252
 Alpha  occ. eigenvalues --   -0.47055  -0.46831  -0.46800  -0.46411  -0.46269
 Alpha  occ. eigenvalues --   -0.45996  -0.45841  -0.45569  -0.45225  -0.45098
 Alpha  occ. eigenvalues --   -0.45004  -0.44703  -0.44614  -0.44413  -0.44293
 Alpha  occ. eigenvalues --   -0.44219  -0.44158  -0.43922  -0.43516  -0.43393
 Alpha  occ. eigenvalues --   -0.43324  -0.43110  -0.42816  -0.42750  -0.42465
 Alpha  occ. eigenvalues --   -0.42241  -0.41944  -0.41562  -0.41478  -0.41116
 Alpha  occ. eigenvalues --   -0.40809  -0.40681  -0.40339  -0.40216  -0.39587
 Alpha  occ. eigenvalues --   -0.39420  -0.39286  -0.39160  -0.39154  -0.38952
 Alpha  occ. eigenvalues --   -0.38408  -0.38262  -0.37994  -0.37707  -0.37163
 Alpha  occ. eigenvalues --   -0.36587  -0.36505  -0.36451  -0.36333  -0.36315
 Alpha  occ. eigenvalues --   -0.36215  -0.35745  -0.35612  -0.35400  -0.35330
 Alpha  occ. eigenvalues --   -0.35227  -0.34860  -0.34490  -0.34467  -0.32939
 Alpha  occ. eigenvalues --   -0.32722  -0.32213  -0.31799  -0.31464  -0.30327
 Alpha  occ. eigenvalues --   -0.29634  -0.28867  -0.28725  -0.27652  -0.23586
 Alpha  occ. eigenvalues --   -0.21616
 Alpha virt. eigenvalues --   -0.07499  -0.02654   0.01757   0.03659   0.05927
 Alpha virt. eigenvalues --    0.06188   0.06477   0.06962   0.07345   0.07913
 Alpha virt. eigenvalues --    0.08463   0.09780   0.11065   0.11462   0.11945

 Mulliken charges:
               1
     1  Mg   0.843983
     2  C    0.106171
     3  C   -0.140490
     4  C   -0.150827
     5  C   -0.176623
     6  N   -0.657999
     7  C    0.270906
     8  C   -0.138839
     9  C   -0.168394
    10  C    0.370522
    11  C   -0.248083
    12  C   -0.165546
    13  C   -0.284142
    14  C    0.608652
    15  O   -0.415124
    16  O   -0.496912
    17  N   -0.734540
    18  C    0.273534
    19  C    0.025748
    20  C   -0.012355
    21  C    0.300818
    22  C   -0.392987
    23  C   -0.091734
    24  C   -0.240466
    25  N   -0.695764
    26  C    0.308012
    27  C   -0.053463
    28  C    0.010729
    29  C    0.285524
    30  C   -0.305037
    31  C   -0.229796
    32  C   -0.285486
    33  N   -0.685430
    34  C    0.256107
    35  C    0.042542
    36  C    0.034329
    37  C    0.242099
    38  C   -0.384160
    39  C    0.366524
    40  O   -0.433504
    41  C   -0.343823
    42  C    0.587840
    43  O   -0.501441
    44  O   -0.435503
    45  C   -0.073343
    46  C    0.015592
    47  C   -0.140882
    48  C    0.102021
    49  C   -0.365335
    50  C   -0.212634
    51  C   -0.201696
    52  C   -0.148571
    53  C   -0.083718
    54  C   -0.319175
    55  C   -0.169514
    56  C   -0.180793
    57  C   -0.166308
    58  C   -0.053014
    59  C   -0.310872
    60  C   -0.167754
    61  C   -0.174929
    62  C   -0.158061
    63  C   -0.071454
    64  C   -0.294252
    65  C   -0.303168
    66  H    0.067568
    67  H    0.079758
    68  H    0.108137
    69  H    0.114238
    70  H    0.094614
    71  H    0.103762
    72  H    0.093898
    73  H    0.108899
    74  H    0.112542
    75  H    0.117018
    76  H    0.129193
    77  H    0.141427
    78  H    0.121299
    79  H    0.137068
    80  H    0.111074
    81  H    0.098782
    82  H    0.102214
    83  H    0.113971
    84  H    0.132960
    85  H    0.100183
    86  H    0.132309
    87  H    0.104158
    88  H    0.109898
    89  H    0.117735
    90  H    0.066220
    91  H    0.103447
    92  H    0.116214
    93  H    0.145198
    94  H    0.123753
    95  H    0.156484
    96  H    0.128458
    97  H    0.137103
    98  H    0.107489
    99  H    0.110563
   100  H    0.107579
   101  H    0.066756
   102  H    0.119087
   103  H    0.118679
   104  H    0.132213
   105  H    0.106147
   106  H    0.113545
   107  H    0.094324
   108  H    0.093622
   109  H    0.089149
   110  H    0.071674
   111  H    0.059401
   112  H    0.109783
   113  H    0.095116
   114  H    0.110602
   115  H    0.100935
   116  H    0.100596
   117  H    0.102192
   118  H    0.104000
   119  H    0.047335
   120  H    0.094589
   121  H    0.071267
   122  H    0.086617
   123  H    0.100350
   124  H    0.096670
   125  H    0.066533
   126  H    0.085799
   127  H    0.096338
   128  H    0.096636
   129  H    0.071210
   130  H    0.095616
   131  H    0.083023
   132  H    0.105640
   133  H    0.102302
   134  H    0.097436
   135  H    0.068259
   136  H    0.108696
   137  H    0.094933
 Sum of Mulliken charges =  -0.00000

 Dipole moment (field-independent basis, Debye):
    X=             -0.3854    Y=              4.6227    Z=             -1.6072  Tot=              4.9093
 Quadrupole moment (field-independent basis, Debye-Ang):
   XX=           -331.0597   YY=           -389.4422   ZZ=           -396.5669
   XY=            -23.4683   XZ=             10.2624   YZ=             -1.7530

 Normal termination of Gaussian 16 at Sun Jun 30 16:07:47 2019.
