 Gaussian 16, Revision A.03,
 Gaussian 16:  ES64L-G16RevA.03 25-Dec-2016

 ----------------------------------------------------------------------
 # td=(NStates=1) iop(3/107=0140000000,3/108=0140000000) CAM-B3LYP/6-31
 G(d,p)
 ----------------------------------------------------------------------

 --
 TD
 --
 Symbolic Z-matrix:
 Charge =  0 Multiplicity = 1

                         Standard orientation:
 ---------------------------------------------------------------------
 Center     Atomic      Atomic             Coordinates (Angstroms)
 Number     Number       Type             X           Y           Z
 ---------------------------------------------------------------------
      1         12           0       -7.186384    0.631292    0.172000
      2          6           0       -4.874779   -2.048860    0.503755
      3          6           0       -4.774960    2.729741    1.344570
      4          6           0       -9.274341    3.217800   -0.394691
      5          6           0       -9.525726   -1.633136   -0.810907
      6          7           0       -5.064541    0.490402    0.601953
      7          6           0       -4.437601   -0.723963    0.809016
      8          6           0       -2.981268   -0.488640    1.210382
      9          6           0       -2.991117    1.031930    1.662946
     10          6           0       -4.299074    1.494837    1.157351
     11          6           0       -2.871199    1.138095    3.234392
     12          6           0       -1.919863   -0.630720    0.015135
     13          6           0       -0.459227   -0.452006    0.452574
     14          6           0        0.536286   -0.569545   -0.585137
     15          8           0        0.292267   -0.689154   -1.837893
     16          8           0        1.765427   -0.539324   -0.151812
     17          7           0       -6.987082    2.671201    0.440402
     18          6           0       -6.020844    3.370957    0.918726
     19          6           0       -6.417705    4.755271    0.850675
     20          6           0       -7.646511    4.917056    0.328525
     21          6           0       -7.974571    3.494786    0.027436
     22          6           0       -5.484453    5.917509    1.276120
     23          6           0       -8.351819    6.135209    0.093665
     24          6           0       -8.142817    7.315056    0.662585
     25          7           0       -9.221435    0.770239   -0.534329
     26          6           0       -9.836818    2.053318   -0.677015
     27          6           0      -11.193447    1.604765   -1.123123
     28          6           0      -11.387194    0.247153   -1.227462
     29          6           0       -9.947328   -0.217332   -0.859675
     30          6           0      -12.327685    2.522490   -1.534744
     31          6           0      -12.438029   -0.591371   -1.654403
     32          6           0      -12.328648   -1.133671   -3.206130
     33          7           0       -7.234952   -1.428154   -0.104014
     34          6           0       -8.269799   -2.158208   -0.470171
     35          6           0       -7.935410   -3.573976   -0.547555
     36          6           0       -6.626828   -3.510303   -0.071669
     37          6           0       -6.228063   -2.195329    0.168012
     38          6           0       -8.740329   -4.738041   -0.870896
     39          6           0       -5.424971   -4.394409    0.243677
     40          8           0       -5.286780   -5.567513    0.176055
     41          6           0       -4.244161   -3.406206    0.556726
     42          6           0       -3.546030   -3.843996    1.826089
     43          8           0       -3.899530   -3.345446    2.852413
     44          8           0       -2.682968   -4.768714    1.646837
     45          6           0       -2.089992   -5.371352    2.820028
     46          6           0        2.841198   -0.884198   -1.057191
     47          6           0        4.153954   -0.690628   -0.471518
     48          6           0        5.105905    0.194280   -0.922588
     49          6           0        5.154100    0.949007   -2.242136
     50          6           0        6.413117    0.102508   -0.205171
     51          6           0        7.606006   -0.581743   -1.007771
     52          6           0        8.959733   -0.299594   -0.167252
     53          6           0       10.213291   -0.594183   -0.934302
     54          6           0       10.166891   -2.143392   -1.301819
     55          6           0       11.418623   -0.221963   -0.085820
     56          6           0       12.746170   -0.429358   -0.731921
     57          6           0       14.021402   -0.059954    0.125815
     58          6           0       15.389926   -0.174589   -0.506806
     59          6           0       15.732709   -1.602896   -0.763161
     60          6           0       16.343481    0.541187    0.428678
     61          6           0       17.788036    0.633528   -0.206058
     62          6           0       18.715376    1.282933    0.768533
     63          6           0       20.235448    1.419497    0.162265
     64          6           0       20.177256    2.480503   -1.032742
     65          6           0       21.129378    2.028049    1.434468
     66          1           0       -4.039497    3.479178    1.880940
     67          1           0       -9.919821    4.103873   -0.458906
     68          1           0      -10.459153   -2.322732   -0.781808
     69          1           0       -2.638499   -1.093431    2.177454
     70          1           0       -2.171152    1.471079    1.225837
     71          1           0       -2.040389    0.638046    3.618184
     72          1           0       -3.019362    1.994832    3.816829
     73          1           0       -3.644650    0.430055    3.620511
     74          1           0       -2.177710   -1.564344   -0.534083
     75          1           0       -2.155125    0.090615   -0.681046
     76          1           0       -0.061015    0.675221    0.853140
     77          1           0       -0.378216   -1.207665    1.079873
     78          1           0       -5.685611    6.606975    0.564684
     79          1           0       -5.746621    6.062448    2.430956
     80          1           0       -4.328127    5.744944    1.386954
     81          1           0       -9.073288    6.118896   -0.755909
     82          1           0       -8.621521    8.169028    0.153132
     83          1           0       -7.417423    7.523381    1.299017
     84          1           0      -11.933006    3.123629   -2.554567
     85          1           0      -13.113342    2.025283   -1.675285
     86          1           0      -12.682962    3.378286   -0.813620
     87          1           0      -12.616799   -1.383659   -1.017387
     88          1           0      -13.354839   -0.060989   -1.295751
     89          1           0      -13.150028   -1.693756   -3.467239
     90          1           0      -12.546132   -0.377395   -3.919686
     91          1           0      -11.405292   -1.686633   -3.568948
     92          1           0       -9.023283   -4.449114   -1.925444
     93          1           0       -8.181528   -5.467473   -0.618598
     94          1           0       -9.738667   -4.762259   -0.291340
     95          1           0       -3.503161   -3.484176   -0.440843
     96          1           0       -1.571387   -4.626935    3.260642
     97          1           0       -2.991995   -5.562947    3.415102
     98          1           0       -1.402868   -6.319437    2.459755
     99          1           0        2.563775   -2.075721   -1.386735
    100          1           0        2.718050   -0.250190   -1.933454
    101          1           0        4.264046   -1.170640    0.354670
    102          1           0        4.315704    0.950101   -2.754515
    103          1           0        5.510908    2.003761   -2.241510
    104          1           0        5.815145    0.486455   -2.992214
    105          1           0        6.722512    1.102653    0.035569
    106          1           0        6.390510   -0.081017    0.768939
    107          1           0        7.329640   -1.653686   -1.379578
    108          1           0        7.786483   -0.105612   -1.964896
    109          1           0        8.930137    0.801318    0.055216
    110          1           0        8.826868   -0.806135    0.751966
    111          1           0       10.311297    0.089466   -1.788174
    112          1           0        9.434921   -2.092837   -2.103119
    113          1           0       11.178459   -2.720830   -1.528631
    114          1           0        9.808727   -2.886829   -0.430318
    115          1           0       11.264649    0.753450    0.186914
    116          1           0       11.540061   -0.751854    0.795769
    117          1           0       12.739398   -1.404418   -1.187173
    118          1           0       12.814408    0.317921   -1.646940
    119          1           0       13.945721    1.103820    0.500377
    120          1           0       13.861882   -0.816250    0.726218
    121          1           0       15.106588    0.343142   -1.262926
    122          1           0       15.856950   -2.073408    0.097336
    123          1           0       15.134362   -2.103742   -1.471638
    124          1           0       16.901064   -1.850766   -1.007213
    125          1           0       15.912235    1.418691    0.624427
    126          1           0       16.406709    0.048186    1.266564
    127          1           0       18.204841   -0.270279   -0.588857
    128          1           0       17.710278    1.093874   -1.240634
    129          1           0       18.161131    2.287986    1.123459
    130          1           0       18.965225    0.468938    1.460413
    131          1           0       20.696951    0.404161   -0.166555
    132          1           0       19.731058    3.359629   -0.449449
    133          1           0       21.316076    2.649757   -1.282917
    134          1           0       19.559879    2.309682   -1.971906
    135          1           0       21.198157    1.184112    2.256886
    136          1           0       22.278234    2.215579    1.072553
    137          1           0       20.850696    3.045162    1.408773
 ---------------------------------------------------------------------

 SCF Done:  E(RCAM-B3LYP) =  -2933.33061370     A.U. after   16 cycles

 Excitation energies and oscillator strengths:

 Excited State   1:      Singlet-A      2.0503 eV  604.72 nm  f=0.2666  <S**2>=0.000
     240 -> 243        0.20681
     241 -> 242        0.66912
 This state for optimization and/or second-order correction.
 Total Energy, E(TD-HF/TD-DFT) =  -2933.25526759
 Copying the excited state density for this state as the 1-particle RhoCI density.

 The electronic state is 1-A.
 Alpha  occ. eigenvalues --  -46.81457 -19.22910 -19.21925 -19.16729 -19.15741
 Alpha  occ. eigenvalues --  -19.14398 -14.37259 -14.35126 -14.35052 -14.34685
 Alpha  occ. eigenvalues --  -10.34014 -10.33567 -10.30622 -10.28306 -10.28030
 Alpha  occ. eigenvalues --  -10.26652 -10.24845 -10.24744 -10.24731 -10.24718
 Alpha  occ. eigenvalues --  -10.24346 -10.24048 -10.23948 -10.23881 -10.23672
 Alpha  occ. eigenvalues --  -10.23609 -10.23496 -10.23450 -10.23403 -10.23211
 Alpha  occ. eigenvalues --  -10.22784 -10.22569 -10.22478 -10.22403 -10.22359
 Alpha  occ. eigenvalues --  -10.22253 -10.22220 -10.22218 -10.22157 -10.22078
 Alpha  occ. eigenvalues --  -10.22069 -10.21955 -10.21626 -10.21536 -10.21503
 Alpha  occ. eigenvalues --  -10.21497 -10.21379 -10.21235 -10.21200 -10.21187
 Alpha  occ. eigenvalues --  -10.21063 -10.20948 -10.20810 -10.20718 -10.20656
 Alpha  occ. eigenvalues --  -10.20565 -10.20562 -10.20269 -10.20036 -10.19877
 Alpha  occ. eigenvalues --  -10.19870 -10.19394 -10.18954 -10.18757 -10.18287
 Alpha  occ. eigenvalues --   -3.09701  -1.84676  -1.84166  -1.84078  -1.15856
 Alpha  occ. eigenvalues --   -1.13425  -1.08361  -1.05604  -1.01605  -1.00344
 Alpha  occ. eigenvalues --   -0.99997  -0.97935  -0.97452  -0.87298  -0.86803
 Alpha  occ. eigenvalues --   -0.86395  -0.85118  -0.84695  -0.84434  -0.83841
 Alpha  occ. eigenvalues --   -0.83636  -0.83157  -0.81935  -0.81768  -0.80988
 Alpha  occ. eigenvalues --   -0.79884  -0.79531  -0.78456  -0.78051  -0.77674
 Alpha  occ. eigenvalues --   -0.76924  -0.76637  -0.75556  -0.75426  -0.74055
 Alpha  occ. eigenvalues --   -0.73120  -0.72238  -0.72093  -0.71587  -0.71433
 Alpha  occ. eigenvalues --   -0.70519  -0.70320  -0.69381  -0.68896  -0.68177
 Alpha  occ. eigenvalues --   -0.67737  -0.67006  -0.66128  -0.65028  -0.63721
 Alpha  occ. eigenvalues --   -0.63213  -0.62999  -0.61862  -0.61241  -0.60330
 Alpha  occ. eigenvalues --   -0.59978  -0.59652  -0.59549  -0.58808  -0.58747
 Alpha  occ. eigenvalues --   -0.58617  -0.57073  -0.56451  -0.56127  -0.55463
 Alpha  occ. eigenvalues --   -0.54847  -0.54435  -0.54056  -0.53829  -0.53461
 Alpha  occ. eigenvalues --   -0.52678  -0.52035  -0.51722  -0.51278  -0.50644
 Alpha  occ. eigenvalues --   -0.50448  -0.50389  -0.49933  -0.49595  -0.49319
 Alpha  occ. eigenvalues --   -0.49090  -0.48877  -0.48603  -0.48281  -0.48142
 Alpha  occ. eigenvalues --   -0.48041  -0.47945  -0.47494  -0.47396  -0.47126
 Alpha  occ. eigenvalues --   -0.46800  -0.46167  -0.45954  -0.45854  -0.45786
 Alpha  occ. eigenvalues --   -0.45527  -0.45090  -0.44924  -0.44800  -0.44741
 Alpha  occ. eigenvalues --   -0.44680  -0.44514  -0.44103  -0.43927  -0.43834
 Alpha  occ. eigenvalues --   -0.43559  -0.43412  -0.43309  -0.42949  -0.42657
 Alpha  occ. eigenvalues --   -0.42552  -0.42069  -0.41823  -0.41811  -0.41524
 Alpha  occ. eigenvalues --   -0.41472  -0.41274  -0.41180  -0.41114  -0.40690
 Alpha  occ. eigenvalues --   -0.40564  -0.40356  -0.40261  -0.40033  -0.40011
 Alpha  occ. eigenvalues --   -0.39635  -0.39483  -0.39373  -0.39254  -0.38998
 Alpha  occ. eigenvalues --   -0.38692  -0.38273  -0.38236  -0.38166  -0.37927
 Alpha  occ. eigenvalues --   -0.37675  -0.37616  -0.37456  -0.37285  -0.37032
 Alpha  occ. eigenvalues --   -0.36805  -0.36421  -0.36375  -0.36015  -0.35949
 Alpha  occ. eigenvalues --   -0.35731  -0.35509  -0.35002  -0.34663  -0.34269
 Alpha  occ. eigenvalues --   -0.34183  -0.34145  -0.33644  -0.33492  -0.33401
 Alpha  occ. eigenvalues --   -0.33324  -0.33103  -0.33070  -0.32348  -0.31820
 Alpha  occ. eigenvalues --   -0.31531  -0.31340  -0.30866  -0.30285  -0.29426
 Alpha  occ. eigenvalues --   -0.29388  -0.29081  -0.28433  -0.28111  -0.27084
 Alpha  occ. eigenvalues --   -0.26850  -0.26746  -0.25360  -0.24699  -0.21110
 Alpha  occ. eigenvalues --   -0.19462
 Alpha virt. eigenvalues --   -0.06629  -0.02782   0.00866   0.02041   0.02689
 Alpha virt. eigenvalues --    0.04046   0.04145   0.04833   0.05512   0.05985
 Alpha virt. eigenvalues --    0.06750   0.09140   0.09633   0.09689   0.10137

 Mulliken charges:
               1
     1  Mg   0.824890
     2  C    0.113410
     3  C   -0.216286
     4  C   -0.162791
     5  C   -0.200361
     6  N   -0.639612
     7  C    0.291056
     8  C   -0.182000
     9  C   -0.125110
    10  C    0.376197
    11  C   -0.335984
    12  C   -0.184013
    13  C   -0.221444
    14  C    0.583505
    15  O   -0.526815
    16  O   -0.446945
    17  N   -0.684288
    18  C    0.328517
    19  C   -0.065997
    20  C    0.084453
    21  C    0.254425
    22  C   -0.361664
    23  C   -0.091049
    24  C   -0.233368
    25  N   -0.684749
    26  C    0.315992
    27  C   -0.021474
    28  C    0.069487
    29  C    0.301613
    30  C   -0.342531
    31  C   -0.272581
    32  C   -0.328902
    33  N   -0.736852
    34  C    0.294806
    35  C    0.019991
    36  C   -0.058307
    37  C    0.332175
    38  C   -0.341008
    39  C    0.381072
    40  O   -0.435905
    41  C   -0.327573
    42  C    0.613429
    43  O   -0.482140
    44  O   -0.417469
    45  C   -0.089583
    46  C    0.019891
    47  C   -0.083621
    48  C    0.101521
    49  C   -0.373900
    50  C   -0.219140
    51  C   -0.191037
    52  C   -0.169765
    53  C   -0.064245
    54  C   -0.307947
    55  C   -0.149138
    56  C   -0.213638
    57  C   -0.172324
    58  C   -0.026731
    59  C   -0.315233
    60  C   -0.156302
    61  C   -0.184178
    62  C   -0.149977
    63  C   -0.086766
    64  C   -0.297558
    65  C   -0.304051
    66  H    0.066185
    67  H    0.094003
    68  H    0.083267
    69  H    0.098865
    70  H    0.105181
    71  H    0.110851
    72  H    0.116543
    73  H    0.114888
    74  H    0.115040
    75  H    0.131206
    76  H    0.119819
    77  H    0.142063
    78  H    0.130568
    79  H    0.105855
    80  H    0.093899
    81  H    0.087757
    82  H    0.090926
    83  H    0.100342
    84  H    0.087399
    85  H    0.112146
    86  H    0.092437
    87  H    0.118802
    88  H    0.098694
    89  H    0.113652
    90  H    0.118981
    91  H    0.115432
    92  H    0.132869
    93  H    0.145021
    94  H    0.117325
    95  H    0.130243
    96  H    0.143311
    97  H    0.145765
    98  H    0.125197
    99  H    0.086840
   100  H    0.126463
   101  H    0.080444
   102  H    0.126054
   103  H    0.117019
   104  H    0.125091
   105  H    0.089393
   106  H    0.101580
   107  H    0.093810
   108  H    0.099336
   109  H    0.085094
   110  H    0.107676
   111  H    0.090432
   112  H    0.114736
   113  H    0.088136
   114  H    0.087609
   115  H    0.088639
   116  H    0.089062
   117  H    0.094894
   118  H    0.050025
   119  H    0.062148
   120  H    0.097134
   121  H    0.086270
   122  H    0.115953
   123  H    0.109853
   124  H    0.062180
   125  H    0.087110
   126  H    0.098536
   127  H    0.093512
   128  H    0.073665
   129  H    0.078837
   130  H    0.096329
   131  H    0.079296
   132  H    0.093096
   133  H    0.087351
   134  H    0.108821
   135  H    0.110530
   136  H    0.064702
   137  H    0.123737
 Sum of Mulliken charges =  -0.00000

 Dipole moment (field-independent basis, Debye):
    X=              2.4479    Y=              0.8334    Z=              1.3182  Tot=              2.9025
 Quadrupole moment (field-independent basis, Debye-Ang):
   XX=           -352.5789   YY=           -392.8362   ZZ=           -397.0611
   XY=             -9.8103   XZ=             15.1774   YZ=             -6.5967

 Normal termination of Gaussian 16 at Fri Sep  6 01:48:08 2019.
