 Gaussian 16, Revision A.03,
 Gaussian 16:  ES64L-G16RevA.03 25-Dec-2016

 ----------------------------------------------------------------------
 # td=(NStates=1) iop(3/107=0140000000,3/108=0140000000) CAM-B3LYP/6-31
 G(d,p)
 ----------------------------------------------------------------------

 --
 TD
 --
 Symbolic Z-matrix:
 Charge =  0 Multiplicity = 1

                         Standard orientation:
 ---------------------------------------------------------------------
 Center     Atomic      Atomic             Coordinates (Angstroms)
 Number     Number       Type             X           Y           Z
 ---------------------------------------------------------------------
      1         12           0       -7.138019    0.625723    0.072775
      2          6           0       -4.868946   -2.029323    0.521682
      3          6           0       -4.742735    2.779217    1.021478
      4          6           0       -9.375428    3.089433   -0.353691
      5          6           0       -9.524671   -1.654244   -0.876594
      6          7           0       -5.081128    0.459235    0.631079
      7          6           0       -4.365678   -0.740160    0.774220
      8          6           0       -2.919029   -0.462982    1.190758
      9          6           0       -2.941012    1.065727    1.524709
     10          6           0       -4.364091    1.510186    1.080938
     11          6           0       -2.885211    1.312559    3.029501
     12          6           0       -1.856811   -0.737491   -0.027701
     13          6           0       -0.410270   -0.432278    0.372348
     14          6           0        0.594201   -0.666472   -0.686745
     15          8           0        0.272673   -1.032254   -1.824135
     16          8           0        1.857066   -0.427016   -0.232207
     17          7           0       -7.039853    2.646576    0.233426
     18          6           0       -5.957192    3.422900    0.654032
     19          6           0       -6.270043    4.852715    0.736947
     20          6           0       -7.555066    4.875854    0.301933
     21          6           0       -8.084483    3.511718    0.079167
     22          6           0       -5.382841    5.845361    1.136138
     23          6           0       -8.461925    6.066258    0.165881
     24          6           0       -8.286695    7.285709    0.750726
     25          7           0       -9.077015    0.764889   -0.503509
     26          6           0       -9.855362    1.911032   -0.642286
     27          6           0      -11.184907    1.542955   -0.967859
     28          6           0      -11.231550    0.186345   -1.116317
     29          6           0       -9.994901   -0.293902   -0.868105
     30          6           0      -12.333344    2.522148   -1.172939
     31          6           0      -12.301139   -0.575662   -1.799467
     32          6           0      -12.060396   -1.187544   -3.175351
     33          7           0       -7.239582   -1.367800   -0.262086
     34          6           0       -8.311641   -2.134543   -0.496970
     35          6           0       -7.845908   -3.648284   -0.456048
     36          6           0       -6.489947   -3.560985   -0.181957
     37          6           0       -6.220298   -2.213721    0.183744
     38          6           0       -8.712338   -4.751185   -0.781879
     39          6           0       -5.405323   -4.364130    0.153479
     40          8           0       -5.341871   -5.590907    0.121577
     41          6           0       -4.182817   -3.308793    0.533391
     42          6           0       -3.691816   -3.694939    1.897538
     43          8           0       -3.958079   -3.076589    2.977627
     44          8           0       -2.783056   -4.788716    1.784299
     45          6           0       -2.378891   -5.147777    3.113066
     46          6           0        2.843214   -0.897159   -1.189034
     47          6           0        4.075531   -0.527508   -0.564434
     48          6           0        5.144504    0.249416   -0.878357
     49          6           0        5.157789    1.136470   -2.070660
     50          6           0        6.444784    0.289755   -0.165629
     51          6           0        7.554849   -0.279659   -0.910448
     52          6           0        8.932164   -0.212440   -0.146338
     53          6           0       10.056972   -0.758779   -0.885331
     54          6           0        9.985430   -2.215812   -1.192844
     55          6           0       11.402688   -0.454456   -0.039938
     56          6           0       12.690067   -0.704291   -0.721413
     57          6           0       13.956418   -0.236675    0.208164
     58          6           0       15.322723   -0.170660   -0.480397
     59          6           0       15.751657   -1.670473   -0.903077
     60          6           0       16.301661    0.477740    0.456450
     61          6           0       17.792502    0.557002   -0.039757
     62          6           0       18.677452    1.372375    0.792627
     63          6           0       20.101912    1.491467    0.170297
     64          6           0       20.225141    2.591703   -1.005598
     65          6           0       21.120981    1.910705    1.260360
     66          1           0       -3.849574    3.452650    1.313232
     67          1           0      -10.069849    3.931857   -0.763266
     68          1           0      -10.179352   -2.421429   -1.158349
     69          1           0       -2.655638   -1.117872    2.067562
     70          1           0       -1.894185    1.525783    1.161064
     71          1           0       -1.705260    1.132064    3.351776
     72          1           0       -3.233353    2.382435    3.332798
     73          1           0       -3.777378    0.718163    3.592569
     74          1           0       -1.930970   -1.549516   -0.558634
     75          1           0       -2.211551    0.086092   -0.810101
     76          1           0       -0.244365    0.511002    0.917502
     77          1           0       -0.124522   -0.904420    1.328865
     78          1           0       -5.404976    6.759451    0.432151
     79          1           0       -5.693609    6.347575    2.160478
     80          1           0       -4.351324    5.769071    1.153859
     81          1           0       -9.304930    6.012263   -0.549900
     82          1           0       -8.878755    8.098677    0.725768
     83          1           0       -7.448598    7.764371    1.415125
     84          1           0      -12.322022    3.110070   -2.121958
     85          1           0      -13.311892    2.141116   -1.087419
     86          1           0      -12.354565    2.932219   -0.192918
     87          1           0      -12.631829   -1.511266   -1.154790
     88          1           0      -13.252148   -0.103977   -1.672540
     89          1           0      -12.819285   -2.032843   -3.370363
     90          1           0      -12.029719   -0.245527   -3.944695
     91          1           0      -10.962844   -1.569786   -3.282961
     92          1           0       -9.264276   -4.668436   -1.811327
     93          1           0       -8.258604   -5.722386   -0.882027
     94          1           0       -9.525013   -4.802606    0.017268
     95          1           0       -3.333298   -3.501065   -0.163441
     96          1           0       -1.901490   -4.203267    3.543987
     97          1           0       -3.051894   -5.610849    3.857025
     98          1           0       -1.435819   -6.000182    3.039635
     99          1           0        2.562869   -2.145314   -1.299179
    100          1           0        2.792162   -0.386191   -2.196435
    101          1           0        4.234292   -1.295722    0.127811
    102          1           0        4.194016    1.265879   -2.617655
    103          1           0        5.379869    2.318299   -1.706575
    104          1           0        5.833904    0.670775   -2.730213
    105          1           0        6.558719    1.274356    0.159705
    106          1           0        6.289446   -0.397005    0.855371
    107          1           0        7.262710   -1.345721   -1.269187
    108          1           0        7.743669    0.301913   -1.858681
    109          1           0        9.049370    0.766721   -0.069683
    110          1           0        8.867031   -0.651856    0.773562
    111          1           0       10.451694   -0.263912   -1.850445
    112          1           0        9.107233   -2.487230   -1.792799
    113          1           0       10.824359   -2.599470   -1.575066
    114          1           0       10.034431   -2.877092   -0.300431
    115          1           0       11.302961    0.408102    0.381504
    116          1           0       11.366397   -1.095552    0.918500
    117          1           0       12.705837   -1.574723   -0.998587
    118          1           0       12.921213   -0.043202   -1.596893
    119          1           0       13.687946    0.636667    0.771665
    120          1           0       14.115100   -1.007636    0.966592
    121          1           0       15.320455    0.282897   -1.320179
    122          1           0       15.697745   -2.459911   -0.167910
    123          1           0       15.200135   -1.801348   -1.749671
    124          1           0       16.824558   -1.723401   -1.333156
    125          1           0       15.986367    1.442391    0.811064
    126          1           0       16.532074   -0.039925    1.369449
    127          1           0       18.220160   -0.439700   -0.040379
    128          1           0       17.737868    0.879830   -1.174501
    129          1           0       18.594911    2.485884    0.902388
    130          1           0       18.855897    1.094646    1.761674
    131          1           0       20.527932    0.640106   -0.321977
    132          1           0       19.948650    3.700619   -0.680100
    133          1           0       21.249519    2.462036   -1.392868
    134          1           0       19.361815    2.397990   -1.947857
    135          1           0       21.594729    1.161744    1.930941
    136          1           0       22.102072    2.420243    0.617655
    137          1           0       20.638583    2.862691    1.699141
 ---------------------------------------------------------------------

 SCF Done:  E(RCAM-B3LYP) =  -2933.42574275     A.U. after   16 cycles

 Excitation energies and oscillator strengths:

 Excited State   1:      Singlet-A      2.0089 eV  617.18 nm  f=0.2339  <S**2>=0.000
     240 -> 243       -0.24537
     241 -> 242        0.65322
 This state for optimization and/or second-order correction.
 Total Energy, E(TD-HF/TD-DFT) =  -2933.35191725
 Copying the excited state density for this state as the 1-particle RhoCI density.

 The electronic state is 1-A.
 Alpha  occ. eigenvalues --  -46.79346 -19.22967 -19.22282 -19.17700 -19.16966
 Alpha  occ. eigenvalues --  -19.16706 -14.37674 -14.35735 -14.35328 -14.34255
 Alpha  occ. eigenvalues --  -10.35530 -10.34485 -10.31028 -10.28547 -10.28103
 Alpha  occ. eigenvalues --  -10.26938 -10.25593 -10.25462 -10.25454 -10.25362
 Alpha  occ. eigenvalues --  -10.25266 -10.24958 -10.24881 -10.24306 -10.24171
 Alpha  occ. eigenvalues --  -10.23816 -10.23788 -10.23409 -10.23357 -10.23331
 Alpha  occ. eigenvalues --  -10.23194 -10.22967 -10.22934 -10.22898 -10.22818
 Alpha  occ. eigenvalues --  -10.22648 -10.22580 -10.22506 -10.22503 -10.22422
 Alpha  occ. eigenvalues --  -10.22164 -10.22129 -10.22121 -10.22108 -10.21985
 Alpha  occ. eigenvalues --  -10.21908 -10.21838 -10.21810 -10.21638 -10.21533
 Alpha  occ. eigenvalues --  -10.21526 -10.21453 -10.21174 -10.21081 -10.20601
 Alpha  occ. eigenvalues --  -10.20563 -10.20507 -10.20305 -10.20071 -10.19941
 Alpha  occ. eigenvalues --  -10.19634 -10.19498 -10.19431 -10.19317 -10.18911
 Alpha  occ. eigenvalues --   -3.08019  -1.82956  -1.82478  -1.82442  -1.12419
 Alpha  occ. eigenvalues --   -1.10795  -1.06049  -1.03726  -1.02699  -0.99023
 Alpha  occ. eigenvalues --   -0.98064  -0.97472  -0.96373  -0.88970  -0.87438
 Alpha  occ. eigenvalues --   -0.85785  -0.85012  -0.84773  -0.84218  -0.83810
 Alpha  occ. eigenvalues --   -0.83360  -0.83205  -0.82648  -0.82125  -0.81553
 Alpha  occ. eigenvalues --   -0.80310  -0.79520  -0.79151  -0.78575  -0.77945
 Alpha  occ. eigenvalues --   -0.76924  -0.76448  -0.75845  -0.75705  -0.73792
 Alpha  occ. eigenvalues --   -0.73033  -0.72889  -0.72653  -0.70980  -0.70813
 Alpha  occ. eigenvalues --   -0.70339  -0.70034  -0.68832  -0.68267  -0.67781
 Alpha  occ. eigenvalues --   -0.66749  -0.66276  -0.65176  -0.64898  -0.64662
 Alpha  occ. eigenvalues --   -0.63089  -0.62677  -0.62039  -0.61139  -0.60456
 Alpha  occ. eigenvalues --   -0.60372  -0.59564  -0.59523  -0.58890  -0.58032
 Alpha  occ. eigenvalues --   -0.57487  -0.57197  -0.56740  -0.55772  -0.55475
 Alpha  occ. eigenvalues --   -0.54675  -0.53943  -0.53819  -0.53225  -0.52748
 Alpha  occ. eigenvalues --   -0.52592  -0.52217  -0.51969  -0.51399  -0.51024
 Alpha  occ. eigenvalues --   -0.50562  -0.50230  -0.49972  -0.49938  -0.49415
 Alpha  occ. eigenvalues --   -0.48890  -0.48763  -0.48753  -0.48437  -0.48161
 Alpha  occ. eigenvalues --   -0.48040  -0.47560  -0.47236  -0.47097  -0.46882
 Alpha  occ. eigenvalues --   -0.46640  -0.46387  -0.46324  -0.46128  -0.45771
 Alpha  occ. eigenvalues --   -0.45576  -0.45370  -0.45177  -0.44896  -0.44788
 Alpha  occ. eigenvalues --   -0.44627  -0.44387  -0.44016  -0.43577  -0.43443
 Alpha  occ. eigenvalues --   -0.43423  -0.42987  -0.42868  -0.42655  -0.42423
 Alpha  occ. eigenvalues --   -0.42278  -0.42037  -0.41919  -0.41738  -0.41569
 Alpha  occ. eigenvalues --   -0.41366  -0.41214  -0.41039  -0.40933  -0.40722
 Alpha  occ. eigenvalues --   -0.40637  -0.40357  -0.40212  -0.39979  -0.39837
 Alpha  occ. eigenvalues --   -0.39814  -0.39361  -0.39289  -0.39124  -0.38765
 Alpha  occ. eigenvalues --   -0.38553  -0.38105  -0.37836  -0.37803  -0.37669
 Alpha  occ. eigenvalues --   -0.37501  -0.37444  -0.37165  -0.37066  -0.36734
 Alpha  occ. eigenvalues --   -0.36538  -0.36511  -0.36342  -0.36199  -0.35509
 Alpha  occ. eigenvalues --   -0.35070  -0.34803  -0.34773  -0.34551  -0.34491
 Alpha  occ. eigenvalues --   -0.34213  -0.34178  -0.33969  -0.33775  -0.33637
 Alpha  occ. eigenvalues --   -0.33495  -0.33356  -0.32955  -0.32726  -0.32686
 Alpha  occ. eigenvalues --   -0.32280  -0.32016  -0.31541  -0.30901  -0.30703
 Alpha  occ. eigenvalues --   -0.30652  -0.29854  -0.29622  -0.28803  -0.27615
 Alpha  occ. eigenvalues --   -0.27076  -0.27030  -0.25502  -0.24983  -0.21840
 Alpha  occ. eigenvalues --   -0.19865
 Alpha virt. eigenvalues --   -0.07050  -0.04535  -0.01238   0.01638   0.02435
 Alpha virt. eigenvalues --    0.02752   0.03417   0.04854   0.05091   0.05415
 Alpha virt. eigenvalues --    0.06193   0.08357   0.09128   0.09746   0.09948

 Mulliken charges:
               1
     1  Mg   0.802175
     2  C    0.086300
     3  C   -0.200949
     4  C   -0.210477
     5  C   -0.184594
     6  N   -0.645157
     7  C    0.298624
     8  C   -0.156663
     9  C   -0.138902
    10  C    0.363695
    11  C   -0.288970
    12  C   -0.155319
    13  C   -0.280749
    14  C    0.636962
    15  O   -0.485669
    16  O   -0.464185
    17  N   -0.696137
    18  C    0.265485
    19  C    0.141835
    20  C   -0.017443
    21  C    0.312977
    22  C   -0.422055
    23  C   -0.090215
    24  C   -0.242551
    25  N   -0.714158
    26  C    0.368921
    27  C    0.001122
    28  C    0.064408
    29  C    0.274309
    30  C   -0.380790
    31  C   -0.234912
    32  C   -0.288135
    33  N   -0.683204
    34  C    0.318143
    35  C    0.036773
    36  C    0.057869
    37  C    0.253827
    38  C   -0.406384
    39  C    0.356841
    40  O   -0.458893
    41  C   -0.355593
    42  C    0.636271
    43  O   -0.484095
    44  O   -0.448823
    45  C   -0.075306
    46  C   -0.002689
    47  C   -0.100167
    48  C    0.114181
    49  C   -0.357612
    50  C   -0.197264
    51  C   -0.194687
    52  C   -0.141975
    53  C   -0.068596
    54  C   -0.307711
    55  C   -0.178786
    56  C   -0.161715
    57  C   -0.186857
    58  C   -0.047188
    59  C   -0.334893
    60  C   -0.173044
    61  C   -0.183483
    62  C   -0.153440
    63  C   -0.068163
    64  C   -0.288912
    65  C   -0.299397
    66  H    0.074405
    67  H    0.080861
    68  H    0.074847
    69  H    0.124081
    70  H    0.095270
    71  H    0.075688
    72  H    0.102330
    73  H    0.110482
    74  H    0.122200
    75  H    0.099789
    76  H    0.129122
    77  H    0.132416
    78  H    0.116743
    79  H    0.113820
    80  H    0.127896
    81  H    0.095496
    82  H    0.104952
    83  H    0.084100
    84  H    0.127262
    85  H    0.117271
    86  H    0.134134
    87  H    0.073624
    88  H    0.103777
    89  H    0.106796
    90  H    0.087139
    91  H    0.107060
    92  H    0.119800
    93  H    0.152333
    94  H    0.132032
    95  H    0.168443
    96  H    0.121832
    97  H    0.139721
    98  H    0.080676
    99  H    0.098693
   100  H    0.114747
   101  H    0.081501
   102  H    0.112499
   103  H    0.083627
   104  H    0.138644
   105  H    0.109771
   106  H    0.069721
   107  H    0.089572
   108  H    0.092300
   109  H    0.103142
   110  H    0.101927
   111  H    0.075827
   112  H    0.098499
   113  H    0.108407
   114  H    0.086616
   115  H    0.089067
   116  H    0.064176
   117  H    0.101337
   118  H    0.079284
   119  H    0.089652
   120  H    0.091887
   121  H    0.088899
   122  H    0.108532
   123  H    0.114377
   124  H    0.085139
   125  H    0.089101
   126  H    0.090199
   127  H    0.103415
   128  H    0.072468
   129  H    0.085555
   130  H    0.104473
   131  H    0.090162
   132  H    0.087759
   133  H    0.110391
   134  H    0.058023
   135  H    0.111883
   136  H    0.053881
   137  H    0.094637
 Sum of Mulliken charges =  -0.00000

 Dipole moment (field-independent basis, Debye):
    X=              1.4316    Y=              3.1569    Z=              0.4552  Tot=              3.4961
 Quadrupole moment (field-independent basis, Debye-Ang):
   XX=           -332.8407   YY=           -393.2623   ZZ=           -401.0262
   XY=            -18.5760   XZ=             12.6011   YZ=              0.3843

 Normal termination of Gaussian 16 at Wed Sep 18 08:33:38 2019.
