 Gaussian 16, Revision A.03,
 Gaussian 16:  ES64L-G16RevA.03 25-Dec-2016

 ----------------------------------------------------------------------
 # td=(NStates=1) iop(3/107=0140000000,3/108=0140000000) CAM-B3LYP/6-31
 G(d,p)
 ----------------------------------------------------------------------

 --
 TD
 --
 Symbolic Z-matrix:
 Charge =  0 Multiplicity = 1

                         Standard orientation:
 ---------------------------------------------------------------------
 Center     Atomic      Atomic             Coordinates (Angstroms)
 Number     Number       Type             X           Y           Z
 ---------------------------------------------------------------------
      1         12           0       -7.116967    0.601061    0.219284
      2          6           0       -4.831549   -1.976868    0.479062
      3          6           0       -4.786749    2.806243    1.258365
      4          6           0       -9.314633    3.143035   -0.474244
      5          6           0       -9.499929   -1.600356   -0.831145
      6          7           0       -5.132013    0.453984    0.699851
      7          6           0       -4.270312   -0.746466    0.747785
      8          6           0       -2.881651   -0.483826    1.063772
      9          6           0       -3.030976    1.029721    1.721693
     10          6           0       -4.352022    1.487124    1.220925
     11          6           0       -3.029748    1.020183    3.287612
     12          6           0       -1.987902   -0.550866   -0.019465
     13          6           0       -0.491169   -0.370250    0.420234
     14          6           0        0.444101   -0.606458   -0.820813
     15          8           0        0.122905   -0.857370   -1.910418
     16          8           0        1.715997   -0.419162   -0.360587
     17          7           0       -7.055959    2.607983    0.435285
     18          6           0       -5.995295    3.414402    0.855712
     19          6           0       -6.336894    4.815599    0.919456
     20          6           0       -7.588938    4.908824    0.384939
     21          6           0       -8.068789    3.556262    0.044990
     22          6           0       -5.371041    5.919089    1.389154
     23          6           0       -8.394885    5.986196    0.101949
     24          6           0       -8.344564    7.288262    0.625539
     25          7           0       -9.105973    0.702543   -0.442359
     26          6           0       -9.895612    1.800547   -0.639194
     27          6           0      -11.242505    1.458063   -1.082846
     28          6           0      -11.215031    0.087226   -1.290657
     29          6           0       -9.877435   -0.334569   -0.727764
     30          6           0      -12.279462    2.629363   -1.586963
     31          6           0      -12.295844   -0.797405   -1.794383
     32          6           0      -12.089663   -1.175308   -3.350191
     33          7           0       -7.228016   -1.433279   -0.069131
     34          6           0       -8.259513   -2.143474   -0.507324
     35          6           0       -7.938243   -3.521857   -0.447930
     36          6           0       -6.530871   -3.499134   -0.030446
     37          6           0       -6.148904   -2.208506    0.118652
     38          6           0       -8.682765   -4.732423   -0.847404
     39          6           0       -5.312390   -4.378292    0.240487
     40          8           0       -5.344617   -5.562602    0.147654
     41          6           0       -4.191642   -3.298221    0.572856
     42          6           0       -3.533481   -3.713155    1.891217
     43          8           0       -3.710714   -3.160430    2.869438
     44          8           0       -2.843538   -4.868100    1.724373
     45          6           0       -2.170972   -5.279211    2.979193
     46          6           0        2.814380   -0.520215   -1.433345
     47          6           0        4.081633   -0.431412   -0.667882
     48          6           0        5.132266    0.398689   -1.037043
     49          6           0        5.105067    1.332875   -2.153063
     50          6           0        6.422654    0.346828   -0.153984
     51          6           0        7.575472   -0.338974   -0.846154
     52          6           0        8.848206   -0.249744    0.000852
     53          6           0       10.155458   -0.625976   -0.848658
     54          6           0       10.092461   -2.059712   -1.344008
     55          6           0       11.348654   -0.364788    0.089860
     56          6           0       12.710426   -0.509767   -0.573680
     57          6           0       13.881735   -0.153053    0.186848
     58          6           0       15.354322   -0.307697   -0.446153
     59          6           0       15.587336   -1.828910   -0.756493
     60          6           0       16.412773    0.322024    0.435620
     61          6           0       17.801813    0.578293   -0.218656
     62          6           0       18.802288    1.299388    0.696820
     63          6           0       20.309771    1.468280    0.249204
     64          6           0       20.326092    2.228306   -1.117417
     65          6           0       21.213396    2.102837    1.261444
     66          1           0       -4.301426    3.560968    1.801741
     67          1           0       -9.950984    3.993777   -0.509756
     68          1           0      -10.216145   -2.286807   -1.155366
     69          1           0       -2.668026   -1.298936    1.948440
     70          1           0       -2.142864    1.714341    1.453721
     71          1           0       -1.907936    0.808639    3.534494
     72          1           0       -3.144868    2.024554    3.781353
     73          1           0       -3.585899    0.350744    3.644281
     74          1           0       -1.957778   -1.592368   -0.402594
     75          1           0       -2.155175    0.351002   -0.717043
     76          1           0       -0.239273    0.460917    0.884058
     77          1           0       -0.240186   -1.341220    0.888531
     78          1           0       -5.101258    6.787539    0.571976
     79          1           0       -5.765452    6.561029    2.386557
     80          1           0       -4.306090    5.376149    1.484264
     81          1           0       -9.251160    5.915071   -0.825486
     82          1           0       -9.137549    8.061284    0.362241
     83          1           0       -7.749622    7.616960    1.315016
     84          1           0      -11.784298    3.234694   -2.213031
     85          1           0      -13.262278    2.097557   -1.870183
     86          1           0      -12.439696    3.018676   -0.530147
     87          1           0      -12.191397   -1.818625   -1.170485
     88          1           0      -13.157258   -0.367730   -1.552739
     89          1           0      -12.738351   -2.011872   -3.563582
     90          1           0      -12.007997   -0.498798   -4.095887
     91          1           0      -11.014892   -1.670161   -3.356664
     92          1           0       -9.036606   -4.783695   -1.927101
     93          1           0       -7.984387   -5.603375   -0.526293
     94          1           0       -9.546580   -4.910842   -0.275024
     95          1           0       -3.354742   -3.462953   -0.213457
     96          1           0       -1.821128   -4.483099    3.345330
     97          1           0       -2.950370   -5.735830    3.581854
     98          1           0       -1.611582   -6.190883    2.794711
     99          1           0        2.617904   -1.553290   -1.687228
    100          1           0        2.322562    0.143707   -2.191260
    101          1           0        4.153446   -1.211848    0.076177
    102          1           0        4.018989    1.385754   -2.396572
    103          1           0        5.428370    2.416587   -1.926799
    104          1           0        5.848235    1.066406   -2.996047
    105          1           0        6.671946    1.295492   -0.144544
    106          1           0        6.108759    0.007882    0.985899
    107          1           0        7.188443   -1.410716   -1.028913
    108          1           0        7.681102    0.189341   -1.919498
    109          1           0        8.810471    0.772356    0.296596
    110          1           0        8.542364   -0.951283    0.796162
    111          1           0        9.939070    0.038008   -1.666307
    112          1           0        9.053117   -2.302960   -1.957651
    113          1           0       10.961179   -2.231315   -2.390374
    114          1           0        9.945281   -2.867782   -0.615082
    115          1           0       11.242730    0.815507    0.330352
    116          1           0       11.367685   -0.962649    1.132693
    117          1           0       12.833733   -1.565879   -0.759552
    118          1           0       12.532104    0.116897   -1.467019
    119          1           0       13.889233    1.012873    0.255501
    120          1           0       14.010723   -0.686314    1.173854
    121          1           0       15.584567    0.036394   -1.419737
    122          1           0       15.380085   -2.566775    0.297900
    123          1           0       14.799133   -2.225395   -1.610606
    124          1           0       16.712247   -2.025970   -1.049658
    125          1           0       16.050552    1.128586    0.945404
    126          1           0       16.521666   -0.268416    1.285855
    127          1           0       18.410636   -0.378818   -0.447823
    128          1           0       17.618541    1.182978   -1.007020
    129          1           0       18.271457    2.226325    0.914974
    130          1           0       18.930870    0.653722    1.609528
    131          1           0       20.731600    0.415524   -0.124030
    132          1           0       20.206035    3.379589   -0.849819
    133          1           0       21.216124    2.003905   -1.754973
    134          1           0       19.393496    1.980822   -1.810301
    135          1           0       21.377846    1.353140    2.057948
    136          1           0       22.132520    2.373529    0.653285
    137          1           0       20.681946    3.022748    1.592735
 ---------------------------------------------------------------------

 SCF Done:  E(RCAM-B3LYP) =  -2933.40950442     A.U. after   16 cycles

 Excitation energies and oscillator strengths:

 Excited State   1:      Singlet-A      2.0352 eV  609.20 nm  f=0.2801  <S**2>=0.000
     240 -> 243        0.21428
     241 -> 242        0.66440
 This state for optimization and/or second-order correction.
 Total Energy, E(TD-HF/TD-DFT) =  -2933.33471213
 Copying the excited state density for this state as the 1-particle RhoCI density.

 The electronic state is 1-A.
 Alpha  occ. eigenvalues --  -46.78900 -19.21196 -19.19824 -19.17070 -19.16777
 Alpha  occ. eigenvalues --  -19.15760 -14.37223 -14.35072 -14.34871 -14.33102
 Alpha  occ. eigenvalues --  -10.33742 -10.33300 -10.29872 -10.27415 -10.26338
 Alpha  occ. eigenvalues --  -10.26022 -10.25590 -10.25462 -10.25459 -10.25401
 Alpha  occ. eigenvalues --  -10.25342 -10.24400 -10.24251 -10.24016 -10.23988
 Alpha  occ. eigenvalues --  -10.23916 -10.23536 -10.23451 -10.23390 -10.23266
 Alpha  occ. eigenvalues --  -10.23130 -10.23042 -10.22995 -10.22869 -10.22863
 Alpha  occ. eigenvalues --  -10.22782 -10.22716 -10.22710 -10.22625 -10.22593
 Alpha  occ. eigenvalues --  -10.22592 -10.22552 -10.22297 -10.22155 -10.21923
 Alpha  occ. eigenvalues --  -10.21883 -10.21761 -10.21753 -10.21746 -10.21733
 Alpha  occ. eigenvalues --  -10.21724 -10.21687 -10.21506 -10.21325 -10.21323
 Alpha  occ. eigenvalues --  -10.21108 -10.21088 -10.20890 -10.20847 -10.20668
 Alpha  occ. eigenvalues --  -10.20609 -10.20466 -10.20087 -10.19219 -10.18860
 Alpha  occ. eigenvalues --   -3.07543  -1.82488  -1.82027  -1.81938  -1.14919
 Alpha  occ. eigenvalues --   -1.12489  -1.06980  -1.06106  -1.04198  -0.99300
 Alpha  occ. eigenvalues --   -0.98282  -0.96547  -0.95471  -0.87778  -0.86516
 Alpha  occ. eigenvalues --   -0.85497  -0.85314  -0.84334  -0.84142  -0.83430
 Alpha  occ. eigenvalues --   -0.82947  -0.82630  -0.81886  -0.81162  -0.80604
 Alpha  occ. eigenvalues --   -0.79773  -0.79178  -0.78316  -0.78054  -0.77015
 Alpha  occ. eigenvalues --   -0.76847  -0.76343  -0.75760  -0.75333  -0.73318
 Alpha  occ. eigenvalues --   -0.72651  -0.72127  -0.71807  -0.71064  -0.70279
 Alpha  occ. eigenvalues --   -0.69783  -0.69438  -0.68916  -0.68345  -0.67712
 Alpha  occ. eigenvalues --   -0.67154  -0.66465  -0.65534  -0.64182  -0.63838
 Alpha  occ. eigenvalues --   -0.62645  -0.62309  -0.60931  -0.60027  -0.59676
 Alpha  occ. eigenvalues --   -0.58884  -0.58838  -0.58015  -0.57986  -0.57306
 Alpha  occ. eigenvalues --   -0.56484  -0.56325  -0.56159  -0.55178  -0.54799
 Alpha  occ. eigenvalues --   -0.54504  -0.53817  -0.53730  -0.53380  -0.52972
 Alpha  occ. eigenvalues --   -0.51736  -0.51552  -0.51336  -0.51225  -0.50807
 Alpha  occ. eigenvalues --   -0.50656  -0.50417  -0.50267  -0.50105  -0.49348
 Alpha  occ. eigenvalues --   -0.49067  -0.48166  -0.48123  -0.47988  -0.47919
 Alpha  occ. eigenvalues --   -0.47733  -0.47637  -0.47511  -0.47258  -0.46877
 Alpha  occ. eigenvalues --   -0.46745  -0.46109  -0.45965  -0.45587  -0.45447
 Alpha  occ. eigenvalues --   -0.45380  -0.45354  -0.45182  -0.45138  -0.44717
 Alpha  occ. eigenvalues --   -0.44647  -0.44194  -0.44107  -0.44035  -0.43740
 Alpha  occ. eigenvalues --   -0.43527  -0.43146  -0.42773  -0.42515  -0.42365
 Alpha  occ. eigenvalues --   -0.42209  -0.42058  -0.41885  -0.41797  -0.41733
 Alpha  occ. eigenvalues --   -0.41446  -0.41171  -0.41085  -0.40807  -0.40652
 Alpha  occ. eigenvalues --   -0.40478  -0.40389  -0.40137  -0.40044  -0.39580
 Alpha  occ. eigenvalues --   -0.39561  -0.39359  -0.39315  -0.39170  -0.38689
 Alpha  occ. eigenvalues --   -0.38617  -0.38505  -0.38288  -0.38113  -0.37829
 Alpha  occ. eigenvalues --   -0.37771  -0.37472  -0.37367  -0.36967  -0.36808
 Alpha  occ. eigenvalues --   -0.36689  -0.36597  -0.36228  -0.36096  -0.35654
 Alpha  occ. eigenvalues --   -0.35574  -0.35453  -0.34946  -0.34535  -0.34250
 Alpha  occ. eigenvalues --   -0.34225  -0.33995  -0.33721  -0.33691  -0.33355
 Alpha  occ. eigenvalues --   -0.33076  -0.32960  -0.32844  -0.32636  -0.32476
 Alpha  occ. eigenvalues --   -0.32343  -0.32243  -0.32085  -0.30955  -0.30313
 Alpha  occ. eigenvalues --   -0.30010  -0.29739  -0.29128  -0.27841  -0.26646
 Alpha  occ. eigenvalues --   -0.26074  -0.25669  -0.24625  -0.24435  -0.21169
 Alpha  occ. eigenvalues --   -0.19832
 Alpha virt. eigenvalues --   -0.06984  -0.03331   0.00651   0.02073   0.02432
 Alpha virt. eigenvalues --    0.04710   0.05012   0.05622   0.06415   0.06782
 Alpha virt. eigenvalues --    0.07185   0.08320   0.08838   0.09070   0.09571

 Mulliken charges:
               1
     1  Mg   0.795966
     2  C    0.130306
     3  C   -0.208874
     4  C   -0.193792
     5  C   -0.143871
     6  N   -0.640231
     7  C    0.282873
     8  C   -0.152855
     9  C   -0.175437
    10  C    0.384181
    11  C   -0.292435
    12  C   -0.140977
    13  C   -0.254029
    14  C    0.572426
    15  O   -0.440303
    16  O   -0.512562
    17  N   -0.697059
    18  C    0.293546
    19  C    0.066386
    20  C    0.089854
    21  C    0.279803
    22  C   -0.363378
    23  C   -0.144091
    24  C   -0.231812
    25  N   -0.652510
    26  C    0.296005
    27  C   -0.040217
    28  C    0.027418
    29  C    0.329712
    30  C   -0.343653
    31  C   -0.238482
    32  C   -0.316252
    33  N   -0.758409
    34  C    0.302830
    35  C    0.000738
    36  C   -0.045561
    37  C    0.313169
    38  C   -0.400457
    39  C    0.379908
    40  O   -0.434444
    41  C   -0.375539
    42  C    0.608740
    43  O   -0.421104
    44  O   -0.471245
    45  C   -0.079622
    46  C   -0.017630
    47  C   -0.105511
    48  C    0.108596
    49  C   -0.367084
    50  C   -0.207043
    51  C   -0.183393
    52  C   -0.168164
    53  C   -0.036875
    54  C   -0.288959
    55  C   -0.155600
    56  C   -0.158979
    57  C   -0.160533
    58  C   -0.058461
    59  C   -0.286787
    60  C   -0.173858
    61  C   -0.180011
    62  C   -0.172532
    63  C   -0.049350
    64  C   -0.305508
    65  C   -0.293560
    66  H    0.058976
    67  H    0.071896
    68  H    0.070767
    69  H    0.104469
    70  H    0.092980
    71  H    0.089264
    72  H    0.108477
    73  H    0.140575
    74  H    0.111264
    75  H    0.113079
    76  H    0.127935
    77  H    0.128082
    78  H    0.113585
    79  H    0.109255
    80  H    0.107400
    81  H    0.081529
    82  H    0.095422
    83  H    0.095194
    84  H    0.143038
    85  H    0.111396
    86  H    0.129564
    87  H    0.093204
    88  H    0.112176
    89  H    0.112149
    90  H    0.130223
    91  H    0.092138
    92  H    0.115169
    93  H    0.138966
    94  H    0.122814
    95  H    0.148466
    96  H    0.133214
    97  H    0.131604
    98  H    0.130489
    99  H    0.132942
   100  H    0.140377
   101  H    0.103878
   102  H    0.114729
   103  H    0.109677
   104  H    0.123547
   105  H    0.107485
   106  H    0.080358
   107  H    0.089864
   108  H    0.063854
   109  H    0.099452
   110  H    0.098653
   111  H    0.098995
   112  H    0.077475
   113  H    0.058542
   114  H    0.117842
   115  H    0.061682
   116  H    0.075690
   117  H    0.102435
   118  H    0.090248
   119  H    0.070363
   120  H    0.089355
   121  H    0.091532
   122  H    0.044393
   123  H    0.088008
   124  H    0.092982
   125  H    0.092638
   126  H    0.092311
   127  H    0.084098
   128  H    0.106443
   129  H    0.085520
   130  H    0.080909
   131  H    0.062795
   132  H    0.077792
   133  H    0.100644
   134  H    0.086594
   135  H    0.108610
   136  H    0.103273
   137  H    0.105838
 Sum of Mulliken charges =  -0.00000

 Dipole moment (field-independent basis, Debye):
    X=              2.5897    Y=              4.5438    Z=              0.9632  Tot=              5.3180
 Quadrupole moment (field-independent basis, Debye-Ang):
   XX=           -350.5139   YY=           -393.9405   ZZ=           -395.3435
   XY=            -19.0177   XZ=              9.2532   YZ=             -6.2993

 Normal termination of Gaussian 16 at Fri Sep  6 14:17:15 2019.
