 Gaussian 09, Revision D.01,
 Gaussian 09:  ES64L-G09RevD.01 24-Apr-2013

 -------------------------------------
 # td=(NStates=1) CAM-B3LYP/6-31G(d,p)
 -------------------------------------

 --
 TD
 --
 Symbolic Z-matrix:
 Charge =  0 Multiplicity = 1

                         Standard orientation:
 ---------------------------------------------------------------------
 Center     Atomic      Atomic             Coordinates (Angstroms)
 Number     Number       Type             X           Y           Z
 ---------------------------------------------------------------------
      1         12           0       -7.078319    0.622501    0.016024
      2          6           0       -4.860603   -1.936334    0.593212
      3          6           0       -4.804042    2.779982    1.216844
      4          6           0       -9.337210    3.139010   -0.521615
      5          6           0       -9.530800   -1.748780   -0.881585
      6          7           0       -5.145792    0.465797    0.882296
      7          6           0       -4.454096   -0.586531    0.969585
      8          6           0       -2.955154   -0.387257    1.337061
      9          6           0       -3.011174    1.070745    1.743105
     10          6           0       -4.432804    1.555006    1.221946
     11          6           0       -2.754876    1.356931    3.241714
     12          6           0       -1.991349   -0.636486    0.172302
     13          6           0       -0.576260   -0.483206    0.566936
     14          6           0        0.417485   -0.702240   -0.550165
     15          8           0        0.123482   -0.993388   -1.625109
     16          8           0        1.673788   -0.464038   -0.102524
     17          7           0       -7.048016    2.583718    0.293973
     18          6           0       -6.071127    3.358669    0.700403
     19          6           0       -6.452717    4.761569    0.618289
     20          6           0       -7.728928    4.858277    0.165209
     21          6           0       -8.152451    3.490282   -0.169304
     22          6           0       -5.697303    5.963846    1.103149
     23          6           0       -8.564476    5.992842    0.025083
     24          6           0       -8.642070    7.176262    0.740057
     25          7           0       -9.093310    0.699906   -0.550785
     26          6           0       -9.793288    1.787352   -0.713868
     27          6           0      -11.146394    1.418749   -1.145699
     28          6           0      -11.264390   -0.021566   -1.255343
     29          6           0       -9.930554   -0.372495   -0.844148
     30          6           0      -12.317240    2.406163   -1.358112
     31          6           0      -12.318586   -0.803150   -1.641533
     32          6           0      -12.231618   -1.183779   -3.133469
     33          7           0       -7.225492   -1.412007   -0.296216
     34          6           0       -8.250660   -2.249751   -0.598553
     35          6           0       -7.814838   -3.667786   -0.465977
     36          6           0       -6.518894   -3.552164    0.047250
     37          6           0       -6.199891   -2.156487    0.053060
     38          6           0       -8.516113   -4.877857   -0.918192
     39          6           0       -5.356761   -4.342358    0.198707
     40          8           0       -5.117552   -5.562798    0.063977
     41          6           0       -4.124588   -3.282085    0.591685
     42          6           0       -3.474028   -3.599616    1.894337
     43          8           0       -3.748580   -3.068110    2.890775
     44          8           0       -2.669995   -4.678728    1.660814
     45          6           0       -1.971381   -5.071685    2.923669
     46          6           0        2.749947   -0.669145   -1.136044
     47          6           0        4.137572   -0.533786   -0.475293
     48          6           0        5.188993    0.286836   -0.739397
     49          6           0        5.118859    1.111968   -1.932664
     50          6           0        6.522897    0.284397   -0.038899
     51          6           0        7.686991   -0.281545   -0.827953
     52          6           0        8.982241   -0.134967   -0.062249
     53          6           0       10.163807   -0.494826   -0.915695
     54          6           0       10.066084   -2.086653   -1.330227
     55          6           0       11.493773   -0.220736   -0.101774
     56          6           0       12.815368   -0.455743   -0.819668
     57          6           0       13.942767   -0.130121    0.095122
     58          6           0       15.402196   -0.230714   -0.432557
     59          6           0       15.679716   -1.717350   -0.803959
     60          6           0       16.452805    0.277136    0.453934
     61          6           0       17.828476    0.505316   -0.153849
     62          6           0       18.805560    1.420880    0.668445
     63          6           0       20.255263    1.431645    0.157453
     64          6           0       20.258538    2.083356   -1.336113
     65          6           0       21.014073    2.252040    1.207684
     66          1           0       -4.035841    3.590059    1.464773
     67          1           0      -10.069432    3.933139   -0.807436
     68          1           0      -10.288248   -2.533252   -1.104461
     69          1           0       -2.542762   -1.058883    1.968201
     70          1           0       -2.170541    1.789159    1.134836
     71          1           0       -1.887993    0.968193    3.557973
     72          1           0       -3.097682    2.358813    3.412781
     73          1           0       -3.681720    0.851190    3.728091
     74          1           0       -2.204922   -1.596500   -0.226105
     75          1           0       -2.082459   -0.000195   -0.699188
     76          1           0       -0.521487    0.537591    1.017813
     77          1           0       -0.340116   -1.217417    1.355097
     78          1           0       -6.204200    6.888334    0.642084
     79          1           0       -5.582144    6.015221    2.175056
     80          1           0       -4.633603    5.871851    0.816970
     81          1           0       -9.105049    5.874281   -0.869996
     82          1           0       -9.375535    7.955007    0.296127
     83          1           0       -8.001183    7.336073    1.720481
     84          1           0      -11.910659    3.282905   -2.074164
     85          1           0      -13.337620    1.991269   -1.899336
     86          1           0      -12.511941    3.040688   -0.278965
     87          1           0      -12.293984   -1.702788   -1.043366
     88          1           0      -13.364744   -0.487048   -1.607766
     89          1           0      -13.041202   -1.746247   -3.664174
     90          1           0      -12.162770   -0.233322   -3.801792
     91          1           0      -11.106094   -1.590445   -3.425067
     92          1           0       -9.031025   -4.907116   -1.916160
     93          1           0       -7.852951   -5.905464   -0.693667
     94          1           0       -9.490554   -4.932009   -0.233589
     95          1           0       -3.629538   -3.647197   -0.391143
     96          1           0       -1.482248   -4.465353    3.595268
     97          1           0       -2.917853   -5.431472    3.436979
     98          1           0       -1.170766   -5.915465    2.603069
     99          1           0        2.555717   -1.693247   -1.443046
    100          1           0        2.611095    0.111130   -1.899792
    101          1           0        4.391254   -1.101993    0.480269
    102          1           0        3.971606    1.429001   -2.415108
    103          1           0        5.592207    2.135363   -1.794423
    104          1           0        5.556756    0.607012   -2.670105
    105          1           0        6.810061    1.254607    0.152740
    106          1           0        6.536378   -0.253465    0.753251
    107          1           0        7.286222   -1.215637   -0.882691
    108          1           0        7.875556    0.257597   -1.800489
    109          1           0        9.130823    0.871416    0.272711
    110          1           0        8.975369   -0.738962    0.709964
    111          1           0       10.287655   -0.003712   -1.698348
    112          1           0        9.145202   -2.248069   -2.055750
    113          1           0       11.133998   -2.360828   -1.552765
    114          1           0        9.684768   -2.831544   -0.343625
    115          1           0       11.365051    0.813524    0.162555
    116          1           0       11.355518   -0.792244    0.891975
    117          1           0       13.110420   -1.624572   -1.169849
    118          1           0       12.603198    0.240528   -1.679520
    119          1           0       13.982027    0.900756    0.382104
    120          1           0       14.036308   -0.848325    1.019507
    121          1           0       15.412451    0.344215   -1.425028
    122          1           0       15.580671   -2.460768    0.151549
    123          1           0       14.973559   -1.928010   -1.663691
    124          1           0       16.720879   -1.905596   -1.133471
    125          1           0       16.066524    1.286591    0.621145
    126          1           0       16.468019   -0.219491    1.322638
    127          1           0       18.334109   -0.528765   -0.203166
    128          1           0       17.787993    1.057043   -1.218591
    129          1           0       18.001619    2.530878    0.411064
    130          1           0       18.783410    1.233812    1.847259
    131          1           0       20.823774    0.543816    0.047784
    132          1           0       19.789252    3.023803   -1.220666
    133          1           0       21.288510    1.976993   -1.515471
    134          1           0       19.476176    1.539840   -1.967841
    135          1           0       20.971005    1.688471    2.230842
    136          1           0       21.978791    2.182797    0.741513
    137          1           0       20.693415    3.204650    1.350695
 ---------------------------------------------------------------------

 SCF Done:  E(RCAM-B3LYP) =  -2932.55611527     A.U. after   17 cycles

 Excitation energies and oscillator strengths:

 Excited State   1:      Singlet-A      2.1182 eV  585.32 nm  f=0.3014  <S**2>=0.000
     240 -> 242       -0.12284
     240 -> 243       -0.19430
     241 -> 242        0.64374
     241 -> 243       -0.15165
 This state for optimization and/or second-order correction.
 Total Energy, E(TD-HF/TD-KS) =  -2932.47827204
 Copying the excited state density for this state as the 1-particle RhoCI density.

 The electronic state is 1-A.
 Alpha  occ. eigenvalues --  -46.85080 -19.25714 -19.24722 -19.21086 -19.20648
 Alpha  occ. eigenvalues --  -19.19767 -14.41186 -14.41104 -14.39423 -14.39293
 Alpha  occ. eigenvalues --  -10.38145 -10.37884 -10.34833 -10.32529 -10.31815
 Alpha  occ. eigenvalues --  -10.31612 -10.30881 -10.30138 -10.29466 -10.29452
 Alpha  occ. eigenvalues --  -10.29346 -10.29337 -10.28919 -10.28917 -10.28618
 Alpha  occ. eigenvalues --  -10.28584 -10.28558 -10.28446 -10.28439 -10.27959
 Alpha  occ. eigenvalues --  -10.27951 -10.27682 -10.27653 -10.27496 -10.27438
 Alpha  occ. eigenvalues --  -10.27425 -10.27423 -10.27323 -10.26923 -10.26652
 Alpha  occ. eigenvalues --  -10.26557 -10.26539 -10.26305 -10.26266 -10.26199
 Alpha  occ. eigenvalues --  -10.26175 -10.26031 -10.26018 -10.25893 -10.25744
 Alpha  occ. eigenvalues --  -10.25625 -10.25514 -10.25465 -10.25457 -10.25436
 Alpha  occ. eigenvalues --  -10.25042 -10.24850 -10.24831 -10.24763 -10.24734
 Alpha  occ. eigenvalues --  -10.24359 -10.24103 -10.24015 -10.23664 -10.23567
 Alpha  occ. eigenvalues --   -3.14111  -1.88814  -1.88370  -1.88276  -1.18492
 Alpha  occ. eigenvalues --   -1.18157  -1.10276  -1.09769  -1.08436  -1.06802
 Alpha  occ. eigenvalues --   -1.04696  -1.03996  -1.02974  -0.92760  -0.91696
 Alpha  occ. eigenvalues --   -0.91175  -0.90828  -0.90570  -0.90144  -0.89814
 Alpha  occ. eigenvalues --   -0.88670  -0.88515  -0.87734  -0.86957  -0.86345
 Alpha  occ. eigenvalues --   -0.85125  -0.84387  -0.83561  -0.83402  -0.81833
 Alpha  occ. eigenvalues --   -0.81316  -0.80576  -0.80055  -0.79476  -0.78261
 Alpha  occ. eigenvalues --   -0.77711  -0.76445  -0.76321  -0.76018  -0.75050
 Alpha  occ. eigenvalues --   -0.74453  -0.73680  -0.73480  -0.73385  -0.71738
 Alpha  occ. eigenvalues --   -0.70885  -0.70211  -0.69880  -0.69350  -0.68868
 Alpha  occ. eigenvalues --   -0.67695  -0.67018  -0.65521  -0.65368  -0.65218
 Alpha  occ. eigenvalues --   -0.63969  -0.63793  -0.62156  -0.61892  -0.61818
 Alpha  occ. eigenvalues --   -0.61669  -0.60663  -0.60371  -0.59561  -0.59078
 Alpha  occ. eigenvalues --   -0.58823  -0.58317  -0.57910  -0.57254  -0.57164
 Alpha  occ. eigenvalues --   -0.56671  -0.55881  -0.55511  -0.55276  -0.54925
 Alpha  occ. eigenvalues --   -0.54771  -0.54026  -0.53789  -0.53616  -0.53432
 Alpha  occ. eigenvalues --   -0.53043  -0.52527  -0.52432  -0.52117  -0.51865
 Alpha  occ. eigenvalues --   -0.51660  -0.51402  -0.51129  -0.50624  -0.50535
 Alpha  occ. eigenvalues --   -0.50381  -0.50243  -0.49940  -0.49853  -0.49593
 Alpha  occ. eigenvalues --   -0.49501  -0.49436  -0.49195  -0.49068  -0.48580
 Alpha  occ. eigenvalues --   -0.48513  -0.48053  -0.47852  -0.47656  -0.47563
 Alpha  occ. eigenvalues --   -0.47223  -0.46728  -0.46427  -0.46257  -0.46171
 Alpha  occ. eigenvalues --   -0.45938  -0.45609  -0.45501  -0.45131  -0.45012
 Alpha  occ. eigenvalues --   -0.44662  -0.44524  -0.44307  -0.44135  -0.43956
 Alpha  occ. eigenvalues --   -0.43561  -0.43376  -0.43260  -0.43225  -0.43059
 Alpha  occ. eigenvalues --   -0.42918  -0.42598  -0.42529  -0.42423  -0.42192
 Alpha  occ. eigenvalues --   -0.41835  -0.41690  -0.41618  -0.41346  -0.41219
 Alpha  occ. eigenvalues --   -0.41136  -0.41045  -0.40637  -0.40507  -0.40067
 Alpha  occ. eigenvalues --   -0.39950  -0.39714  -0.39600  -0.39516  -0.39461
 Alpha  occ. eigenvalues --   -0.39185  -0.38809  -0.38619  -0.37703  -0.37607
 Alpha  occ. eigenvalues --   -0.37511  -0.37005  -0.36917  -0.36520  -0.36375
 Alpha  occ. eigenvalues --   -0.36180  -0.35879  -0.35641  -0.35494  -0.35337
 Alpha  occ. eigenvalues --   -0.35293  -0.34614  -0.33848  -0.33811  -0.33678
 Alpha  occ. eigenvalues --   -0.33318  -0.33110  -0.32425  -0.31301  -0.29612
 Alpha  occ. eigenvalues --   -0.29561  -0.28901  -0.28582  -0.26997  -0.23693
 Alpha  occ. eigenvalues --   -0.20496
 Alpha virt. eigenvalues --   -0.05808  -0.03380   0.01862   0.03464   0.05216
 Alpha virt. eigenvalues --    0.05612   0.06430   0.06961   0.07561   0.08437
 Alpha virt. eigenvalues --    0.09101   0.09501   0.10558   0.11034   0.11413

 Mulliken charges:
               1
     1  Mg   0.824855
     2  C    0.022742
     3  C   -0.236926
     4  C   -0.157387
     5  C   -0.174094
     6  N   -0.652843
     7  C    0.351087
     8  C   -0.116632
     9  C   -0.151933
    10  C    0.382561
    11  C   -0.290988
    12  C   -0.180510
    13  C   -0.273498
    14  C    0.607203
    15  O   -0.434470
    16  O   -0.507495
    17  N   -0.708698
    18  C    0.349076
    19  C   -0.016276
    20  C    0.068968
    21  C    0.263865
    22  C   -0.382827
    23  C   -0.085924
    24  C   -0.253023
    25  N   -0.686253
    26  C    0.321229
    27  C   -0.040953
    28  C    0.127269
    29  C    0.241673
    30  C   -0.357302
    31  C   -0.270392
    32  C   -0.315376
    33  N   -0.711277
    34  C    0.255637
    35  C    0.078953
    36  C    0.014613
    37  C    0.294504
    38  C   -0.398779
    39  C    0.319105
    40  O   -0.481755
    41  C   -0.328992
    42  C    0.658205
    43  O   -0.444234
    44  O   -0.472325
    45  C   -0.102518
    46  C    0.030670
    47  C   -0.148386
    48  C    0.118860
    49  C   -0.360818
    50  C   -0.210736
    51  C   -0.188044
    52  C   -0.154071
    53  C   -0.052617
    54  C   -0.303632
    55  C   -0.191571
    56  C   -0.166056
    57  C   -0.144809
    58  C   -0.079365
    59  C   -0.305416
    60  C   -0.143555
    61  C   -0.170834
    62  C   -0.129067
    63  C   -0.079201
    64  C   -0.312633
    65  C   -0.295597
    66  H    0.083835
    67  H    0.102038
    68  H    0.095894
    69  H    0.111227
    70  H    0.065097
    71  H    0.123853
    72  H    0.113622
    73  H    0.103353
    74  H    0.121640
    75  H    0.108226
    76  H    0.126906
    77  H    0.121154
    78  H    0.119331
    79  H    0.128187
    80  H    0.109561
    81  H    0.103714
    82  H    0.113315
    83  H    0.120737
    84  H    0.092666
    85  H    0.103440
    86  H    0.092023
    87  H    0.111934
    88  H    0.116304
    89  H    0.105711
    90  H    0.099258
    91  H    0.084797
    92  H    0.139773
    93  H    0.144011
    94  H    0.110845
    95  H    0.161184
    96  H    0.144141
    97  H    0.135812
    98  H    0.111482
    99  H    0.138379
   100  H    0.123263
   101  H    0.074038
   102  H    0.074030
   103  H    0.100789
   104  H    0.147025
   105  H    0.103863
   106  H    0.103154
   107  H    0.110228
   108  H    0.086584
   109  H    0.084470
   110  H    0.104403
   111  H    0.086637
   112  H    0.102911
   113  H    0.109804
   114  H    0.052701
   115  H    0.095639
   116  H    0.078653
   117  H    0.080413
   118  H    0.093243
   119  H    0.088351
   120  H    0.081032
   121  H    0.068730
   122  H    0.071064
   123  H    0.096855
   124  H    0.101381
   125  H    0.077767
   126  H    0.098883
   127  H    0.078744
   128  H    0.078450
   129  H    0.022153
   130  H    0.072857
   131  H    0.104242
   132  H    0.115998
   133  H    0.106976
   134  H    0.101977
   135  H    0.088695
   136  H    0.089957
   137  H    0.119605
 Sum of Mulliken charges =   0.00000

 Dipole moment (field-independent basis, Debye):
    X=              2.3212    Y=              5.9119    Z=              0.2086  Tot=              6.3547
 Quadrupole moment (field-independent basis, Debye-Ang):
   XX=           -325.2160   YY=           -394.5221   ZZ=           -398.3853
   XY=            -25.7601   XZ=             13.9707   YZ=             -3.7751

 Normal termination of Gaussian 09 at Thu Jul  4 08:46:05 2019.
