 Gaussian 16, Revision A.03,
 Gaussian 16:  ES64L-G16RevA.03 25-Dec-2016

 ----------------------------------------------------------------------
 # td=(NStates=1) iop(3/107=0140000000,3/108=0140000000) CAM-B3LYP/6-31
 G(d,p)
 ----------------------------------------------------------------------

 --
 TD
 --
 Symbolic Z-matrix:
 Charge =  0 Multiplicity = 1

                         Standard orientation:
 ---------------------------------------------------------------------
 Center     Atomic      Atomic             Coordinates (Angstroms)
 Number     Number       Type             X           Y           Z
 ---------------------------------------------------------------------
      1         12           0       -7.133770    0.631988    0.218153
      2          6           0       -4.918342   -1.971623    0.562126
      3          6           0       -4.712262    2.761907    1.337527
      4          6           0       -9.264262    3.169408   -0.396484
      5          6           0       -9.655231   -1.599815   -0.705717
      6          7           0       -5.167983    0.417026    0.793199
      7          6           0       -4.350976   -0.745899    0.774549
      8          6           0       -2.958140   -0.481830    1.289064
      9          6           0       -2.940438    1.014938    1.691050
     10          6           0       -4.337020    1.430933    1.206160
     11          6           0       -2.827408    1.106870    3.156457
     12          6           0       -1.984081   -0.656962    0.110397
     13          6           0       -0.491896   -0.508972    0.466010
     14          6           0        0.503358   -0.815589   -0.790906
     15          8           0        0.148915   -1.281238   -1.852661
     16          8           0        1.745811   -0.421280   -0.415138
     17          7           0       -7.007104    2.625485    0.325781
     18          6           0       -5.959862    3.357423    0.839411
     19          6           0       -6.233970    4.744957    0.723150
     20          6           0       -7.534778    4.910475    0.319208
     21          6           0       -8.062942    3.493393    0.007729
     22          6           0       -5.269677    5.888749    1.137150
     23          6           0       -8.363392    6.000536    0.195559
     24          6           0       -8.139169    7.303459    0.618409
     25          7           0       -9.065903    0.758099   -0.517547
     26          6           0       -9.798603    1.923871   -0.637461
     27          6           0      -11.149450    1.639534   -1.140167
     28          6           0      -11.225818    0.272311   -1.154633
     29          6           0       -9.941603   -0.289860   -0.803896
     30          6           0      -12.149650    2.724981   -1.483775
     31          6           0      -12.363093   -0.573185   -1.828405
     32          6           0      -12.150453   -1.049704   -3.198436
     33          7           0       -7.363867   -1.329822   -0.023918
     34          6           0       -8.420561   -2.186852   -0.408734
     35          6           0       -7.917349   -3.555875   -0.437503
     36          6           0       -6.617599   -3.544933   -0.103892
     37          6           0       -6.240320   -2.224172    0.160910
     38          6           0       -8.723895   -4.821917   -0.815061
     39          6           0       -5.394890   -4.454970    0.125143
     40          8           0       -5.269337   -5.635294    0.098827
     41          6           0       -4.188370   -3.326865    0.452509
     42          6           0       -3.689511   -3.754009    1.914383
     43          8           0       -3.991111   -3.227440    2.942436
     44          8           0       -2.826244   -4.685557    1.783833
     45          6           0       -2.293223   -5.147992    3.027768
     46          6           0        2.785360   -0.706281   -1.422545
     47          6           0        3.979477   -0.565404   -0.655399
     48          6           0        5.059891    0.219508   -1.007326
     49          6           0        5.011571    1.186180   -2.249384
     50          6           0        6.286766    0.297882   -0.133269
     51          6           0        7.608241   -0.232814   -0.889877
     52          6           0        8.906748   -0.185450   -0.143107
     53          6           0       10.202202   -0.590344   -0.885908
     54          6           0       10.076437   -2.035794   -1.419788
     55          6           0       11.380614   -0.308082   -0.029250
     56          6           0       12.764295   -0.528834   -0.730959
     57          6           0       13.944219   -0.161618    0.164544
     58          6           0       15.365349   -0.247221   -0.514911
     59          6           0       15.598810   -1.614377   -1.082177
     60          6           0       16.490469    0.370369    0.373156
     61          6           0       17.939150    0.512584   -0.185291
     62          6           0       18.785294    1.303042    0.840663
     63          6           0       20.212193    1.423377    0.327330
     64          6           0       20.358353    2.293159   -0.861193
     65          6           0       21.193704    1.994503    1.407163
     66          1           0       -3.926781    3.483954    1.493473
     67          1           0      -10.073392    3.913969   -0.634754
     68          1           0      -10.320989   -2.292170   -1.071999
     69          1           0       -2.678472   -1.067417    2.197042
     70          1           0       -2.159840    1.532573    1.202656
     71          1           0       -1.821185    0.994882    3.528754
     72          1           0       -3.138464    2.124880    3.625382
     73          1           0       -3.450393    0.484209    3.748403
     74          1           0       -2.154254   -1.535841   -0.278336
     75          1           0       -2.477759    0.009442   -0.647455
     76          1           0       -0.186243    0.476286    0.834079
     77          1           0       -0.199755   -1.150624    1.273568
     78          1           0       -5.486957    6.758174    0.578789
     79          1           0       -5.228039    5.962003    2.218557
     80          1           0       -4.243807    5.601326    0.830022
     81          1           0       -9.443071    5.865360   -0.163980
     82          1           0       -9.066659    7.963633    0.536491
     83          1           0       -7.387782    7.578187    1.343692
     84          1           0      -11.999217    3.233919   -2.409886
     85          1           0      -13.090489    2.328992   -1.761949
     86          1           0      -12.365257    3.487188   -0.787974
     87          1           0      -12.500376   -1.247850   -1.099388
     88          1           0      -13.383983   -0.075513   -1.772247
     89          1           0      -12.754528   -2.057758   -3.461188
     90          1           0      -12.274828   -0.393410   -3.895045
     91          1           0      -10.938546   -1.594084   -3.377611
     92          1           0       -8.913079   -4.937345   -1.809587
     93          1           0       -8.093457   -5.696193   -0.602315
     94          1           0       -9.617442   -4.836894   -0.485701
     95          1           0       -3.317719   -3.481587   -0.116305
     96          1           0       -2.074118   -4.170642    3.774481
     97          1           0       -3.116946   -5.550454    3.582601
     98          1           0       -1.283502   -5.752729    2.548561
     99          1           0        2.664165   -1.617176   -2.066402
    100          1           0        2.870832    0.197241   -2.193121
    101          1           0        4.206124   -1.392839    0.183999
    102          1           0        3.911892    1.521385   -2.532440
    103          1           0        5.709480    2.004419   -2.150243
    104          1           0        5.505530    0.729624   -3.079398
    105          1           0        6.383844    1.213363    0.022459
    106          1           0        6.312317    0.031232    0.995129
    107          1           0        7.335176   -1.412033   -1.009080
    108          1           0        7.789593    0.176888   -1.775162
    109          1           0        9.114715    0.966644    0.199996
    110          1           0        8.911500   -0.966166    0.783637
    111          1           0       10.250767   -0.126647   -1.677367
    112          1           0        9.229706   -2.138503   -2.188890
    113          1           0       11.071668   -2.025227   -1.952205
    114          1           0       10.108861   -2.608338   -0.519400
    115          1           0       11.348672    0.625220    0.378184
    116          1           0       11.263612   -0.972176    0.818763
    117          1           0       12.702590   -1.335819   -1.143047
    118          1           0       12.584307    0.240020   -1.555913
    119          1           0       13.755261    0.886493    0.606173
    120          1           0       14.027317   -0.796376    0.957521
    121          1           0       15.340555    0.541692   -1.290944
    122          1           0       15.667559   -2.243647   -0.310856
    123          1           0       14.903824   -1.938548   -1.822739
    124          1           0       16.773247   -1.886568   -1.519172
    125          1           0       15.858969    1.382826    0.665491
    126          1           0       16.533826   -0.160389    1.283092
    127          1           0       18.383004   -0.456079   -0.439083
    128          1           0       17.887050    1.122230   -1.151807
    129          1           0       18.314740    2.112873    1.064864
    130          1           0       18.761192    0.587706    1.799396
    131          1           0       20.496297    0.322953    0.087309
    132          1           0       19.607613    3.129559   -0.607687
    133          1           0       21.424846    2.672380   -0.796170
    134          1           0       20.064809    1.725187   -1.884199
    135          1           0       21.233182    1.302586    2.331781
    136          1           0       22.336373    2.096226    0.972271
    137          1           0       20.791666    2.913765    1.783170
 ---------------------------------------------------------------------

 SCF Done:  E(RCAM-B3LYP) =  -2933.43077371     A.U. after   16 cycles

 Excitation energies and oscillator strengths:

 Excited State   1:      Singlet-A      2.0499 eV  604.83 nm  f=0.2968  <S**2>=0.000
     240 -> 243        0.22416
     241 -> 242        0.66216
 This state for optimization and/or second-order correction.
 Total Energy, E(TD-HF/TD-DFT) =  -2933.35544176
 Copying the excited state density for this state as the 1-particle RhoCI density.

 The electronic state is 1-A.
 Alpha  occ. eigenvalues --  -46.78070 -19.22813 -19.22786 -19.17671 -19.17282
 Alpha  occ. eigenvalues --  -19.15954 -14.37431 -14.35090 -14.34501 -14.34468
 Alpha  occ. eigenvalues --  -10.34963 -10.33464 -10.31770 -10.29420 -10.28068
 Alpha  occ. eigenvalues --  -10.26064 -10.25685 -10.25579 -10.24690 -10.24437
 Alpha  occ. eigenvalues --  -10.24162 -10.23995 -10.23922 -10.23688 -10.23571
 Alpha  occ. eigenvalues --  -10.23423 -10.23150 -10.23083 -10.22959 -10.22743
 Alpha  occ. eigenvalues --  -10.22454 -10.22397 -10.22344 -10.22307 -10.22288
 Alpha  occ. eigenvalues --  -10.22238 -10.22213 -10.22027 -10.22024 -10.21963
 Alpha  occ. eigenvalues --  -10.21753 -10.21715 -10.21710 -10.21618 -10.21609
 Alpha  occ. eigenvalues --  -10.21598 -10.21594 -10.21567 -10.21533 -10.21460
 Alpha  occ. eigenvalues --  -10.21427 -10.21392 -10.21254 -10.21102 -10.21033
 Alpha  occ. eigenvalues --  -10.20882 -10.20766 -10.20645 -10.20609 -10.20415
 Alpha  occ. eigenvalues --  -10.20271 -10.19774 -10.19483 -10.19274 -10.19050
 Alpha  occ. eigenvalues --   -3.06916  -1.81842  -1.81406  -1.81326  -1.16260
 Alpha  occ. eigenvalues --   -1.12513  -1.08456  -1.05218  -1.04750  -0.97846
 Alpha  occ. eigenvalues --   -0.97062  -0.96490  -0.95244  -0.86833  -0.86219
 Alpha  occ. eigenvalues --   -0.85559  -0.85155  -0.85011  -0.83974  -0.83909
 Alpha  occ. eigenvalues --   -0.83611  -0.82687  -0.82397  -0.81193  -0.80924
 Alpha  occ. eigenvalues --   -0.80306  -0.79121  -0.78801  -0.78248  -0.77795
 Alpha  occ. eigenvalues --   -0.77044  -0.76695  -0.75720  -0.75211  -0.73507
 Alpha  occ. eigenvalues --   -0.73186  -0.72475  -0.72206  -0.71150  -0.71039
 Alpha  occ. eigenvalues --   -0.70703  -0.70469  -0.69388  -0.68641  -0.68031
 Alpha  occ. eigenvalues --   -0.67158  -0.66662  -0.65741  -0.65142  -0.63718
 Alpha  occ. eigenvalues --   -0.62788  -0.62584  -0.61866  -0.61007  -0.60503
 Alpha  occ. eigenvalues --   -0.59870  -0.59705  -0.59498  -0.58892  -0.58001
 Alpha  occ. eigenvalues --   -0.57750  -0.56451  -0.56253  -0.55284  -0.54867
 Alpha  occ. eigenvalues --   -0.54178  -0.53862  -0.53078  -0.52795  -0.52476
 Alpha  occ. eigenvalues --   -0.52113  -0.51910  -0.51793  -0.51246  -0.50827
 Alpha  occ. eigenvalues --   -0.50396  -0.50110  -0.49977  -0.49538  -0.49453
 Alpha  occ. eigenvalues --   -0.49250  -0.48565  -0.48410  -0.47856  -0.47578
 Alpha  occ. eigenvalues --   -0.47476  -0.47212  -0.46841  -0.46716  -0.46555
 Alpha  occ. eigenvalues --   -0.46241  -0.46235  -0.46098  -0.45903  -0.45752
 Alpha  occ. eigenvalues --   -0.45516  -0.45435  -0.45110  -0.45055  -0.44953
 Alpha  occ. eigenvalues --   -0.44766  -0.44175  -0.43965  -0.43959  -0.43691
 Alpha  occ. eigenvalues --   -0.43627  -0.43397  -0.43251  -0.43014  -0.42804
 Alpha  occ. eigenvalues --   -0.42575  -0.42227  -0.42043  -0.41856  -0.41579
 Alpha  occ. eigenvalues --   -0.41458  -0.41276  -0.41037  -0.41013  -0.40921
 Alpha  occ. eigenvalues --   -0.40681  -0.40617  -0.40522  -0.40475  -0.40237
 Alpha  occ. eigenvalues --   -0.40119  -0.39903  -0.39695  -0.39454  -0.39263
 Alpha  occ. eigenvalues --   -0.39144  -0.38491  -0.38344  -0.38229  -0.38036
 Alpha  occ. eigenvalues --   -0.38000  -0.37792  -0.37485  -0.37314  -0.37015
 Alpha  occ. eigenvalues --   -0.36852  -0.36511  -0.36405  -0.36349  -0.36161
 Alpha  occ. eigenvalues --   -0.35717  -0.35586  -0.35215  -0.34671  -0.34505
 Alpha  occ. eigenvalues --   -0.34260  -0.34112  -0.33975  -0.33647  -0.33602
 Alpha  occ. eigenvalues --   -0.33389  -0.33251  -0.33236  -0.33068  -0.32739
 Alpha  occ. eigenvalues --   -0.32445  -0.32227  -0.32067  -0.31147  -0.30547
 Alpha  occ. eigenvalues --   -0.30367  -0.30052  -0.29440  -0.28500  -0.27008
 Alpha  occ. eigenvalues --   -0.26685  -0.26459  -0.25673  -0.24198  -0.21682
 Alpha  occ. eigenvalues --   -0.19645
 Alpha virt. eigenvalues --   -0.06748  -0.03678   0.00166   0.01914   0.03032
 Alpha virt. eigenvalues --    0.04535   0.05107   0.05617   0.06101   0.06593
 Alpha virt. eigenvalues --    0.06774   0.09386   0.09394   0.09789   0.09811

 Mulliken charges:
               1
     1  Mg   0.794722
     2  C    0.101571
     3  C   -0.196744
     4  C   -0.162314
     5  C   -0.167082
     6  N   -0.620533
     7  C    0.275091
     8  C   -0.169430
     9  C   -0.105555
    10  C    0.334223
    11  C   -0.324299
    12  C   -0.154029
    13  C   -0.280846
    14  C    0.600034
    15  O   -0.459696
    16  O   -0.454211
    17  N   -0.724238
    18  C    0.312616
    19  C   -0.014119
    20  C    0.089976
    21  C    0.314465
    22  C   -0.374109
    23  C   -0.121181
    24  C   -0.254430
    25  N   -0.692465
    26  C    0.279545
    27  C    0.066537
    28  C   -0.042052
    29  C    0.338953
    30  C   -0.401138
    31  C   -0.217545
    32  C   -0.267890
    33  N   -0.715527
    34  C    0.274844
    35  C   -0.044609
    36  C    0.052319
    37  C    0.234918
    38  C   -0.368838
    39  C    0.393992
    40  O   -0.421889
    41  C   -0.363467
    42  C    0.595735
    43  O   -0.472674
    44  O   -0.391187
    45  C   -0.099388
    46  C   -0.005016
    47  C   -0.102713
    48  C    0.098515
    49  C   -0.381945
    50  C   -0.216650
    51  C   -0.166940
    52  C   -0.152808
    53  C   -0.064416
    54  C   -0.308120
    55  C   -0.176674
    56  C   -0.157780
    57  C   -0.177905
    58  C   -0.062710
    59  C   -0.301898
    60  C   -0.173072
    61  C   -0.180814
    62  C   -0.145179
    63  C   -0.041137
    64  C   -0.280926
    65  C   -0.309941
    66  H    0.072843
    67  H    0.083459
    68  H    0.076367
    69  H    0.117654
    70  H    0.109361
    71  H    0.107412
    72  H    0.089928
    73  H    0.136966
    74  H    0.118933
    75  H    0.106804
    76  H    0.126781
    77  H    0.135445
    78  H    0.130138
    79  H    0.133098
    80  H    0.110066
    81  H    0.090316
    82  H    0.090323
    83  H    0.109792
    84  H    0.126688
    85  H    0.114743
    86  H    0.127781
    87  H    0.120909
    88  H    0.090739
    89  H    0.087988
    90  H    0.129093
    91  H    0.053527
    92  H    0.130017
    93  H    0.135944
    94  H    0.122602
    95  H    0.149997
    96  H    0.113330
    97  H    0.154087
    98  H    0.117142
    99  H    0.148425
   100  H    0.089303
   101  H    0.078584
   102  H    0.121858
   103  H    0.115502
   104  H    0.135725
   105  H    0.120261
   106  H    0.093333
   107  H    0.078661
   108  H    0.098978
   109  H    0.053501
   110  H    0.062634
   111  H    0.083629
   112  H    0.104082
   113  H    0.092707
   114  H    0.107029
   115  H    0.096660
   116  H    0.078780
   117  H    0.095717
   118  H    0.076923
   119  H    0.078164
   120  H    0.103657
   121  H    0.081117
   122  H    0.117494
   123  H    0.113734
   124  H    0.052652
   125  H    0.058283
   126  H    0.089454
   127  H    0.099749
   128  H    0.086949
   129  H    0.099152
   130  H    0.066695
   131  H    0.070946
   132  H    0.090616
   133  H    0.099254
   134  H    0.089832
   135  H    0.089663
   136  H    0.079264
   137  H    0.110834
 Sum of Mulliken charges =  -0.00000

 Dipole moment (field-independent basis, Debye):
    X=              2.7582    Y=              3.5957    Z=              0.3225  Tot=              4.5433
 Quadrupole moment (field-independent basis, Debye-Ang):
   XX=           -349.2977   YY=           -395.3566   ZZ=           -395.8671
   XY=            -18.9065   XZ=             12.0490   YZ=             -1.3708

 Normal termination of Gaussian 16 at Wed Sep 18 01:24:55 2019.
