 Gaussian 09, Revision D.01,
 Gaussian 09:  ES64L-G09RevD.01 24-Apr-2013

 -------------------------------------
 # td=(NStates=1) CAM-B3LYP/6-31G(d,p)
 -------------------------------------

 --
 TD
 --
 Symbolic Z-matrix:
 Charge =  0 Multiplicity = 1

                         Standard orientation:
 ---------------------------------------------------------------------
 Center     Atomic      Atomic             Coordinates (Angstroms)
 Number     Number       Type             X           Y           Z
 ---------------------------------------------------------------------
      1         12           0       -7.079429    0.579624    0.127907
      2          6           0       -4.886686   -1.969831    0.546462
      3          6           0       -4.685446    2.821813    1.135067
      4          6           0       -9.373493    2.995787   -0.438785
      5          6           0       -9.593941   -1.784978   -0.806468
      6          7           0       -5.163286    0.453085    0.788389
      7          6           0       -4.371523   -0.701979    0.850085
      8          6           0       -2.961226   -0.411686    1.249400
      9          6           0       -3.068851    1.063301    1.710586
     10          6           0       -4.429340    1.512213    1.149549
     11          6           0       -3.203337    1.314744    3.193569
     12          6           0       -1.937316   -0.520268    0.146309
     13          6           0       -0.472542   -0.425629    0.598997
     14          6           0        0.482990   -0.667459   -0.557658
     15          8           0        0.110031   -1.020179   -1.641720
     16          8           0        1.730724   -0.362318   -0.219598
     17          7           0       -7.059014    2.718611    0.250548
     18          6           0       -6.036977    3.429999    0.695122
     19          6           0       -6.420270    4.800534    0.775629
     20          6           0       -7.699822    4.844589    0.345394
     21          6           0       -8.128969    3.502369    0.009932
     22          6           0       -5.529100    5.969080    1.233367
     23          6           0       -8.612501    6.031697    0.125628
     24          6           0       -8.666452    7.205794    0.756114
     25          7           0       -9.134643    0.634434   -0.489066
     26          6           0       -9.896899    1.747170   -0.733340
     27          6           0      -11.241017    1.425817   -1.205060
     28          6           0      -11.249920    0.042250   -1.175678
     29          6           0       -9.949571   -0.360758   -0.782573
     30          6           0      -12.253356    2.463300   -1.515326
     31          6           0      -12.414734   -0.825291   -1.620753
     32          6           0      -12.295410   -1.194079   -3.091415
     33          7           0       -7.297156   -1.405544   -0.135081
     34          6           0       -8.348072   -2.304628   -0.506237
     35          6           0       -7.848001   -3.594624   -0.500782
     36          6           0       -6.520241   -3.486414   -0.114282
     37          6           0       -6.205699   -2.168371    0.142976
     38          6           0       -8.629653   -4.885456   -0.744598
     39          6           0       -5.379706   -4.366541    0.257032
     40          8           0       -5.153451   -5.568225    0.228545
     41          6           0       -4.240674   -3.365254    0.595613
     42          6           0       -3.505071   -3.692521    1.967221
     43          8           0       -3.706518   -3.327995    3.068033
     44          8           0       -2.483422   -4.647105    1.666465
     45          6           0       -1.905551   -5.162722    2.876374
     46          6           0        2.704190   -0.573756   -1.336274
     47          6           0        4.111497   -0.389107   -0.728252
     48          6           0        5.130973    0.338543   -1.159178
     49          6           0        5.231440    1.012884   -2.391670
     50          6           0        6.472670    0.334621   -0.322714
     51          6           0        7.628406   -0.318709   -1.093881
     52          6           0        8.923553   -0.106635   -0.226780
     53          6           0       10.296039   -0.383144   -1.088172
     54          6           0       10.136579   -1.892486   -1.459667
     55          6           0       11.424365   -0.226993   -0.149540
     56          6           0       12.847123   -0.384920   -0.833819
     57          6           0       13.949548    0.026790    0.122055
     58          6           0       15.267216   -0.155365   -0.547413
     59          6           0       15.693292   -1.681731   -0.662850
     60          6           0       16.461855    0.532076    0.371668
     61          6           0       17.851354    0.537001   -0.012796
     62          6           0       18.800111    1.248151    0.945620
     63          6           0       20.270792    1.255472    0.403028
     64          6           0       20.484819    1.952397   -0.917373
     65          6           0       21.249760    1.965025    1.413245
     66          1           0       -3.988902    3.697134    1.570140
     67          1           0      -10.034102    3.854702   -0.692997
     68          1           0      -10.459754   -2.349186   -1.247182
     69          1           0       -2.520140   -1.042209    2.098501
     70          1           0       -2.201803    1.639370    1.353599
     71          1           0       -2.345278    0.976896    3.799762
     72          1           0       -3.396310    2.426381    3.608051
     73          1           0       -4.132214    0.855732    3.738421
     74          1           0       -2.125306   -1.482190   -0.335036
     75          1           0       -2.059931    0.450546   -0.562368
     76          1           0       -0.188544    0.653947    0.703470
     77          1           0       -0.067689   -0.977859    1.484669
     78          1           0       -5.892116    6.774767    0.416444
     79          1           0       -5.659691    6.397502    2.120018
     80          1           0       -4.594268    5.810045    1.096127
     81          1           0       -9.523423    5.889448   -0.480200
     82          1           0       -9.397942    7.942684    0.412090
     83          1           0       -7.869461    7.490867    1.289314
     84          1           0      -12.153821    2.827621   -2.478462
     85          1           0      -13.586805    2.115003   -1.391170
     86          1           0      -12.139433    3.356620   -0.801041
     87          1           0      -12.613045   -1.752807   -0.980494
     88          1           0      -13.268028   -0.198547   -1.561466
     89          1           0      -13.154137   -1.782591   -3.247872
     90          1           0      -12.466157   -0.373036   -3.809014
     91          1           0      -11.401202   -1.906412   -3.342881
     92          1           0       -9.275912   -4.824015   -1.658459
     93          1           0       -7.909024   -5.612544   -1.004971
     94          1           0       -9.421738   -5.220293    0.096569
     95          1           0       -3.635132   -3.610802   -0.327889
     96          1           0       -1.228820   -4.536918    3.503887
     97          1           0       -2.594798   -5.562305    3.581625
     98          1           0       -1.374825   -6.131581    2.677061
     99          1           0        2.588750   -1.494109   -1.735399
    100          1           0        2.520416    0.250485   -2.070778
    101          1           0        4.188353   -1.212869    0.150408
    102          1           0        4.266455    1.159061   -2.839603
    103          1           0        5.975246    1.940615   -2.413497
    104          1           0        5.735906    0.324284   -3.031773
    105          1           0        6.686607    1.502606   -0.238236
    106          1           0        6.336109   -0.071592    0.655651
    107          1           0        7.218203   -1.600574   -1.189871
    108          1           0        7.793478    0.050148   -2.086220
    109          1           0        8.853898    0.972725    0.061906
    110          1           0        8.760261   -0.709273    0.598340
    111          1           0       10.423994    0.001934   -2.031179
    112          1           0        9.221093   -2.192993   -2.095546
    113          1           0       11.051128   -2.352857   -1.940995
    114          1           0       10.149618   -2.662924   -0.616122
    115          1           0       11.294835    0.670409    0.252739
    116          1           0       11.404300   -0.849239    0.826594
    117          1           0       12.952130   -1.566646   -1.007126
    118          1           0       12.917415   -0.036788   -1.894845
    119          1           0       13.870353    1.258513    0.025909
    120          1           0       13.960988   -0.651049    1.124248
    121          1           0       15.159620    0.267590   -1.499892
    122          1           0       15.574964   -2.083430    0.318067
    123          1           0       14.876173   -2.107479   -1.421986
    124          1           0       16.830336   -1.785484   -0.946028
    125          1           0       16.163171    1.617547    0.599832
    126          1           0       16.295866   -0.029217    1.187968
    127          1           0       18.322368   -0.344359   -0.048152
    128          1           0       18.063565    0.873563   -1.221086
    129          1           0       18.372888    2.487156    0.977435
    130          1           0       18.688372    0.823682    2.001392
    131          1           0       20.729572    0.169644    0.334465
    132          1           0       20.219222    3.031547   -0.953684
    133          1           0       21.500072    2.057146   -1.174862
    134          1           0       20.030390    1.344923   -1.728808
    135          1           0       21.368570    1.490208    2.367158
    136          1           0       22.297791    2.079410    1.081304
    137          1           0       20.826971    2.996195    1.385577
 ---------------------------------------------------------------------

 SCF Done:  E(RCAM-B3LYP) =  -2932.67321581     A.U. after   15 cycles

 Excitation energies and oscillator strengths:

 Excited State   1:      Singlet-A      2.0982 eV  590.92 nm  f=0.2924  <S**2>=0.000
     240 -> 242       -0.10964
     240 -> 243        0.22610
     241 -> 242        0.64991
 This state for optimization and/or second-order correction.
 Total Energy, E(TD-HF/TD-KS) =  -2932.59610989
 Copying the excited state density for this state as the 1-particle RhoCI density.

 The electronic state is 1-A.
 Alpha  occ. eigenvalues --  -46.84953 -19.26151 -19.25428 -19.22682 -19.20638
 Alpha  occ. eigenvalues --  -19.19911 -14.41584 -14.39614 -14.39242 -14.39070
 Alpha  occ. eigenvalues --  -10.40105 -10.38168 -10.35496 -10.31796 -10.31762
 Alpha  occ. eigenvalues --  -10.29995 -10.29797 -10.29652 -10.29391 -10.29292
 Alpha  occ. eigenvalues --  -10.29100 -10.28955 -10.28824 -10.28783 -10.28779
 Alpha  occ. eigenvalues --  -10.28769 -10.28544 -10.28108 -10.27899 -10.27771
 Alpha  occ. eigenvalues --  -10.27589 -10.27569 -10.27479 -10.27416 -10.27297
 Alpha  occ. eigenvalues --  -10.27269 -10.27172 -10.27126 -10.27044 -10.27020
 Alpha  occ. eigenvalues --  -10.27011 -10.26921 -10.26904 -10.26704 -10.26682
 Alpha  occ. eigenvalues --  -10.26676 -10.26626 -10.26487 -10.26373 -10.26142
 Alpha  occ. eigenvalues --  -10.26119 -10.26056 -10.26030 -10.25842 -10.25693
 Alpha  occ. eigenvalues --  -10.25520 -10.25422 -10.25055 -10.24885 -10.24802
 Alpha  occ. eigenvalues --  -10.24655 -10.24587 -10.24214 -10.24201 -10.24094
 Alpha  occ. eigenvalues --   -3.13852  -1.88570  -1.88108  -1.88003  -1.18099
 Alpha  occ. eigenvalues --   -1.17785  -1.10903  -1.09357  -1.09012  -1.05157
 Alpha  occ. eigenvalues --   -1.04421  -1.04200  -1.03182  -0.92730  -0.91758
 Alpha  occ. eigenvalues --   -0.90760  -0.90188  -0.89581  -0.89207  -0.88355
 Alpha  occ. eigenvalues --   -0.88190  -0.88105  -0.87577  -0.86775  -0.85771
 Alpha  occ. eigenvalues --   -0.85022  -0.84539  -0.83739  -0.83542  -0.83047
 Alpha  occ. eigenvalues --   -0.81715  -0.80581  -0.79785  -0.79479  -0.78366
 Alpha  occ. eigenvalues --   -0.77956  -0.77729  -0.75908  -0.75628  -0.75434
 Alpha  occ. eigenvalues --   -0.75340  -0.74738  -0.74125  -0.73523  -0.72659
 Alpha  occ. eigenvalues --   -0.70983  -0.70088  -0.69824  -0.69051  -0.68060
 Alpha  occ. eigenvalues --   -0.66723  -0.65800  -0.65423  -0.65087  -0.64578
 Alpha  occ. eigenvalues --   -0.64409  -0.63619  -0.62374  -0.62324  -0.62224
 Alpha  occ. eigenvalues --   -0.61570  -0.60448  -0.60348  -0.59672  -0.58942
 Alpha  occ. eigenvalues --   -0.58753  -0.58376  -0.57995  -0.57336  -0.57072
 Alpha  occ. eigenvalues --   -0.55969  -0.55361  -0.54984  -0.54787  -0.54495
 Alpha  occ. eigenvalues --   -0.54124  -0.53901  -0.53769  -0.53339  -0.52985
 Alpha  occ. eigenvalues --   -0.52756  -0.52533  -0.52306  -0.52072  -0.51615
 Alpha  occ. eigenvalues --   -0.51354  -0.51194  -0.51065  -0.50841  -0.50669
 Alpha  occ. eigenvalues --   -0.50528  -0.50378  -0.50020  -0.49862  -0.49719
 Alpha  occ. eigenvalues --   -0.49207  -0.48890  -0.48759  -0.48531  -0.48303
 Alpha  occ. eigenvalues --   -0.47894  -0.47708  -0.47454  -0.47357  -0.47221
 Alpha  occ. eigenvalues --   -0.46829  -0.46668  -0.46364  -0.46214  -0.46073
 Alpha  occ. eigenvalues --   -0.45854  -0.45623  -0.45311  -0.45208  -0.44741
 Alpha  occ. eigenvalues --   -0.44588  -0.44364  -0.44350  -0.44074  -0.43990
 Alpha  occ. eigenvalues --   -0.43731  -0.43688  -0.43530  -0.43432  -0.43359
 Alpha  occ. eigenvalues --   -0.43147  -0.42885  -0.42785  -0.42559  -0.42443
 Alpha  occ. eigenvalues --   -0.41952  -0.41829  -0.41764  -0.41547  -0.41350
 Alpha  occ. eigenvalues --   -0.41209  -0.40952  -0.40834  -0.40662  -0.40527
 Alpha  occ. eigenvalues --   -0.40138  -0.39829  -0.39666  -0.39626  -0.39040
 Alpha  occ. eigenvalues --   -0.38945  -0.38901  -0.38857  -0.38493  -0.38197
 Alpha  occ. eigenvalues --   -0.37724  -0.37195  -0.36915  -0.36800  -0.36487
 Alpha  occ. eigenvalues --   -0.36146  -0.35763  -0.35732  -0.35612  -0.35551
 Alpha  occ. eigenvalues --   -0.35529  -0.35055  -0.34577  -0.33520  -0.33458
 Alpha  occ. eigenvalues --   -0.32826  -0.32475  -0.32403  -0.31171  -0.30282
 Alpha  occ. eigenvalues --   -0.29770  -0.29682  -0.28702  -0.27730  -0.23222
 Alpha  occ. eigenvalues --   -0.22024
 Alpha virt. eigenvalues --   -0.07133  -0.02819   0.01536   0.05123   0.05720
 Alpha virt. eigenvalues --    0.06070   0.06524   0.06588   0.07491   0.08282
 Alpha virt. eigenvalues --    0.09023   0.09934   0.10560   0.10988   0.11475

 Mulliken charges:
               1
     1  Mg   0.821073
     2  C    0.028499
     3  C   -0.199584
     4  C   -0.174512
     5  C   -0.167323
     6  N   -0.685038
     7  C    0.322214
     8  C   -0.159751
     9  C   -0.136650
    10  C    0.381858
    11  C   -0.312250
    12  C   -0.151771
    13  C   -0.276598
    14  C    0.604860
    15  O   -0.474980
    16  O   -0.483488
    17  N   -0.693146
    18  C    0.279478
    19  C   -0.026786
    20  C    0.021236
    21  C    0.279246
    22  C   -0.343033
    23  C   -0.085515
    24  C   -0.231190
    25  N   -0.654323
    26  C    0.273803
    27  C    0.078898
    28  C   -0.002211
    29  C    0.304651
    30  C   -0.367102
    31  C   -0.245240
    32  C   -0.306872
    33  N   -0.776378
    34  C    0.279648
    35  C    0.034867
    36  C   -0.041477
    37  C    0.371306
    38  C   -0.364282
    39  C    0.376348
    40  O   -0.461675
    41  C   -0.304454
    42  C    0.623959
    43  O   -0.427104
    44  O   -0.473760
    45  C   -0.091690
    46  C    0.011582
    47  C   -0.154462
    48  C    0.143091
    49  C   -0.374487
    50  C   -0.214628
    51  C   -0.161640
    52  C   -0.175307
    53  C   -0.068650
    54  C   -0.320169
    55  C   -0.147276
    56  C   -0.196896
    57  C   -0.142321
    58  C   -0.082870
    59  C   -0.307160
    60  C   -0.156544
    61  C   -0.154751
    62  C   -0.142902
    63  C   -0.064454
    64  C   -0.303804
    65  C   -0.309985
    66  H    0.087203
    67  H    0.075355
    68  H    0.102127
    69  H    0.122483
    70  H    0.103535
    71  H    0.101556
    72  H    0.094348
    73  H    0.113027
    74  H    0.128544
    75  H    0.097760
    76  H    0.133453
    77  H    0.134619
    78  H    0.100684
    79  H    0.135593
    80  H    0.118524
    81  H    0.082585
    82  H    0.100201
    83  H    0.092648
    84  H    0.144594
    85  H    0.063051
    86  H    0.121369
    87  H    0.103433
    88  H    0.111466
    89  H    0.111143
    90  H    0.114410
    91  H    0.097757
    92  H    0.112868
    93  H    0.151553
    94  H    0.121566
    95  H    0.176207
    96  H    0.111230
    97  H    0.129479
    98  H    0.111792
    99  H    0.148026
   100  H    0.115769
   101  H    0.079812
   102  H    0.114139
   103  H    0.100162
   104  H    0.144470
   105  H    0.079228
   106  H    0.110982
   107  H    0.046554
   108  H    0.104956
   109  H    0.089269
   110  H    0.117406
   111  H    0.103300
   112  H    0.094675
   113  H    0.084539
   114  H    0.088619
   115  H    0.100100
   116  H    0.083319
   117  H    0.076216
   118  H    0.096853
   119  H    0.080282
   120  H    0.084878
   121  H    0.087342
   122  H    0.102809
   123  H    0.089137
   124  H    0.098717
   125  H    0.072853
   126  H    0.094265
   127  H    0.104604
   128  H    0.054755
   129  H    0.038932
   130  H    0.093514
   131  H    0.072752
   132  H    0.099865
   133  H    0.108943
   134  H    0.099086
   135  H    0.100015
   136  H    0.094384
   137  H    0.098180
 Sum of Mulliken charges =   0.00000

 Dipole moment (field-independent basis, Debye):
    X=              1.3427    Y=              3.6653    Z=             -0.8122  Tot=              3.9870
 Quadrupole moment (field-independent basis, Debye-Ang):
   XX=           -321.4992   YY=           -402.4603   ZZ=           -395.9884
   XY=            -16.2376   XZ=             15.1323   YZ=             -3.5945

 Normal termination of Gaussian 09 at Sat Jul  6 00:09:53 2019.
