 Gaussian 16, Revision A.03,
 Gaussian 16:  ES64L-G16RevA.03 25-Dec-2016

 ----------------------------------------------------------------------
 # td=(NStates=1) iop(3/107=0140000000,3/108=0140000000) CAM-B3LYP/6-31
 G(d,p)
 ----------------------------------------------------------------------

 --
 TD
 --
 Symbolic Z-matrix:
 Charge =  0 Multiplicity = 1

                         Standard orientation:
 ---------------------------------------------------------------------
 Center     Atomic      Atomic             Coordinates (Angstroms)
 Number     Number       Type             X           Y           Z
 ---------------------------------------------------------------------
      1         12           0       -7.162642    0.654597   -0.012331
      2          6           0       -4.787394   -1.958478    0.486131
      3          6           0       -4.819361    2.935627    1.063787
      4          6           0       -9.505656    3.111393   -0.273378
      5          6           0       -9.572531   -1.683857   -0.812347
      6          7           0       -5.088223    0.421291    0.680651
      7          6           0       -4.316090   -0.758232    0.725142
      8          6           0       -2.831880   -0.295066    1.207290
      9          6           0       -2.987379    1.187840    1.565057
     10          6           0       -4.316503    1.604322    0.932461
     11          6           0       -2.988104    1.236954    3.106073
     12          6           0       -1.853988   -0.526654   -0.010857
     13          6           0       -0.450205   -0.536408    0.579477
     14          6           0        0.547287   -0.999964   -0.478814
     15          8           0        0.180446   -1.475487   -1.649093
     16          8           0        1.822006   -0.638730   -0.265346
     17          7           0       -7.114266    2.675827    0.289661
     18          6           0       -6.025966    3.407882    0.738020
     19          6           0       -6.336654    4.892765    0.618029
     20          6           0       -7.647419    4.949254    0.251888
     21          6           0       -8.099810    3.499454    0.042449
     22          6           0       -5.404636    5.939617    1.215239
     23          6           0       -8.707114    6.057930    0.057309
     24          6           0       -8.557440    7.263993    0.721053
     25          7           0       -9.182287    0.685699   -0.589080
     26          6           0       -9.850851    1.816583   -0.662459
     27          6           0      -11.294879    1.499224   -1.127802
     28          6           0      -11.341123    0.181577   -1.211715
     29          6           0       -9.949322   -0.368668   -0.890497
     30          6           0      -12.325550    2.524285   -1.262588
     31          6           0      -12.469196   -0.772942   -1.601997
     32          6           0      -12.292236   -1.243969   -3.102099
     33          7           0       -7.228867   -1.446850   -0.099972
     34          6           0       -8.282833   -2.240929   -0.461953
     35          6           0       -7.930409   -3.588276   -0.474153
     36          6           0       -6.591951   -3.539105   -0.100080
     37          6           0       -6.165482   -2.196103    0.159774
     38          6           0       -8.758651   -4.815477   -0.675554
     39          6           0       -5.369429   -4.302931    0.224532
     40          8           0       -5.222703   -5.540881    0.213012
     41          6           0       -4.185790   -3.378458    0.524726
     42          6           0       -3.545216   -3.635176    1.799952
     43          8           0       -3.778127   -3.003062    2.850927
     44          8           0       -2.777350   -4.722117    1.757402
     45          6           0       -2.086154   -5.198600    2.929749
     46          6           0        2.893460   -0.963378   -1.235708
     47          6           0        4.058128   -0.540089   -0.437297
     48          6           0        5.107646    0.223924   -0.918168
     49          6           0        4.992583    1.013498   -2.301679
     50          6           0        6.454097    0.326721   -0.173193
     51          6           0        7.597349   -0.257042   -0.948416
     52          6           0        8.895882   -0.098102   -0.155315
     53          6           0       10.162516   -0.409855   -0.857156
     54          6           0       10.119077   -1.850336   -1.355665
     55          6           0       11.477067   -0.152285    0.013802
     56          6           0       12.839417   -0.351521   -0.681841
     57          6           0       14.061480   -0.048676    0.275978
     58          6           0       15.360697   -0.232690   -0.440166
     59          6           0       15.764072   -1.731047   -0.759589
     60          6           0       16.476817    0.440165    0.414527
     61          6           0       17.908176    0.572765   -0.188457
     62          6           0       18.852132    1.371226    0.666773
     63          6           0       20.277085    1.354166    0.175648
     64          6           0       20.460743    2.234790   -1.082314
     65          6           0       21.147056    1.843471    1.273765
     66          1           0       -4.083478    3.727204    1.601252
     67          1           0      -10.174605    3.869296   -0.474724
     68          1           0      -10.341298   -2.547059   -1.238126
     69          1           0       -2.432603   -0.706415    2.001635
     70          1           0       -2.263771    1.737971    1.171713
     71          1           0       -2.063757    0.713746    3.333487
     72          1           0       -2.816216    2.346943    3.645410
     73          1           0       -3.778722    0.587597    3.456976
     74          1           0       -1.946431   -1.544590   -0.280907
     75          1           0       -2.086629    0.136451   -0.768014
     76          1           0       -0.147929    0.230173    1.134021
     77          1           0       -0.390524   -1.118944    1.537013
     78          1           0       -5.796150    6.919828    0.980981
     79          1           0       -5.543726    6.274019    2.138077
     80          1           0       -4.394978    5.912092    0.884583
     81          1           0       -9.439219    5.856044   -0.752793
     82          1           0       -9.352491    7.994226    0.583773
     83          1           0       -7.603525    7.330436    1.410811
     84          1           0      -12.082758    3.163734   -1.997105
     85          1           0      -13.428075    2.103171   -1.640191
     86          1           0      -12.505108    3.296617   -0.606542
     87          1           0      -12.436868   -1.609306   -1.009833
     88          1           0      -13.457259   -0.446241   -1.512502
     89          1           0      -13.001011   -1.923910   -3.249130
     90          1           0      -12.348781   -0.486034   -3.779590
     91          1           0      -11.387207   -1.524121   -3.358155
     92          1           0       -9.331728   -4.760431   -1.647007
     93          1           0       -7.963353   -5.669179   -0.682692
     94          1           0       -9.634392   -5.027184   -0.094832
     95          1           0       -3.479292   -3.644810   -0.271258
     96          1           0       -1.455125   -4.449690    3.475101
     97          1           0       -2.995865   -5.347194    3.666005
     98          1           0       -1.678410   -6.264652    2.579874
     99          1           0        2.961006   -2.028808   -1.280387
    100          1           0        2.567312   -0.560581   -2.014691
    101          1           0        4.089247   -1.179787    0.517388
    102          1           0        4.256118    0.889614   -2.727311
    103          1           0        5.181215    2.091249   -1.887519
    104          1           0        5.781947    0.774854   -3.153657
    105          1           0        6.609989    1.335831    0.236207
    106          1           0        6.281816   -0.275554    0.842245
    107          1           0        7.425979   -1.299987   -1.138135
    108          1           0        7.365875    0.231092   -1.896566
    109          1           0        8.870423    1.064438    0.112847
    110          1           0        8.807847   -0.504749    0.774738
    111          1           0       10.357831    0.234057   -1.651939
    112          1           0        9.300138   -2.135527   -1.819268
    113          1           0       10.925443   -2.041245   -2.001367
    114          1           0       10.201970   -2.397308   -0.614603
    115          1           0       11.459531    0.866903    0.317656
    116          1           0       11.581609   -0.822993    0.980520
    117          1           0       12.897681   -1.493956   -0.878783
    118          1           0       12.798378    0.213774   -1.587010
    119          1           0       14.047912    1.048157    0.849157
    120          1           0       14.084380   -0.761627    0.965074
    121          1           0       15.230488    0.309577   -1.367554
    122          1           0       15.942389   -2.348381    0.254015
    123          1           0       15.225448   -2.220891   -1.399293
    124          1           0       16.857421   -1.649800   -1.202028
    125          1           0       16.231919    1.569910    0.570151
    126          1           0       16.387059   -0.044718    1.414914
    127          1           0       18.335066   -0.360021   -0.417606
    128          1           0       17.731980    1.072712   -1.264743
    129          1           0       18.556943    2.376287    0.576978
    130          1           0       18.927088    0.955077    1.637890
    131          1           0       20.451083    0.317919   -0.204849
    132          1           0       20.127253    3.311166   -0.650244
    133          1           0       21.539034    2.264186   -1.384279
    134          1           0       19.965056    1.987127   -2.119669
    135          1           0       21.101734    1.116981    2.058145
    136          1           0       22.249114    2.117783    1.028100
    137          1           0       20.748200    2.792035    1.687856
 ---------------------------------------------------------------------

 SCF Done:  E(RCAM-B3LYP) =  -2933.38395460     A.U. after   16 cycles

 Excitation energies and oscillator strengths:

 Excited State   1:      Singlet-A      1.9995 eV  620.06 nm  f=0.3025  <S**2>=0.000
     240 -> 243        0.18635
     241 -> 242        0.68316
 This state for optimization and/or second-order correction.
 Total Energy, E(TD-HF/TD-DFT) =  -2933.31047256
 Copying the excited state density for this state as the 1-particle RhoCI density.

 The electronic state is 1-A.
 Alpha  occ. eigenvalues --  -46.81224 -19.21646 -19.21625 -19.15287 -19.15204
 Alpha  occ. eigenvalues --  -19.14026 -14.38198 -14.36398 -14.35412 -14.34226
 Alpha  occ. eigenvalues --  -10.34722 -10.33644 -10.29063 -10.28615 -10.27371
 Alpha  occ. eigenvalues --  -10.26665 -10.26162 -10.25922 -10.25477 -10.25400
 Alpha  occ. eigenvalues --  -10.24752 -10.24635 -10.24550 -10.24113 -10.23982
 Alpha  occ. eigenvalues --  -10.23911 -10.23608 -10.23570 -10.23465 -10.23318
 Alpha  occ. eigenvalues --  -10.23048 -10.22837 -10.22768 -10.22633 -10.22521
 Alpha  occ. eigenvalues --  -10.22515 -10.22150 -10.21991 -10.21927 -10.21867
 Alpha  occ. eigenvalues --  -10.21818 -10.21767 -10.21754 -10.21658 -10.21448
 Alpha  occ. eigenvalues --  -10.21333 -10.21328 -10.21284 -10.21246 -10.21232
 Alpha  occ. eigenvalues --  -10.21203 -10.21035 -10.20948 -10.20931 -10.20920
 Alpha  occ. eigenvalues --  -10.20904 -10.20889 -10.20844 -10.20808 -10.20672
 Alpha  occ. eigenvalues --  -10.20520 -10.19725 -10.19297 -10.17556 -10.16417
 Alpha  occ. eigenvalues --   -3.09525  -1.84492  -1.83973  -1.83924  -1.12311
 Alpha  occ. eigenvalues --   -1.11054  -1.02863  -1.02051  -0.99829  -0.99078
 Alpha  occ. eigenvalues --   -0.99042  -0.98395  -0.95492  -0.87079  -0.86287
 Alpha  occ. eigenvalues --   -0.85699  -0.85394  -0.84643  -0.84105  -0.83798
 Alpha  occ. eigenvalues --   -0.83600  -0.83404  -0.82345  -0.81704  -0.81222
 Alpha  occ. eigenvalues --   -0.80496  -0.79186  -0.79013  -0.78635  -0.78273
 Alpha  occ. eigenvalues --   -0.77330  -0.76383  -0.75901  -0.75674  -0.74601
 Alpha  occ. eigenvalues --   -0.73599  -0.73157  -0.72681  -0.71532  -0.71100
 Alpha  occ. eigenvalues --   -0.70797  -0.70303  -0.70017  -0.69030  -0.68675
 Alpha  occ. eigenvalues --   -0.67708  -0.66664  -0.65889  -0.64881  -0.63773
 Alpha  occ. eigenvalues --   -0.62582  -0.62337  -0.61546  -0.60854  -0.60652
 Alpha  occ. eigenvalues --   -0.60095  -0.59877  -0.59444  -0.58632  -0.58037
 Alpha  occ. eigenvalues --   -0.57923  -0.57658  -0.56471  -0.56424  -0.55514
 Alpha  occ. eigenvalues --   -0.55203  -0.54302  -0.53798  -0.53331  -0.53281
 Alpha  occ. eigenvalues --   -0.53165  -0.51901  -0.51684  -0.51279  -0.50990
 Alpha  occ. eigenvalues --   -0.50816  -0.50379  -0.49942  -0.49264  -0.49127
 Alpha  occ. eigenvalues --   -0.48999  -0.48844  -0.48265  -0.48096  -0.47948
 Alpha  occ. eigenvalues --   -0.47724  -0.47665  -0.47267  -0.47120  -0.46713
 Alpha  occ. eigenvalues --   -0.46482  -0.46416  -0.46215  -0.46090  -0.45934
 Alpha  occ. eigenvalues --   -0.45576  -0.45256  -0.45120  -0.44784  -0.44541
 Alpha  occ. eigenvalues --   -0.44472  -0.44166  -0.44079  -0.43901  -0.43678
 Alpha  occ. eigenvalues --   -0.43352  -0.42897  -0.42700  -0.42535  -0.42211
 Alpha  occ. eigenvalues --   -0.42141  -0.41860  -0.41769  -0.41684  -0.41470
 Alpha  occ. eigenvalues --   -0.41398  -0.41201  -0.41078  -0.40991  -0.40777
 Alpha  occ. eigenvalues --   -0.40506  -0.40432  -0.40288  -0.40002  -0.39784
 Alpha  occ. eigenvalues --   -0.39537  -0.39472  -0.39381  -0.38990  -0.38869
 Alpha  occ. eigenvalues --   -0.38560  -0.38502  -0.38143  -0.37919  -0.37738
 Alpha  occ. eigenvalues --   -0.37432  -0.37359  -0.37156  -0.37017  -0.36991
 Alpha  occ. eigenvalues --   -0.36839  -0.36581  -0.36396  -0.36285  -0.35861
 Alpha  occ. eigenvalues --   -0.35784  -0.35246  -0.35228  -0.34967  -0.34802
 Alpha  occ. eigenvalues --   -0.34525  -0.33951  -0.33910  -0.33646  -0.33565
 Alpha  occ. eigenvalues --   -0.33298  -0.33173  -0.32969  -0.32951  -0.32156
 Alpha  occ. eigenvalues --   -0.31631  -0.31500  -0.31294  -0.30982  -0.29744
 Alpha  occ. eigenvalues --   -0.29281  -0.29047  -0.28845  -0.28698  -0.26820
 Alpha  occ. eigenvalues --   -0.26643  -0.26420  -0.25594  -0.25160  -0.21948
 Alpha  occ. eigenvalues --   -0.19581
 Alpha virt. eigenvalues --   -0.07169  -0.02689   0.00255   0.01890   0.02594
 Alpha virt. eigenvalues --    0.03426   0.03853   0.04039   0.04952   0.05717
 Alpha virt. eigenvalues --    0.07027   0.09011   0.09775   0.09914   0.09980

 Mulliken charges:
               1
     1  Mg   0.823192
     2  C    0.142054
     3  C   -0.199179
     4  C   -0.145190
     5  C   -0.179768
     6  N   -0.619200
     7  C    0.264126
     8  C   -0.148873
     9  C   -0.111631
    10  C    0.283763
    11  C   -0.302787
    12  C   -0.147097
    13  C   -0.279032
    14  C    0.592310
    15  O   -0.525222
    16  O   -0.471986
    17  N   -0.695449
    18  C    0.319263
    19  C    0.008122
    20  C   -0.000679
    21  C    0.292880
    22  C   -0.382667
    23  C   -0.069786
    24  C   -0.232007
    25  N   -0.694617
    26  C    0.310102
    27  C    0.039657
    28  C    0.022554
    29  C    0.304810
    30  C   -0.394514
    31  C   -0.239367
    32  C   -0.321448
    33  N   -0.743418
    34  C    0.262652
    35  C    0.050503
    36  C   -0.001602
    37  C    0.277115
    38  C   -0.387730
    39  C    0.341216
    40  O   -0.494267
    41  C   -0.305530
    42  C    0.632016
    43  O   -0.507319
    44  O   -0.432166
    45  C   -0.088791
    46  C    0.045692
    47  C   -0.124957
    48  C    0.070327
    49  C   -0.301262
    50  C   -0.230225
    51  C   -0.164996
    52  C   -0.160488
    53  C   -0.058039
    54  C   -0.308355
    55  C   -0.182310
    56  C   -0.193885
    57  C   -0.145467
    58  C   -0.055578
    59  C   -0.305658
    60  C   -0.165897
    61  C   -0.188989
    62  C   -0.139642
    63  C   -0.058726
    64  C   -0.295172
    65  C   -0.308909
    66  H    0.089794
    67  H    0.060208
    68  H    0.081978
    69  H    0.091898
    70  H    0.098521
    71  H    0.106814
    72  H    0.079778
    73  H    0.145695
    74  H    0.134303
    75  H    0.120184
    76  H    0.132651
    77  H    0.122559
    78  H    0.107901
    79  H    0.142900
    80  H    0.125373
    81  H    0.107123
    82  H    0.112209
    83  H    0.090038
    84  H    0.132132
    85  H    0.088762
    86  H    0.130365
    87  H    0.113177
    88  H    0.103369
    89  H    0.108475
    90  H    0.110685
    91  H    0.118209
    92  H    0.104364
    93  H    0.141465
    94  H    0.131942
    95  H    0.171614
    96  H    0.133194
    97  H    0.125938
    98  H    0.131229
    99  H    0.136373
   100  H    0.123585
   101  H    0.095557
   102  H    0.099391
   103  H    0.112260
   104  H    0.099108
   105  H    0.105364
   106  H    0.073759
   107  H    0.105411
   108  H    0.096896
   109  H    0.060340
   110  H    0.106106
   111  H    0.087794
   112  H    0.101801
   113  H    0.097522
   114  H    0.112506
   115  H    0.093291
   116  H    0.062952
   117  H    0.086677
   118  H    0.093103
   119  H    0.062376
   120  H    0.101870
   121  H    0.082658
   122  H    0.078963
   123  H    0.118035
   124  H    0.089731
   125  H    0.073503
   126  H    0.081694
   127  H    0.094731
   128  H    0.072189
   129  H    0.093810
   130  H    0.092911
   131  H    0.080559
   132  H    0.071542
   133  H    0.097272
   134  H    0.091792
   135  H    0.108505
   136  H    0.089201
   137  H    0.101537
 Sum of Mulliken charges =  -0.00000

 Dipole moment (field-independent basis, Debye):
    X=              2.7049    Y=              6.4703    Z=              0.2128  Tot=              7.0162
 Quadrupole moment (field-independent basis, Debye-Ang):
   XX=           -342.9023   YY=           -390.3433   ZZ=           -395.3954
   XY=            -45.8605   XZ=             15.6151   YZ=             -1.1668

 Normal termination of Gaussian 16 at Sun Sep 15 12:12:36 2019.
