 Gaussian 16, Revision A.03,
 Gaussian 16:  ES64L-G16RevA.03 25-Dec-2016

 ----------------------------------------------------------------------
 # td=(NStates=1) iop(3/107=0140000000,3/108=0140000000) CAM-B3LYP/6-31
 G(d,p)
 ----------------------------------------------------------------------

 --
 TD
 --
 Symbolic Z-matrix:
 Charge =  0 Multiplicity = 1

                         Standard orientation:
 ---------------------------------------------------------------------
 Center     Atomic      Atomic             Coordinates (Angstroms)
 Number     Number       Type             X           Y           Z
 ---------------------------------------------------------------------
      1         12           0       -7.103134    0.625702    0.062313
      2          6           0       -4.837073   -1.960037    0.495061
      3          6           0       -4.728898    2.843722    1.108087
      4          6           0       -9.413746    3.118200   -0.453258
      5          6           0       -9.503926   -1.749094   -0.929718
      6          7           0       -5.034065    0.464771    0.646341
      7          6           0       -4.311561   -0.721961    0.740602
      8          6           0       -3.000321   -0.459127    1.173691
      9          6           0       -3.027901    1.013451    1.794510
     10          6           0       -4.284544    1.505070    1.194808
     11          6           0       -3.136421    0.974288    3.347808
     12          6           0       -1.969153   -0.604281    0.093146
     13          6           0       -0.405644   -0.484557    0.512962
     14          6           0        0.526816   -0.657671   -0.596121
     15          8           0        0.217356   -0.875618   -1.789850
     16          8           0        1.784066   -0.668765   -0.123753
     17          7           0       -7.049520    2.612064    0.385537
     18          6           0       -5.998942    3.316158    0.821298
     19          6           0       -6.416301    4.777284    0.806336
     20          6           0       -7.706688    4.922803    0.448547
     21          6           0       -8.114360    3.537587    0.116835
     22          6           0       -5.369426    5.767097    1.098748
     23          6           0       -8.559926    6.069066    0.177317
     24          6           0       -8.272013    7.172858    0.860868
     25          7           0       -9.086638    0.708289   -0.486098
     26          6           0       -9.850262    1.844847   -0.631774
     27          6           0      -11.244012    1.611852   -1.170313
     28          6           0      -11.247124    0.184289   -1.389459
     29          6           0       -9.900166   -0.307895   -0.846582
     30          6           0      -12.290750    2.534449   -1.281371
     31          6           0      -12.383696   -0.745674   -1.669841
     32          6           0      -12.350183   -1.286998   -3.220277
     33          7           0       -7.268901   -1.453476   -0.226610
     34          6           0       -8.260674   -2.257508   -0.572328
     35          6           0       -7.816645   -3.661753   -0.469981
     36          6           0       -6.511820   -3.562229   -0.088781
     37          6           0       -6.179500   -2.138165    0.057684
     38          6           0       -8.760547   -4.736615   -0.831317
     39          6           0       -5.351342   -4.444672    0.238212
     40          8           0       -5.121480   -5.609005    0.241874
     41          6           0       -4.238556   -3.320242    0.606824
     42          6           0       -3.514262   -3.723130    1.952997
     43          8           0       -3.679688   -3.189129    3.020913
     44          8           0       -2.637000   -4.748006    1.704176
     45          6           0       -2.126751   -5.251154    2.990072
     46          6           0        2.769779   -0.628261   -1.210925
     47          6           0        4.203963   -0.442494   -0.679964
     48          6           0        5.134799    0.454545   -1.109133
     49          6           0        4.947979    1.335778   -2.429614
     50          6           0        6.436313    0.645522   -0.405140
     51          6           0        7.629149   -0.021421   -1.114189
     52          6           0        8.884896   -0.175323   -0.227739
     53          6           0       10.197073   -0.505683   -0.905036
     54          6           0       10.193712   -1.948760   -1.418898
     55          6           0       11.458007   -0.374540   -0.099748
     56          6           0       12.784596   -0.687300   -0.652610
     57          6           0       13.904339   -0.157419    0.197534
     58          6           0       15.304490   -0.221278   -0.522297
     59          6           0       15.588151   -1.622050   -0.968287
     60          6           0       16.326110    0.369852    0.447113
     61          6           0       17.784033    0.583378   -0.054347
     62          6           0       18.766099    1.270463    0.879695
     63          6           0       20.165838    1.353236    0.323871
     64          6           0       20.373419    2.033373   -0.979506
     65          6           0       21.108701    1.977362    1.399619
     66          1           0       -3.811608    3.667041    1.629833
     67          1           0      -10.148365    3.893767   -0.563825
     68          1           0      -10.336918   -2.360004   -1.297353
     69          1           0       -2.827976   -1.217866    1.948869
     70          1           0       -2.234641    1.659895    1.634591
     71          1           0       -2.197945    0.486032    3.715242
     72          1           0       -3.301049    2.104002    3.740150
     73          1           0       -4.036447    0.388951    3.692358
     74          1           0       -2.057458   -1.458406   -0.456928
     75          1           0       -1.959197    0.482945   -0.348128
     76          1           0       -0.273694    0.493925    0.873651
     77          1           0       -0.310148   -1.253283    1.302318
     78          1           0       -5.651016    6.780684    0.676604
     79          1           0       -5.291367    6.050267    2.168779
     80          1           0       -4.402152    5.572239    0.715431
     81          1           0       -9.344540    6.045882   -0.427326
     82          1           0       -8.752489    8.168234    0.448641
     83          1           0       -7.293634    7.393421    1.515006
     84          1           0      -12.087042    3.377669   -1.909471
     85          1           0      -13.137272    2.180785   -1.642348
     86          1           0      -12.414776    3.014734   -0.127742
     87          1           0      -12.338010   -1.517844   -1.204855
     88          1           0      -13.416400   -0.308709   -1.451882
     89          1           0      -13.200905   -1.838423   -3.538687
     90          1           0      -12.424000   -0.371244   -3.940016
     91          1           0      -11.348161   -1.728264   -3.580886
     92          1           0       -9.049654   -4.695212   -1.834998
     93          1           0       -8.314380   -5.735262   -0.550299
     94          1           0       -9.799580   -4.525710   -0.273415
     95          1           0       -3.564468   -3.453259   -0.108961
     96          1           0       -1.306605   -4.580683    3.296363
     97          1           0       -2.972237   -5.149728    3.802229
     98          1           0       -1.761304   -6.326370    2.624431
     99          1           0        2.829236   -1.867910   -1.393094
    100          1           0        2.486299    0.032983   -2.052659
    101          1           0        4.350742   -1.254495    0.204965
    102          1           0        4.005250    1.090248   -2.787854
    103          1           0        5.055361    2.354345   -2.266235
    104          1           0        5.607687    0.900983   -3.182082
    105          1           0        6.623848    1.821371   -0.336271
    106          1           0        6.288361    0.278523    0.474007
    107          1           0        7.306981   -0.919652   -1.468790
    108          1           0        7.790022    0.641129   -1.845382
    109          1           0        9.098496    0.855022    0.194653
    110          1           0        8.796390   -0.576017    0.735187
    111          1           0       10.271997    0.210351   -1.813274
    112          1           0        9.258427   -2.121255   -1.905221
    113          1           0       11.169318   -2.154070   -2.042686
    114          1           0       10.242428   -2.734755   -0.705830
    115          1           0       11.412515    0.705787    0.148147
    116          1           0       11.241528   -1.048139    0.891152
    117          1           0       12.770847   -1.670082   -0.845936
    118          1           0       13.179064   -0.169570   -1.645352
    119          1           0       13.783517    0.886003    0.344385
    120          1           0       13.934237   -0.605949    1.206542
    121          1           0       15.131730    0.336124   -1.391843
    122          1           0       15.535155   -2.286453   -0.014823
    123          1           0       14.929343   -2.030229   -1.721475
    124          1           0       16.573608   -1.751263   -1.407498
    125          1           0       16.028102    1.325010    0.683942
    126          1           0       16.515030   -0.075340    1.274269
    127          1           0       18.257579   -0.348453   -0.356471
    128          1           0       17.548778    1.198095   -0.878777
    129          1           0       18.146951    2.218801    1.044391
    130          1           0       18.737360    0.771598    1.898110
    131          1           0       20.625090    0.265161    0.310036
    132          1           0       19.929349    3.124838   -1.050328
    133          1           0       21.286775    1.937714   -1.232415
    134          1           0       19.861208    1.365259   -1.714399
    135          1           0       21.255666    1.619685    2.378675
    136          1           0       22.147820    2.178017    0.951851
    137          1           0       20.728036    2.995160    1.648039
 ---------------------------------------------------------------------

 SCF Done:  E(RCAM-B3LYP) =  -2933.47705958     A.U. after   16 cycles

 Excitation energies and oscillator strengths:

 Excited State   1:      Singlet-A      1.9483 eV  636.39 nm  f=0.2601  <S**2>=0.000
     240 -> 243        0.21164
     241 -> 242        0.67095
 This state for optimization and/or second-order correction.
 Total Energy, E(TD-HF/TD-DFT) =  -2933.40546249
 Copying the excited state density for this state as the 1-particle RhoCI density.

 The electronic state is 1-A.
 Alpha  occ. eigenvalues --  -46.80591 -19.22657 -19.22230 -19.17411 -19.17294
 Alpha  occ. eigenvalues --  -19.16257 -14.37418 -14.35610 -14.35603 -14.35267
 Alpha  occ. eigenvalues --  -10.34803 -10.34459 -10.31150 -10.29298 -10.28213
 Alpha  occ. eigenvalues --  -10.26452 -10.25622 -10.25507 -10.25374 -10.25243
 Alpha  occ. eigenvalues --  -10.24761 -10.24317 -10.24241 -10.23784 -10.23648
 Alpha  occ. eigenvalues --  -10.23484 -10.23421 -10.23250 -10.23194 -10.23014
 Alpha  occ. eigenvalues --  -10.22964 -10.22848 -10.22824 -10.22714 -10.22593
 Alpha  occ. eigenvalues --  -10.22552 -10.22538 -10.22438 -10.22400 -10.22334
 Alpha  occ. eigenvalues --  -10.22256 -10.22238 -10.22173 -10.22151 -10.21866
 Alpha  occ. eigenvalues --  -10.21699 -10.21651 -10.21550 -10.21348 -10.21253
 Alpha  occ. eigenvalues --  -10.21171 -10.21079 -10.21048 -10.20900 -10.20897
 Alpha  occ. eigenvalues --  -10.20697 -10.20222 -10.20105 -10.19889 -10.19856
 Alpha  occ. eigenvalues --  -10.19727 -10.19637 -10.19540 -10.19135 -10.18259
 Alpha  occ. eigenvalues --   -3.09042  -1.83997  -1.83515  -1.83434  -1.12816
 Alpha  occ. eigenvalues --   -1.12634  -1.08349  -1.04658  -1.02598  -1.00497
 Alpha  occ. eigenvalues --   -0.98376  -0.97436  -0.96589  -0.87517  -0.86656
 Alpha  occ. eigenvalues --   -0.85879  -0.85081  -0.84835  -0.84633  -0.83689
 Alpha  occ. eigenvalues --   -0.83666  -0.83098  -0.82345  -0.81926  -0.81435
 Alpha  occ. eigenvalues --   -0.80480  -0.79672  -0.78848  -0.78714  -0.78043
 Alpha  occ. eigenvalues --   -0.76867  -0.76259  -0.75484  -0.75023  -0.73861
 Alpha  occ. eigenvalues --   -0.72851  -0.72379  -0.71963  -0.71871  -0.70930
 Alpha  occ. eigenvalues --   -0.70904  -0.70200  -0.70020  -0.68941  -0.67623
 Alpha  occ. eigenvalues --   -0.67021  -0.66498  -0.65841  -0.64722  -0.63545
 Alpha  occ. eigenvalues --   -0.63319  -0.62023  -0.61602  -0.61465  -0.60199
 Alpha  occ. eigenvalues --   -0.59629  -0.59588  -0.58461  -0.57905  -0.57751
 Alpha  occ. eigenvalues --   -0.57701  -0.56793  -0.56626  -0.55853  -0.55057
 Alpha  occ. eigenvalues --   -0.54409  -0.54036  -0.53815  -0.53570  -0.53080
 Alpha  occ. eigenvalues --   -0.52258  -0.51939  -0.51907  -0.51437  -0.51116
 Alpha  occ. eigenvalues --   -0.50937  -0.50860  -0.50674  -0.49876  -0.49683
 Alpha  occ. eigenvalues --   -0.49440  -0.48919  -0.48520  -0.48317  -0.48179
 Alpha  occ. eigenvalues --   -0.48091  -0.47692  -0.47577  -0.47257  -0.47049
 Alpha  occ. eigenvalues --   -0.46731  -0.46597  -0.46529  -0.46350  -0.46058
 Alpha  occ. eigenvalues --   -0.45684  -0.45655  -0.45507  -0.45141  -0.45118
 Alpha  occ. eigenvalues --   -0.44722  -0.44657  -0.44414  -0.44265  -0.44036
 Alpha  occ. eigenvalues --   -0.43664  -0.43459  -0.43204  -0.43063  -0.42845
 Alpha  occ. eigenvalues --   -0.42462  -0.42351  -0.41668  -0.41573  -0.41452
 Alpha  occ. eigenvalues --   -0.41283  -0.41210  -0.40967  -0.40904  -0.40734
 Alpha  occ. eigenvalues --   -0.40677  -0.40362  -0.40227  -0.40079  -0.39787
 Alpha  occ. eigenvalues --   -0.39719  -0.39454  -0.39370  -0.39230  -0.39133
 Alpha  occ. eigenvalues --   -0.38956  -0.38953  -0.38870  -0.38749  -0.38310
 Alpha  occ. eigenvalues --   -0.38019  -0.37646  -0.37458  -0.37350  -0.37285
 Alpha  occ. eigenvalues --   -0.37081  -0.36974  -0.36902  -0.36521  -0.36117
 Alpha  occ. eigenvalues --   -0.35869  -0.35548  -0.35437  -0.35240  -0.34786
 Alpha  occ. eigenvalues --   -0.34319  -0.34139  -0.34058  -0.33878  -0.33835
 Alpha  occ. eigenvalues --   -0.33234  -0.33074  -0.32897  -0.32528  -0.32348
 Alpha  occ. eigenvalues --   -0.32103  -0.32020  -0.31537  -0.30868  -0.30563
 Alpha  occ. eigenvalues --   -0.30247  -0.29884  -0.28982  -0.28316  -0.27346
 Alpha  occ. eigenvalues --   -0.27039  -0.26620  -0.25378  -0.24946  -0.21661
 Alpha  occ. eigenvalues --   -0.18926
 Alpha virt. eigenvalues --   -0.06558  -0.03493   0.00053   0.02124   0.03091
 Alpha virt. eigenvalues --    0.03807   0.04006   0.04417   0.04840   0.05293
 Alpha virt. eigenvalues --    0.06481   0.08207   0.08987   0.09578   0.09820

 Mulliken charges:
               1
     1  Mg   0.814221
     2  C    0.115507
     3  C   -0.202099
     4  C   -0.179295
     5  C   -0.197054
     6  N   -0.645225
     7  C    0.340634
     8  C   -0.184865
     9  C   -0.157342
    10  C    0.340803
    11  C   -0.300725
    12  C   -0.148829
    13  C   -0.289307
    14  C    0.620217
    15  O   -0.493297
    16  O   -0.460114
    17  N   -0.706756
    18  C    0.362589
    19  C    0.006586
    20  C    0.057488
    21  C    0.211942
    22  C   -0.402633
    23  C   -0.029699
    24  C   -0.240419
    25  N   -0.660527
    26  C    0.306702
    27  C    0.058531
    28  C    0.007494
    29  C    0.267780
    30  C   -0.376918
    31  C   -0.217157
    32  C   -0.340728
    33  N   -0.730997
    34  C    0.297416
    35  C    0.048558
    36  C   -0.038235
    37  C    0.323170
    38  C   -0.383890
    39  C    0.374694
    40  O   -0.425100
    41  C   -0.333878
    42  C    0.603946
    43  O   -0.469586
    44  O   -0.447186
    45  C   -0.097293
    46  C    0.026189
    47  C   -0.126069
    48  C    0.077130
    49  C   -0.359907
    50  C   -0.215492
    51  C   -0.159307
    52  C   -0.187853
    53  C   -0.044331
    54  C   -0.315155
    55  C   -0.158654
    56  C   -0.154716
    57  C   -0.172512
    58  C   -0.071874
    59  C   -0.302143
    60  C   -0.166964
    61  C   -0.204269
    62  C   -0.156049
    63  C   -0.050187
    64  C   -0.283776
    65  C   -0.319253
    66  H    0.054209
    67  H    0.073970
    68  H    0.082598
    69  H    0.116766
    70  H    0.101668
    71  H    0.112099
    72  H    0.090060
    73  H    0.129830
    74  H    0.123299
    75  H    0.101447
    76  H    0.136596
    77  H    0.135146
    78  H    0.102749
    79  H    0.118997
    80  H    0.123466
    81  H    0.095573
    82  H    0.077858
    83  H    0.097336
    84  H    0.126490
    85  H    0.122598
    86  H    0.098847
    87  H    0.120539
    88  H    0.095954
    89  H    0.111621
    90  H    0.091952
    91  H    0.108870
    92  H    0.144104
    93  H    0.133518
    94  H    0.107255
    95  H    0.158007
    96  H    0.129377
    97  H    0.143250
    98  H    0.124428
    99  H    0.096449
   100  H    0.135795
   101  H    0.082504
   102  H    0.110011
   103  H    0.126921
   104  H    0.128628
   105  H    0.079578
   106  H    0.107228
   107  H    0.111118
   108  H    0.110379
   109  H    0.072520
   110  H    0.095650
   111  H    0.068861
   112  H    0.094181
   113  H    0.086000
   114  H    0.103292
   115  H    0.075550
   116  H    0.064613
   117  H    0.109084
   118  H    0.065468
   119  H    0.094797
   120  H    0.082791
   121  H    0.085123
   122  H    0.083870
   123  H    0.102625
   124  H    0.099777
   125  H    0.087892
   126  H    0.097313
   127  H    0.083586
   128  H    0.097522
   129  H    0.075830
   130  H    0.080954
   131  H    0.075728
   132  H    0.092508
   133  H    0.114827
   134  H    0.099118
   135  H    0.107467
   136  H    0.079999
   137  H    0.090039
 Sum of Mulliken charges =  -0.00000

 Dipole moment (field-independent basis, Debye):
    X=              1.2075    Y=              3.6142    Z=              0.2905  Tot=              3.8216
 Quadrupole moment (field-independent basis, Debye-Ang):
   XX=           -342.6862   YY=           -394.2062   ZZ=           -399.7914
   XY=            -12.5180   XZ=             11.1526   YZ=             -5.3471

 Normal termination of Gaussian 16 at Mon Sep 16 21:10:14 2019.
