 Gaussian 09, Revision D.01,
 Gaussian 09:  ES64L-G09RevD.01 24-Apr-2013

 -------------------------------------
 # td=(NStates=1) CAM-B3LYP/6-31G(d,p)
 -------------------------------------

 --
 TD
 --
 Symbolic Z-matrix:
 Charge =  0 Multiplicity = 1

                         Standard orientation:
 ---------------------------------------------------------------------
 Center     Atomic      Atomic             Coordinates (Angstroms)
 Number     Number       Type             X           Y           Z
 ---------------------------------------------------------------------
      1         12           0       -7.134930    0.598385   -0.021177
      2          6           0       -4.777411   -1.928478    0.448728
      3          6           0       -4.816405    2.842947    1.090926
      4          6           0       -9.422038    3.048684   -0.439762
      5          6           0       -9.463674   -1.783144   -0.937467
      6          7           0       -5.143147    0.480305    0.603583
      7          6           0       -4.381964   -0.672500    0.849430
      8          6           0       -2.937638   -0.301091    1.340307
      9          6           0       -3.100648    1.079610    1.767807
     10          6           0       -4.400555    1.540957    1.188171
     11          6           0       -3.049184    1.163947    3.300788
     12          6           0       -1.842796   -0.616617    0.127220
     13          6           0       -0.482940   -0.382799    0.522778
     14          6           0        0.508514   -0.604494   -0.630662
     15          8           0        0.226289   -0.963640   -1.727744
     16          8           0        1.709213   -0.321303   -0.101881
     17          7           0       -7.150067    2.636625    0.448887
     18          6           0       -6.049146    3.331177    0.770748
     19          6           0       -6.431002    4.748924    0.789593
     20          6           0       -7.676590    4.916819    0.268156
     21          6           0       -8.168227    3.481310    0.082905
     22          6           0       -5.534221    5.912470    1.107499
     23          6           0       -8.515245    6.033596    0.038179
     24          6           0       -8.606363    7.126949    0.854664
     25          7           0       -9.117585    0.643112   -0.654065
     26          6           0       -9.918175    1.768979   -0.672034
     27          6           0      -11.136134    1.430824   -1.267384
     28          6           0      -11.167069    0.011636   -1.346918
     29          6           0       -9.903638   -0.445978   -1.026273
     30          6           0      -12.285900    2.380424   -1.414004
     31          6           0      -12.343509   -0.851367   -1.699482
     32          6           0      -12.138198   -1.319689   -3.161443
     33          7           0       -7.202620   -1.354344   -0.188702
     34          6           0       -8.245891   -2.260260   -0.624398
     35          6           0       -7.753804   -3.570472   -0.617379
     36          6           0       -6.362902   -3.498817   -0.226572
     37          6           0       -6.122020   -2.111735    0.023673
     38          6           0       -8.493867   -4.724583   -0.944386
     39          6           0       -5.253211   -4.265996    0.185878
     40          8           0       -5.184400   -5.484601    0.199553
     41          6           0       -4.087179   -3.254496    0.511900
     42          6           0       -3.653780   -3.602301    1.968136
     43          8           0       -3.861346   -2.958141    3.005547
     44          8           0       -2.742439   -4.667394    1.981220
     45          6           0       -2.176812   -5.129429    3.198801
     46          6           0        2.681848   -0.545603   -1.183858
     47          6           0        4.076706   -0.406010   -0.566223
     48          6           0        5.142003    0.277162   -0.945620
     49          6           0        5.179691    0.933274   -2.247729
     50          6           0        6.409150    0.308263   -0.095120
     51          6           0        7.555830   -0.286795   -0.741926
     52          6           0        8.840976   -0.243085   -0.045418
     53          6           0       10.176692   -0.678354   -0.802991
     54          6           0       10.005691   -2.190828   -1.215990
     55          6           0       11.337824   -0.335369    0.066967
     56          6           0       12.751776   -0.533961   -0.583771
     57          6           0       13.948272   -0.198644    0.289745
     58          6           0       15.364062   -0.296932   -0.438980
     59          6           0       15.683173   -1.618477   -0.845781
     60          6           0       16.427878    0.378261    0.437327
     61          6           0       17.783281    0.672781   -0.185478
     62          6           0       18.823039    1.376757    0.683935
     63          6           0       20.220908    1.447754    0.118099
     64          6           0       20.309361    2.005275   -1.340676
     65          6           0       21.350041    2.144457    1.038387
     66          1           0       -3.857792    3.467486    1.355726
     67          1           0      -10.100454    3.816078   -0.575032
     68          1           0      -10.122322   -2.581728   -1.566009
     69          1           0       -2.744766   -1.196372    1.982528
     70          1           0       -2.315035    1.787895    1.480266
     71          1           0       -2.066083    1.008025    3.812947
     72          1           0       -3.568844    2.079670    3.617562
     73          1           0       -3.735874    0.541373    3.781621
     74          1           0       -2.017967   -1.679356   -0.238590
     75          1           0       -2.026820   -0.187432   -0.770216
     76          1           0       -0.308437    0.825026    0.896615
     77          1           0       -0.067367   -0.914135    1.453623
     78          1           0       -5.772936    6.835009    0.384167
     79          1           0       -5.703124    6.348925    2.071797
     80          1           0       -4.421168    5.840653    0.863347
     81          1           0       -9.246547    5.913716   -0.687232
     82          1           0       -9.198290    7.910979    0.482991
     83          1           0       -8.013061    7.330873    1.711571
     84          1           0      -12.094530    2.840830   -2.039666
     85          1           0      -13.492193    2.020609   -1.574046
     86          1           0      -12.316247    3.045527   -0.735646
     87          1           0      -12.389998   -1.641831   -1.140406
     88          1           0      -13.307175   -0.135054   -1.607758
     89          1           0      -13.058153   -1.840247   -3.483773
     90          1           0      -12.052057   -0.362807   -3.823996
     91          1           0      -11.212470   -1.870217   -3.326092
     92          1           0       -9.124110   -4.950696   -1.960817
     93          1           0       -7.912004   -5.531930   -0.690948
     94          1           0       -9.388208   -5.015150   -0.213507
     95          1           0       -3.251006   -3.388200   -0.018500
     96          1           0       -1.290241   -4.365152    3.504660
     97          1           0       -3.152326   -5.161572    4.067927
     98          1           0       -1.781138   -6.112408    3.059064
     99          1           0        2.474179   -1.493478   -1.592523
    100          1           0        2.460950    0.336026   -1.926667
    101          1           0        4.172293   -1.092297    0.295775
    102          1           0        4.214051    0.913354   -2.917350
    103          1           0        5.536915    2.055022   -2.020354
    104          1           0        6.032235    0.531840   -2.966586
    105          1           0        6.719866    1.421812    0.067856
    106          1           0        6.129999   -0.198528    0.866796
    107          1           0        7.083846   -1.213371   -1.144621
    108          1           0        7.889661    0.115344   -1.807820
    109          1           0        9.042589    0.950413    0.475334
    110          1           0        8.814705   -0.990758    0.712917
    111          1           0       10.207893   -0.107966   -1.727414
    112          1           0        9.246006   -2.044797   -2.088405
    113          1           0       10.878021   -2.602202   -1.711918
    114          1           0        9.654098   -2.752879   -0.339055
    115          1           0       11.312908    0.815171    0.353817
    116          1           0       11.404059   -0.922867    1.154233
    117          1           0       12.928103   -1.536791   -0.966221
    118          1           0       12.857153    0.009381   -1.434443
    119          1           0       13.917120    0.858710    0.651497
    120          1           0       14.174323   -1.024081    1.113462
    121          1           0       15.260106    0.370285   -1.300418
    122          1           0       15.877449   -2.373124    0.040224
    123          1           0       15.145181   -2.262802   -1.711572
    124          1           0       16.645483   -1.566933   -1.409534
    125          1           0       15.863873    1.495430    0.917472
    126          1           0       16.387516   -0.140550    1.350503
    127          1           0       18.113432   -0.239641   -0.256555
    128          1           0       17.620124    1.160507   -1.288291
    129          1           0       18.412088    2.434829    0.708828
    130          1           0       18.905710    1.093105    1.729699
    131          1           0       20.805716    0.466991    0.011174
    132          1           0       20.186881    3.083973   -1.082719
    133          1           0       21.292393    1.959505   -1.825702
    134          1           0       19.730335    1.683537   -1.957471
    135          1           0       21.366475    1.698519    1.988433
    136          1           0       22.481299    2.110545    0.544271
    137          1           0       21.326795    3.230895    1.413682
 ---------------------------------------------------------------------

 SCF Done:  E(RCAM-B3LYP) =  -2932.50057464     A.U. after   15 cycles

 Excitation energies and oscillator strengths:

 Excited State   1:      Singlet-A      2.0591 eV  602.13 nm  f=0.2235  <S**2>=0.000
     240 -> 243       -0.25128
     241 -> 242        0.65177
 This state for optimization and/or second-order correction.
 Total Energy, E(TD-HF/TD-KS) =  -2932.42490473
 Copying the excited state density for this state as the 1-particle RhoCI density.

 The electronic state is 1-A.
 Alpha  occ. eigenvalues --  -46.83486 -19.26759 -19.25623 -19.22043 -19.21528
 Alpha  occ. eigenvalues --  -19.19704 -14.41712 -14.39794 -14.39184 -14.38033
 Alpha  occ. eigenvalues --  -10.40187 -10.39238 -10.34532 -10.33418 -10.32476
 Alpha  occ. eigenvalues --  -10.31404 -10.30850 -10.30595 -10.30222 -10.29149
 Alpha  occ. eigenvalues --  -10.28810 -10.28758 -10.28634 -10.28612 -10.28521
 Alpha  occ. eigenvalues --  -10.28063 -10.28036 -10.27870 -10.27798 -10.27788
 Alpha  occ. eigenvalues --  -10.27366 -10.27364 -10.27226 -10.27171 -10.27108
 Alpha  occ. eigenvalues --  -10.27070 -10.27009 -10.26976 -10.26888 -10.26828
 Alpha  occ. eigenvalues --  -10.26766 -10.26615 -10.26400 -10.26359 -10.26291
 Alpha  occ. eigenvalues --  -10.26277 -10.26230 -10.26145 -10.26071 -10.26015
 Alpha  occ. eigenvalues --  -10.25895 -10.25892 -10.25794 -10.25735 -10.25664
 Alpha  occ. eigenvalues --  -10.25652 -10.25562 -10.25505 -10.25446 -10.25186
 Alpha  occ. eigenvalues --  -10.25183 -10.24996 -10.24070 -10.22861 -10.22532
 Alpha  occ. eigenvalues --   -3.12613  -1.87314  -1.86853  -1.86796  -1.19432
 Alpha  occ. eigenvalues --   -1.16232  -1.11197  -1.10418  -1.08057  -1.04154
 Alpha  occ. eigenvalues --   -1.03336  -1.02244  -1.01550  -0.93163  -0.92418
 Alpha  occ. eigenvalues --   -0.91195  -0.90153  -0.89835  -0.89542  -0.89161
 Alpha  occ. eigenvalues --   -0.88472  -0.88264  -0.88128  -0.87953  -0.86764
 Alpha  occ. eigenvalues --   -0.85738  -0.84730  -0.84340  -0.83526  -0.83032
 Alpha  occ. eigenvalues --   -0.81811  -0.81135  -0.80841  -0.80329  -0.78134
 Alpha  occ. eigenvalues --   -0.77725  -0.77215  -0.76478  -0.75977  -0.75743
 Alpha  occ. eigenvalues --   -0.75594  -0.75181  -0.74722  -0.73750  -0.73020
 Alpha  occ. eigenvalues --   -0.72266  -0.70612  -0.69846  -0.69183  -0.69025
 Alpha  occ. eigenvalues --   -0.67752  -0.66279  -0.65728  -0.64874  -0.64195
 Alpha  occ. eigenvalues --   -0.63286  -0.62998  -0.62949  -0.62718  -0.62066
 Alpha  occ. eigenvalues --   -0.61465  -0.61002  -0.60659  -0.59763  -0.59243
 Alpha  occ. eigenvalues --   -0.58658  -0.58257  -0.57873  -0.57730  -0.57338
 Alpha  occ. eigenvalues --   -0.56817  -0.55727  -0.55502  -0.55443  -0.55041
 Alpha  occ. eigenvalues --   -0.54534  -0.54313  -0.53775  -0.53649  -0.53511
 Alpha  occ. eigenvalues --   -0.52906  -0.52431  -0.52056  -0.51938  -0.51795
 Alpha  occ. eigenvalues --   -0.51779  -0.51358  -0.51225  -0.51075  -0.50936
 Alpha  occ. eigenvalues --   -0.50644  -0.50455  -0.50296  -0.50019  -0.49776
 Alpha  occ. eigenvalues --   -0.49536  -0.49428  -0.49035  -0.48746  -0.48394
 Alpha  occ. eigenvalues --   -0.48297  -0.48198  -0.47852  -0.47610  -0.47277
 Alpha  occ. eigenvalues --   -0.47032  -0.46799  -0.46312  -0.46136  -0.45960
 Alpha  occ. eigenvalues --   -0.45710  -0.45570  -0.45412  -0.45289  -0.44988
 Alpha  occ. eigenvalues --   -0.44685  -0.44559  -0.44393  -0.44274  -0.43882
 Alpha  occ. eigenvalues --   -0.43705  -0.43682  -0.43414  -0.43304  -0.43105
 Alpha  occ. eigenvalues --   -0.42953  -0.42863  -0.42560  -0.42302  -0.42264
 Alpha  occ. eigenvalues --   -0.41972  -0.41883  -0.41812  -0.41613  -0.41479
 Alpha  occ. eigenvalues --   -0.41140  -0.40917  -0.40882  -0.40422  -0.40242
 Alpha  occ. eigenvalues --   -0.40096  -0.39761  -0.39260  -0.39217  -0.39149
 Alpha  occ. eigenvalues --   -0.39013  -0.38710  -0.38647  -0.38500  -0.38148
 Alpha  occ. eigenvalues --   -0.37857  -0.37116  -0.37077  -0.36564  -0.36402
 Alpha  occ. eigenvalues --   -0.36181  -0.36115  -0.35997  -0.35466  -0.35326
 Alpha  occ. eigenvalues --   -0.34878  -0.34774  -0.34388  -0.34326  -0.33622
 Alpha  occ. eigenvalues --   -0.33595  -0.33183  -0.32404  -0.30928  -0.30169
 Alpha  occ. eigenvalues --   -0.29856  -0.28921  -0.27909  -0.26660  -0.23554
 Alpha  occ. eigenvalues --   -0.21649
 Alpha virt. eigenvalues --   -0.06731  -0.03772   0.01508   0.03295   0.05127
 Alpha virt. eigenvalues --    0.05488   0.05954   0.06329   0.06772   0.07861
 Alpha virt. eigenvalues --    0.08017   0.10560   0.10967   0.11233   0.11376

 Mulliken charges:
               1
     1  Mg   0.815776
     2  C    0.034658
     3  C   -0.228380
     4  C   -0.167341
     5  C   -0.179529
     6  N   -0.638036
     7  C    0.294635
     8  C   -0.126815
     9  C   -0.156088
    10  C    0.350865
    11  C   -0.318790
    12  C   -0.179324
    13  C   -0.257160
    14  C    0.632450
    15  O   -0.464782
    16  O   -0.476915
    17  N   -0.704185
    18  C    0.369518
    19  C   -0.005475
    20  C    0.060347
    21  C    0.270963
    22  C   -0.389579
    23  C   -0.103965
    24  C   -0.221288
    25  N   -0.697266
    26  C    0.303263
    27  C   -0.033180
    28  C   -0.008343
    29  C    0.309555
    30  C   -0.287641
    31  C   -0.206118
    32  C   -0.313269
    33  N   -0.776783
    34  C    0.289656
    35  C    0.089956
    36  C   -0.001303
    37  C    0.351059
    38  C   -0.425028
    39  C    0.348749
    40  O   -0.469802
    41  C   -0.293942
    42  C    0.603340
    43  O   -0.465377
    44  O   -0.463491
    45  C   -0.054249
    46  C    0.006892
    47  C   -0.156005
    48  C    0.155614
    49  C   -0.361353
    50  C   -0.208880
    51  C   -0.163902
    52  C   -0.149165
    53  C   -0.075768
    54  C   -0.304725
    55  C   -0.147527
    56  C   -0.180211
    57  C   -0.163548
    58  C   -0.065524
    59  C   -0.301801
    60  C   -0.162386
    61  C   -0.163720
    62  C   -0.175214
    63  C   -0.061815
    64  C   -0.291797
    65  C   -0.323547
    66  H    0.091208
    67  H    0.073374
    68  H    0.092313
    69  H    0.132363
    70  H    0.112785
    71  H    0.114857
    72  H    0.101233
    73  H    0.137220
    74  H    0.100118
    75  H    0.130811
    76  H    0.093951
    77  H    0.129548
    78  H    0.104084
    79  H    0.129656
    80  H    0.110671
    81  H    0.097554
    82  H    0.103788
    83  H    0.108745
    84  H    0.110188
    85  H    0.079015
    86  H    0.116496
    87  H    0.114742
    88  H    0.086318
    89  H    0.100933
    90  H    0.097794
    91  H    0.113389
    92  H    0.117374
    93  H    0.157540
    94  H    0.112464
    95  H    0.167337
    96  H    0.099664
    97  H    0.102033
    98  H    0.139071
    99  H    0.148102
   100  H    0.113054
   101  H    0.085387
   102  H    0.106244
   103  H    0.094558
   104  H    0.113800
   105  H    0.087946
   106  H    0.106305
   107  H    0.101127
   108  H    0.070739
   109  H    0.050031
   110  H    0.097540
   111  H    0.087747
   112  H    0.094132
   113  H    0.111358
   114  H    0.109274
   115  H    0.076403
   116  H    0.066509
   117  H    0.092724
   118  H    0.098199
   119  H    0.087100
   120  H    0.065748
   121  H    0.084854
   122  H    0.086493
   123  H    0.092471
   124  H    0.101450
   125  H    0.020135
   126  H    0.102553
   127  H    0.120644
   128  H    0.084864
   129  H    0.092085
   130  H    0.101222
   131  H    0.084715
   132  H    0.096944
   133  H    0.093363
   134  H    0.103451
   135  H    0.109050
   136  H    0.078899
   137  H    0.087180
 Sum of Mulliken charges =   0.00000

 Dipole moment (field-independent basis, Debye):
    X=              2.6275    Y=              3.9278    Z=             -0.5680  Tot=              4.7596
 Quadrupole moment (field-independent basis, Debye-Ang):
   XX=           -349.2425   YY=           -391.5082   ZZ=           -396.8588
   XY=            -34.6925   XZ=              5.5363   YZ=             -0.5167

 Normal termination of Gaussian 09 at Sat Jul  6 09:09:19 2019.
