 Gaussian 16, Revision A.03,
 Gaussian 16:  ES64L-G16RevA.03 25-Dec-2016

 ----------------------------------------------------------------------
 # td=(NStates=1) iop(3/107=0140000000,3/108=0140000000) CAM-B3LYP/6-31
 G(d,p)
 ----------------------------------------------------------------------

 --
 TD
 --
 Symbolic Z-matrix:
 Charge =  0 Multiplicity = 1

                         Standard orientation:
 ---------------------------------------------------------------------
 Center     Atomic      Atomic             Coordinates (Angstroms)
 Number     Number       Type             X           Y           Z
 ---------------------------------------------------------------------
      1         12           0       -7.123882    0.607771    0.076306
      2          6           0       -4.753899   -1.916027    0.575970
      3          6           0       -4.751504    2.872268    1.184599
      4          6           0       -9.399004    3.088963   -0.457780
      5          6           0       -9.575671   -1.740556   -0.754559
      6          7           0       -5.125372    0.497457    0.746650
      7          6           0       -4.338743   -0.635997    0.846374
      8          6           0       -2.869143   -0.330588    1.236807
      9          6           0       -3.012700    1.160654    1.655053
     10          6           0       -4.348699    1.515690    1.170794
     11          6           0       -2.892718    1.227788    3.226572
     12          6           0       -1.923721   -0.598514    0.058739
     13          6           0       -0.431048   -0.326849    0.433438
     14          6           0        0.547040   -0.808305   -0.677078
     15          8           0        0.128446   -1.274566   -1.822691
     16          8           0        1.797529   -0.426033   -0.313348
     17          7           0       -7.007325    2.589439    0.343862
     18          6           0       -6.053114    3.380198    0.797906
     19          6           0       -6.441759    4.808593    0.775771
     20          6           0       -7.734145    4.775409    0.346455
     21          6           0       -8.120978    3.464268    0.122235
     22          6           0       -5.428193    5.913598    1.070662
     23          6           0       -8.739595    5.935718    0.160768
     24          6           0       -8.636429    7.205448    0.748739
     25          7           0       -9.043799    0.655593   -0.561185
     26          6           0       -9.816325    1.796964   -0.677253
     27          6           0      -11.188824    1.432755   -1.190684
     28          6           0      -11.237710    0.090703   -1.273417
     29          6           0       -9.864310   -0.368917   -0.865646
     30          6           0      -12.158890    2.518355   -1.576065
     31          6           0      -12.441131   -0.809053   -1.695325
     32          6           0      -12.256622   -1.345269   -3.157979
     33          7           0       -7.187055   -1.317759   -0.165769
     34          6           0       -8.281770   -2.257907   -0.426037
     35          6           0       -7.770265   -3.615662   -0.416811
     36          6           0       -6.424642   -3.520400   -0.049331
     37          6           0       -6.081220   -2.154262    0.076554
     38          6           0       -8.576501   -4.788104   -0.671827
     39          6           0       -5.245253   -4.307178    0.109334
     40          8           0       -5.084918   -5.475341    0.153342
     41          6           0       -4.143347   -3.202470    0.562110
     42          6           0       -3.486831   -3.685384    1.867070
     43          8           0       -3.821468   -3.121962    2.900374
     44          8           0       -2.606814   -4.626050    1.691588
     45          6           0       -2.230810   -5.388337    2.913710
     46          6           0        2.862204   -0.784919   -1.324983
     47          6           0        4.139924   -0.541144   -0.613833
     48          6           0        5.084891    0.398969   -0.956996
     49          6           0        4.910701    1.271226   -2.095994
     50          6           0        6.417892    0.426893   -0.160811
     51          6           0        7.580904   -0.236662   -0.985466
     52          6           0        8.860045   -0.206994   -0.093246
     53          6           0       10.215426   -0.412098   -0.797678
     54          6           0        9.997581   -1.921645   -1.447356
     55          6           0       11.416260   -0.304158    0.134531
     56          6           0       12.701221   -0.438615   -0.600730
     57          6           0       14.033318   -0.095519    0.239342
     58          6           0       15.317106   -0.120381   -0.531317
     59          6           0       15.643857   -1.611515   -0.770186
     60          6           0       16.324028    0.520345    0.457587
     61          6           0       17.753827    0.514472   -0.200005
     62          6           0       18.772887    1.252035    0.737351
     63          6           0       20.296075    1.325190    0.145591
     64          6           0       20.246525    2.144849   -1.188418
     65          6           0       21.184970    1.873147    1.269575
     66          1           0       -4.211485    3.673899    1.693941
     67          1           0      -10.105271    3.907500   -0.538750
     68          1           0      -10.349711   -2.494033   -0.913533
     69          1           0       -2.458077   -0.895946    2.184997
     70          1           0       -2.278281    1.747256    1.396723
     71          1           0       -1.971826    0.772119    3.712570
     72          1           0       -3.218491    2.234857    3.717132
     73          1           0       -3.616474    0.624486    3.601452
     74          1           0       -2.045420   -1.710244   -0.242335
     75          1           0       -2.167832    0.088865   -0.834043
     76          1           0       -0.161408    0.689584    0.511089
     77          1           0       -0.220406   -0.988588    1.422982
     78          1           0       -5.570502    6.768963    0.372556
     79          1           0       -5.563058    6.532568    1.959222
     80          1           0       -4.439452    5.297544    1.008112
     81          1           0       -9.596007    5.808442   -0.607250
     82          1           0       -9.437539    7.975092    0.635275
     83          1           0       -7.801743    7.463604    1.429556
     84          1           0      -11.732980    3.180579   -2.149007
     85          1           0      -12.997168    1.899404   -2.108055
     86          1           0      -12.602112    2.968431   -0.672658
     87          1           0      -12.442163   -1.630500   -1.219646
     88          1           0      -13.358944   -0.271119   -1.407740
     89          1           0      -13.147748   -2.093102   -3.333136
     90          1           0      -12.340775   -0.507603   -3.795076
     91          1           0      -11.404626   -1.948613   -3.205741
     92          1           0       -9.217256   -4.749749   -1.488254
     93          1           0       -7.885683   -5.589998   -0.772749
     94          1           0       -9.207305   -4.909228   -0.040298
     95          1           0       -3.225789   -3.312217   -0.207067
     96          1           0       -1.496782   -4.727215    3.300226
     97          1           0       -3.052875   -5.625634    3.591594
     98          1           0       -1.715271   -6.289773    2.639992
     99          1           0        2.872016   -1.979720   -1.569854
    100          1           0        2.666225   -0.350302   -2.117223
    101          1           0        4.357668   -1.202721    0.394413
    102          1           0        3.914696    1.378744   -2.665740
    103          1           0        5.092640    2.448068   -1.812768
    104          1           0        5.586386    1.009823   -2.794201
    105          1           0        6.571831    1.506908    0.326752
    106          1           0        6.141857   -0.086014    0.680387
    107          1           0        7.334223   -1.327240   -1.228700
    108          1           0        7.837650    0.408881   -1.850288
    109          1           0        8.864451    0.735124    0.340930
    110          1           0        8.942147   -0.847324    0.811444
    111          1           0       10.225943    0.248616   -1.660416
    112          1           0        9.250964   -2.117371   -2.131852
    113          1           0       10.824867   -2.243102   -1.981770
    114          1           0        9.642787   -2.632346   -0.582228
    115          1           0       11.361606    0.718698    0.663110
    116          1           0       11.160983   -0.883448    1.019026
    117          1           0       12.886775   -1.470029   -0.821711
    118          1           0       12.821784    0.170171   -1.501444
    119          1           0       13.793500    0.901848    0.605628
    120          1           0       14.116169   -0.550949    1.098857
    121          1           0       15.276578    0.508277   -1.405296
    122          1           0       15.596117   -1.851032    0.378073
    123          1           0       14.859387   -2.193619   -1.454503
    124          1           0       16.444990   -1.853413   -1.225188
    125          1           0       16.047023    1.697629    0.613349
    126          1           0       16.513678    0.081421    1.392647
    127          1           0       18.115485   -0.715813   -0.324292
    128          1           0       17.596141    1.055639   -1.053750
    129          1           0       18.293330    2.354663    0.769711
    130          1           0       18.635833    1.050798    1.800225
    131          1           0       20.420336    0.185809   -0.160771
    132          1           0       20.002167    3.160237   -0.896402
    133          1           0       21.449296    2.045144   -1.670787
    134          1           0       19.795239    1.665221   -1.974725
    135          1           0       21.172873    1.206224    2.086564
    136          1           0       22.369669    1.699389    0.957383
    137          1           0       21.007386    2.656312    1.367698
 ---------------------------------------------------------------------

 SCF Done:  E(RCAM-B3LYP) =  -2933.36392804     A.U. after   16 cycles

 Excitation energies and oscillator strengths:

 Excited State   1:      Singlet-A      1.9664 eV  630.51 nm  f=0.2837  <S**2>=0.000
     240 -> 243        0.21688
     241 -> 242        0.67048
 This state for optimization and/or second-order correction.
 Total Energy, E(TD-HF/TD-DFT) =  -2933.29166421
 Copying the excited state density for this state as the 1-particle RhoCI density.

 The electronic state is 1-A.
 Alpha  occ. eigenvalues --  -46.78240 -19.22996 -19.22500 -19.16237 -19.15782
 Alpha  occ. eigenvalues --  -19.14819 -14.37603 -14.35397 -14.34839 -14.34715
 Alpha  occ. eigenvalues --  -10.34906 -10.33324 -10.29477 -10.27509 -10.27060
 Alpha  occ. eigenvalues --  -10.25961 -10.25681 -10.24933 -10.24792 -10.24753
 Alpha  occ. eigenvalues --  -10.24669 -10.24584 -10.24497 -10.24061 -10.23783
 Alpha  occ. eigenvalues --  -10.23497 -10.23282 -10.23185 -10.23168 -10.23114
 Alpha  occ. eigenvalues --  -10.23100 -10.23014 -10.22963 -10.22838 -10.22779
 Alpha  occ. eigenvalues --  -10.22636 -10.22625 -10.22593 -10.22362 -10.22176
 Alpha  occ. eigenvalues --  -10.22142 -10.22011 -10.21922 -10.21749 -10.21698
 Alpha  occ. eigenvalues --  -10.21657 -10.21611 -10.21587 -10.21553 -10.21416
 Alpha  occ. eigenvalues --  -10.21395 -10.21374 -10.21348 -10.21301 -10.21276
 Alpha  occ. eigenvalues --  -10.21096 -10.20937 -10.20561 -10.20434 -10.20128
 Alpha  occ. eigenvalues --  -10.20065 -10.19651 -10.18885 -10.18788 -10.18268
 Alpha  occ. eigenvalues --   -3.07184  -1.82096  -1.81697  -1.81587  -1.13158
 Alpha  occ. eigenvalues --   -1.10716  -1.07683  -1.03109  -1.00125  -0.99093
 Alpha  occ. eigenvalues --   -0.98107  -0.97518  -0.95224  -0.86953  -0.86100
 Alpha  occ. eigenvalues --   -0.85717  -0.84190  -0.83967  -0.83477  -0.83331
 Alpha  occ. eigenvalues --   -0.82931  -0.82668  -0.82331  -0.81603  -0.80634
 Alpha  occ. eigenvalues --   -0.79688  -0.78939  -0.78508  -0.77742  -0.77399
 Alpha  occ. eigenvalues --   -0.76843  -0.76561  -0.76001  -0.75028  -0.73775
 Alpha  occ. eigenvalues --   -0.72873  -0.72560  -0.72437  -0.71577  -0.71210
 Alpha  occ. eigenvalues --   -0.71076  -0.70197  -0.69390  -0.68322  -0.67787
 Alpha  occ. eigenvalues --   -0.67048  -0.66038  -0.65368  -0.64526  -0.63158
 Alpha  occ. eigenvalues --   -0.62366  -0.61825  -0.60961  -0.60905  -0.60399
 Alpha  occ. eigenvalues --   -0.59828  -0.59712  -0.59190  -0.58767  -0.58031
 Alpha  occ. eigenvalues --   -0.57569  -0.56254  -0.56066  -0.55775  -0.54929
 Alpha  occ. eigenvalues --   -0.54305  -0.54017  -0.53487  -0.52594  -0.52048
 Alpha  occ. eigenvalues --   -0.52016  -0.51707  -0.51121  -0.51026  -0.50971
 Alpha  occ. eigenvalues --   -0.50755  -0.50247  -0.49925  -0.49697  -0.49194
 Alpha  occ. eigenvalues --   -0.48827  -0.48599  -0.48182  -0.47982  -0.47596
 Alpha  occ. eigenvalues --   -0.47475  -0.47377  -0.47105  -0.46977  -0.46881
 Alpha  occ. eigenvalues --   -0.46728  -0.46523  -0.46387  -0.46230  -0.45872
 Alpha  occ. eigenvalues --   -0.45714  -0.45244  -0.45005  -0.44892  -0.44750
 Alpha  occ. eigenvalues --   -0.44466  -0.44257  -0.44067  -0.43732  -0.43456
 Alpha  occ. eigenvalues --   -0.43332  -0.43099  -0.43014  -0.42902  -0.42303
 Alpha  occ. eigenvalues --   -0.42082  -0.41728  -0.41629  -0.41528  -0.41456
 Alpha  occ. eigenvalues --   -0.41324  -0.41171  -0.41073  -0.40789  -0.40620
 Alpha  occ. eigenvalues --   -0.40509  -0.40257  -0.40068  -0.39853  -0.39636
 Alpha  occ. eigenvalues --   -0.39407  -0.39194  -0.38910  -0.38767  -0.38699
 Alpha  occ. eigenvalues --   -0.38431  -0.38380  -0.38182  -0.38078  -0.37777
 Alpha  occ. eigenvalues --   -0.37667  -0.37460  -0.37312  -0.37193  -0.37055
 Alpha  occ. eigenvalues --   -0.36890  -0.36817  -0.36445  -0.36397  -0.36193
 Alpha  occ. eigenvalues --   -0.35947  -0.35542  -0.35482  -0.35312  -0.34966
 Alpha  occ. eigenvalues --   -0.34893  -0.34711  -0.34008  -0.33890  -0.33624
 Alpha  occ. eigenvalues --   -0.33460  -0.32726  -0.32683  -0.32440  -0.32232
 Alpha  occ. eigenvalues --   -0.32163  -0.31711  -0.31656  -0.30636  -0.29294
 Alpha  occ. eigenvalues --   -0.29147  -0.29090  -0.28190  -0.27664  -0.26716
 Alpha  occ. eigenvalues --   -0.26620  -0.26192  -0.25933  -0.25009  -0.21245
 Alpha  occ. eigenvalues --   -0.19516
 Alpha virt. eigenvalues --   -0.07170  -0.02719   0.00593   0.02267   0.02752
 Alpha virt. eigenvalues --    0.03237   0.04635   0.05329   0.05843   0.06148
 Alpha virt. eigenvalues --    0.06884   0.09130   0.09714   0.10022   0.10335

 Mulliken charges:
               1
     1  Mg   0.804532
     2  C    0.202225
     3  C   -0.217897
     4  C   -0.176606
     5  C   -0.179735
     6  N   -0.622339
     7  C    0.290216
     8  C   -0.155723
     9  C   -0.115430
    10  C    0.368176
    11  C   -0.337383
    12  C   -0.153787
    13  C   -0.251489
    14  C    0.596380
    15  O   -0.505439
    16  O   -0.460255
    17  N   -0.687778
    18  C    0.305491
    19  C    0.016339
    20  C    0.023465
    21  C    0.263159
    22  C   -0.376840
    23  C   -0.080823
    24  C   -0.250743
    25  N   -0.680015
    26  C    0.303330
    27  C    0.006082
    28  C    0.016403
    29  C    0.303609
    30  C   -0.360869
    31  C   -0.223152
    32  C   -0.313059
    33  N   -0.734009
    34  C    0.244455
    35  C    0.017748
    36  C    0.032686
    37  C    0.239561
    38  C   -0.355867
    39  C    0.355971
    40  O   -0.440370
    41  C   -0.424198
    42  C    0.631440
    43  O   -0.491111
    44  O   -0.438141
    45  C   -0.099313
    46  C    0.043750
    47  C   -0.135433
    48  C    0.124825
    49  C   -0.369253
    50  C   -0.225123
    51  C   -0.172260
    52  C   -0.175779
    53  C   -0.059452
    54  C   -0.329068
    55  C   -0.166316
    56  C   -0.180385
    57  C   -0.175109
    58  C   -0.069852
    59  C   -0.266373
    60  C   -0.180537
    61  C   -0.158711
    62  C   -0.180764
    63  C   -0.065402
    64  C   -0.286048
    65  C   -0.233177
    66  H    0.079695
    67  H    0.082471
    68  H    0.081088
    69  H    0.108796
    70  H    0.102580
    71  H    0.104482
    72  H    0.091665
    73  H    0.142077
    74  H    0.115246
    75  H    0.108445
    76  H    0.142457
    77  H    0.109845
    78  H    0.125480
    79  H    0.124088
    80  H    0.108749
    81  H    0.091940
    82  H    0.105423
    83  H    0.097968
    84  H    0.135884
    85  H    0.096714
    86  H    0.125201
    87  H    0.115594
    88  H    0.102050
    89  H    0.082926
    90  H    0.123958
    91  H    0.124339
    92  H    0.115915
    93  H    0.140036
    94  H    0.137581
    95  H    0.130870
    96  H    0.138366
    97  H    0.150351
    98  H    0.136055
    99  H    0.110825
   100  H    0.121832
   101  H    0.075593
   102  H    0.109600
   103  H    0.090556
   104  H    0.138131
   105  H    0.085894
   106  H    0.115950
   107  H    0.107511
   108  H    0.105796
   109  H    0.090640
   110  H    0.082972
   111  H    0.080384
   112  H    0.109910
   113  H    0.101401
   114  H    0.077566
   115  H    0.075147
   116  H    0.095921
   117  H    0.109796
   118  H    0.093690
   119  H    0.076273
   120  H    0.094517
   121  H    0.080921
   122  H    0.086748
   123  H    0.078144
   124  H    0.109126
   125  H    0.069126
   126  H    0.100651
   127  H    0.054399
   128  H    0.108347
   129  H    0.049019
   130  H    0.089301
   131  H    0.069998
   132  H    0.110752
   133  H    0.047050
   134  H    0.127716
   135  H    0.114403
   136  H    0.060857
   137  H    0.086773
 Sum of Mulliken charges =  -0.00000

 Dipole moment (field-independent basis, Debye):
    X=              2.3187    Y=              3.0792    Z=              0.6776  Tot=              3.9137
 Quadrupole moment (field-independent basis, Debye-Ang):
   XX=           -334.4583   YY=           -384.8228   ZZ=           -395.6480
   XY=            -13.2729   XZ=             11.1006   YZ=             -5.6276

 Normal termination of Gaussian 16 at Thu Sep  5 12:26:20 2019.
