 Gaussian 16, Revision A.03,
 Gaussian 16:  ES64L-G16RevA.03 25-Dec-2016

 -------------------------------------
 # td=(NStates=1) CAM-B3LYP/6-31G(d,p)
 -------------------------------------

 --
 TD
 --
 Symbolic Z-matrix:
 Charge =  0 Multiplicity = 1

                         Standard orientation:
 ---------------------------------------------------------------------
 Center     Atomic      Atomic             Coordinates (Angstroms)
 Number     Number       Type             X           Y           Z
 ---------------------------------------------------------------------
      1         12           0       -7.261939    0.521353    0.130634
      2          6           0       -4.780163   -1.955712    0.479233
      3          6           0       -4.889277    2.866400    1.066267
      4          6           0       -9.568064    3.009986   -0.321473
      5          6           0       -9.549100   -1.774576   -0.836259
      6          7           0       -5.092328    0.466602    0.640252
      7          6           0       -4.287633   -0.678575    0.651179
      8          6           0       -2.919964   -0.267494    1.224784
      9          6           0       -3.070223    1.181267    1.629483
     10          6           0       -4.465980    1.555988    1.154250
     11          6           0       -2.924617    1.264892    3.092292
     12          6           0       -1.825137   -0.556112    0.193510
     13          6           0       -0.458269   -0.500726    0.572177
     14          6           0        0.567919   -0.682723   -0.539008
     15          8           0        0.248933   -1.097317   -1.615859
     16          8           0        1.862130   -0.300116   -0.111176
     17          7           0       -7.195675    2.605668    0.358115
     18          6           0       -6.239317    3.405531    0.774637
     19          6           0       -6.499510    4.824297    0.721835
     20          6           0       -7.848389    4.852117    0.252095
     21          6           0       -8.281280    3.456585    0.030862
     22          6           0       -5.540038    5.904910    0.925113
     23          6           0       -8.649586    6.063801    0.084683
     24          6           0       -8.567482    7.181419    0.787483
     25          7           0       -9.118628    0.578321   -0.472045
     26          6           0       -9.923900    1.726916   -0.562523
     27          6           0      -11.220833    1.323152   -0.968665
     28          6           0      -11.238085    0.010038   -1.197513
     29          6           0       -9.938410   -0.450554   -0.862280
     30          6           0      -12.331161    2.318403   -1.385348
     31          6           0      -12.329080   -0.783226   -1.676047
     32          6           0      -12.267902   -0.996445   -3.176470
     33          7           0       -7.243354   -1.528746   -0.198834
     34          6           0       -8.247001   -2.279295   -0.613842
     35          6           0       -7.761620   -3.653427   -0.539670
     36          6           0       -6.394841   -3.528177   -0.095290
     37          6           0       -6.127751   -2.169149    0.042430
     38          6           0       -8.488741   -4.920884   -0.785604
     39          6           0       -5.334254   -4.339848    0.131645
     40          8           0       -5.175182   -5.498594    0.145859
     41          6           0       -4.139284   -3.260338    0.521166
     42          6           0       -3.459540   -3.622889    1.828738
     43          8           0       -3.731314   -3.083449    2.836086
     44          8           0       -2.594998   -4.677823    1.788946
     45          6           0       -2.052660   -5.004272    3.051247
     46          6           0        2.931044   -0.729235   -1.163768
     47          6           0        4.198453   -0.524338   -0.559250
     48          6           0        5.150713    0.355166   -1.013673
     49          6           0        4.949018    1.185200   -2.257116
     50          6           0        6.431347    0.412524   -0.307917
     51          6           0        7.675709   -0.244706   -1.002283
     52          6           0        8.921011   -0.178961   -0.145364
     53          6           0       10.168683   -0.664055   -0.803783
     54          6           0       10.008757   -2.036045   -1.261128
     55          6           0       11.407309   -0.165449   -0.024266
     56          6           0       12.762199   -0.480540   -0.604362
     57          6           0       13.906114   -0.114224    0.358304
     58          6           0       15.393712   -0.243300   -0.303308
     59          6           0       15.700611   -1.659766   -0.721228
     60          6           0       16.526675    0.447503    0.557540
     61          6           0       17.788758    0.597086   -0.194652
     62          6           0       18.870495    1.382891    0.775525
     63          6           0       20.367057    1.353616    0.139773
     64          6           0       20.370486    2.076224   -1.234799
     65          6           0       21.196260    2.028055    1.081261
     66          1           0       -4.280087    3.733687    1.550384
     67          1           0      -10.311009    3.699661   -0.535534
     68          1           0      -10.110749   -2.490208   -1.482750
     69          1           0       -2.910359   -1.030335    1.989502
     70          1           0       -2.369065    1.796305    1.103466
     71          1           0       -1.901563    0.839700    3.490390
     72          1           0       -3.055362    2.348324    3.494219
     73          1           0       -3.700350    0.546068    3.630280
     74          1           0       -1.971027   -1.533177   -0.121177
     75          1           0       -2.047538   -0.086413   -0.651501
     76          1           0       -0.235065    0.429864    1.094824
     77          1           0       -0.228108   -1.071699    1.531808
     78          1           0       -5.900845    6.938381    0.261592
     79          1           0       -5.293722    6.206900    2.053990
     80          1           0       -4.490312    5.701739    0.671687
     81          1           0       -9.476682    5.961527   -0.609472
     82          1           0       -8.995724    8.159883    0.509131
     83          1           0       -7.897170    7.297980    1.619343
     84          1           0      -12.002780    3.070080   -2.257324
     85          1           0      -13.292641    1.761700   -1.879914
     86          1           0      -12.814359    2.897522   -0.561676
     87          1           0      -12.352829   -1.637303   -1.195136
     88          1           0      -13.324042   -0.519993   -1.354384
     89          1           0      -12.912736   -1.675893   -3.230773
     90          1           0      -12.690407   -0.057313   -3.701957
     91          1           0      -11.091258   -1.349750   -3.345738
     92          1           0       -9.187531   -4.743577   -1.762119
     93          1           0       -7.785425   -5.700576   -0.814295
     94          1           0       -9.266088   -5.123491   -0.077710
     95          1           0       -3.561498   -3.438073   -0.489394
     96          1           0       -1.364013   -4.004204    3.375639
     97          1           0       -2.965119   -4.956610    3.934225
     98          1           0       -1.530087   -6.076742    3.029023
     99          1           0        2.766960   -1.790392   -1.504187
    100          1           0        2.594750   -0.052334   -1.851055
    101          1           0        4.411069   -0.968763    0.506261
    102          1           0        3.976378    1.065479   -2.611550
    103          1           0        5.378763    2.003187   -1.958837
    104          1           0        5.457819    0.618566   -3.237308
    105          1           0        6.699535    1.442387   -0.102765
    106          1           0        6.172465   -0.025224    0.703471
    107          1           0        7.426740   -1.444756   -1.076872
    108          1           0        7.929708    0.227768   -1.902322
    109          1           0        8.894961    0.929656    0.095037
    110          1           0        8.946040   -0.695512    0.709742
    111          1           0       10.251133   -0.087809   -1.816445
    112          1           0        9.170609   -2.286490   -2.120603
    113          1           0       10.920573   -2.489592   -1.879151
    114          1           0        9.861362   -2.714550   -0.424739
    115          1           0       11.343940    0.862769    0.251672
    116          1           0       11.230463   -0.724653    0.953693
    117          1           0       12.882835   -1.526134   -1.079147
    118          1           0       12.997763   -0.099710   -1.684413
    119          1           0       14.045166    0.999193    0.547506
    120          1           0       13.954207   -0.608105    1.280230
    121          1           0       15.526370    0.543367   -1.119111
    122          1           0       15.885074   -2.283107    0.135766
    123          1           0       14.780569   -2.327598   -1.272583
    124          1           0       16.564451   -1.516681   -1.333862
    125          1           0       16.154845    1.599365    0.831822
    126          1           0       16.743029   -0.053337    1.392597
    127          1           0       18.178231   -0.495900   -0.474804
    128          1           0       17.641034    1.110593   -1.126837
    129          1           0       18.508471    2.483931    0.848813
    130          1           0       18.888845    0.967941    1.701761
    131          1           0       20.722420    0.437067   -0.197637
    132          1           0       19.824599    2.957226   -1.136292
    133          1           0       21.279444    2.229270   -1.640494
    134          1           0       19.772158    1.448244   -1.949364
    135          1           0       21.455738    1.714381    2.189821
    136          1           0       22.096043    2.008711    0.664397
    137          1           0       20.758171    2.883263    1.384536
 ---------------------------------------------------------------------

 SCF Done:  E(RCAM-B3LYP) =  -2932.58586161     A.U. after   16 cycles

 Excitation energies and oscillator strengths:

 Excited State   1:      Singlet-A      1.9760 eV  627.45 nm  f=0.2973  <S**2>=0.000
     240 -> 243       -0.22657
     241 -> 242        0.66320
 This state for optimization and/or second-order correction.
 Total Energy, E(TD-HF/TD-DFT) =  -2932.51324506
 Copying the excited state density for this state as the 1-particle RhoCI density.

 The electronic state is 1-A.
 Alpha  occ. eigenvalues --  -46.84740 -19.25753 -19.24576 -19.21259 -19.20816
 Alpha  occ. eigenvalues --  -19.20010 -14.41243 -14.39929 -14.39571 -14.38750
 Alpha  occ. eigenvalues --  -10.38872 -10.38764 -10.33921 -10.33720 -10.30898
 Alpha  occ. eigenvalues --  -10.30502 -10.30432 -10.30264 -10.30110 -10.29003
 Alpha  occ. eigenvalues --  -10.28931 -10.28739 -10.28659 -10.28568 -10.28567
 Alpha  occ. eigenvalues --  -10.28398 -10.27989 -10.27893 -10.27882 -10.27497
 Alpha  occ. eigenvalues --  -10.27272 -10.27169 -10.27090 -10.26834 -10.26762
 Alpha  occ. eigenvalues --  -10.26422 -10.26390 -10.26339 -10.26325 -10.26290
 Alpha  occ. eigenvalues --  -10.26234 -10.26220 -10.26206 -10.26112 -10.26044
 Alpha  occ. eigenvalues --  -10.26012 -10.26007 -10.25935 -10.25840 -10.25828
 Alpha  occ. eigenvalues --  -10.25818 -10.25741 -10.25587 -10.25538 -10.25290
 Alpha  occ. eigenvalues --  -10.25231 -10.25060 -10.25051 -10.24984 -10.24321
 Alpha  occ. eigenvalues --  -10.23995 -10.23625 -10.23273 -10.23070 -10.22281
 Alpha  occ. eigenvalues --   -3.13700  -1.88413  -1.87943  -1.87863  -1.19025
 Alpha  occ. eigenvalues --   -1.15461  -1.13353  -1.10285  -1.07642  -1.05831
 Alpha  occ. eigenvalues --   -1.04034  -1.03306  -1.02454  -0.93353  -0.92110
 Alpha  occ. eigenvalues --   -0.90969  -0.90802  -0.90639  -0.90083  -0.89313
 Alpha  occ. eigenvalues --   -0.89013  -0.88651  -0.87664  -0.86718  -0.86149
 Alpha  occ. eigenvalues --   -0.85466  -0.84336  -0.83791  -0.83626  -0.83336
 Alpha  occ. eigenvalues --   -0.81652  -0.81212  -0.80235  -0.79782  -0.78342
 Alpha  occ. eigenvalues --   -0.77505  -0.77163  -0.76934  -0.76822  -0.75234
 Alpha  occ. eigenvalues --   -0.74944  -0.74654  -0.74307  -0.72823  -0.72242
 Alpha  occ. eigenvalues --   -0.71668  -0.70558  -0.70216  -0.68922  -0.68748
 Alpha  occ. eigenvalues --   -0.67830  -0.66484  -0.65437  -0.65119  -0.64848
 Alpha  occ. eigenvalues --   -0.64384  -0.63947  -0.62839  -0.62184  -0.61977
 Alpha  occ. eigenvalues --   -0.61863  -0.60834  -0.60074  -0.59858  -0.59676
 Alpha  occ. eigenvalues --   -0.58722  -0.58416  -0.58253  -0.57435  -0.56821
 Alpha  occ. eigenvalues --   -0.56760  -0.55989  -0.55487  -0.54852  -0.54702
 Alpha  occ. eigenvalues --   -0.54678  -0.54348  -0.53589  -0.53399  -0.53107
 Alpha  occ. eigenvalues --   -0.52901  -0.52843  -0.52465  -0.52103  -0.51809
 Alpha  occ. eigenvalues --   -0.51643  -0.51355  -0.51097  -0.50967  -0.50749
 Alpha  occ. eigenvalues --   -0.50694  -0.50429  -0.50178  -0.50039  -0.49782
 Alpha  occ. eigenvalues --   -0.49607  -0.49407  -0.49198  -0.48528  -0.48414
 Alpha  occ. eigenvalues --   -0.48363  -0.48202  -0.47697  -0.47575  -0.47183
 Alpha  occ. eigenvalues --   -0.46917  -0.46505  -0.46407  -0.46380  -0.46215
 Alpha  occ. eigenvalues --   -0.45957  -0.45615  -0.45284  -0.45214  -0.45114
 Alpha  occ. eigenvalues --   -0.44898  -0.44788  -0.44478  -0.44457  -0.44236
 Alpha  occ. eigenvalues --   -0.43999  -0.43903  -0.43721  -0.43505  -0.43415
 Alpha  occ. eigenvalues --   -0.43120  -0.42901  -0.42758  -0.42662  -0.42475
 Alpha  occ. eigenvalues --   -0.41997  -0.41845  -0.41734  -0.41590  -0.41329
 Alpha  occ. eigenvalues --   -0.41254  -0.41149  -0.40897  -0.40767  -0.40574
 Alpha  occ. eigenvalues --   -0.40115  -0.40039  -0.39966  -0.39703  -0.39334
 Alpha  occ. eigenvalues --   -0.39043  -0.38859  -0.38405  -0.37757  -0.37576
 Alpha  occ. eigenvalues --   -0.37481  -0.36995  -0.36950  -0.36568  -0.36027
 Alpha  occ. eigenvalues --   -0.35589  -0.35493  -0.35349  -0.35172  -0.35162
 Alpha  occ. eigenvalues --   -0.34702  -0.34621  -0.33990  -0.33644  -0.33388
 Alpha  occ. eigenvalues --   -0.32651  -0.32373  -0.32167  -0.30974  -0.29412
 Alpha  occ. eigenvalues --   -0.29161  -0.28863  -0.28662  -0.27452  -0.22883
 Alpha  occ. eigenvalues --   -0.21753
 Alpha virt. eigenvalues --   -0.07597  -0.02815   0.01870   0.04263   0.04800
 Alpha virt. eigenvalues --    0.05555   0.06354   0.06935   0.07012   0.07300
 Alpha virt. eigenvalues --    0.08897   0.10263   0.11044   0.11186   0.11395

 Mulliken charges:
               1
     1  Mg   0.841442
     2  C    0.135478
     3  C   -0.183310
     4  C   -0.153799
     5  C   -0.170859
     6  N   -0.627455
     7  C    0.262980
     8  C   -0.179261
     9  C   -0.121509
    10  C    0.325634
    11  C   -0.295623
    12  C   -0.154737
    13  C   -0.285226
    14  C    0.632212
    15  O   -0.458734
    16  O   -0.537764
    17  N   -0.675208
    18  C    0.283168
    19  C    0.086511
    20  C   -0.019610
    21  C    0.278766
    22  C   -0.394624
    23  C   -0.071838
    24  C   -0.250850
    25  N   -0.742172
    26  C    0.308333
    27  C    0.022072
    28  C    0.071081
    29  C    0.301142
    30  C   -0.376130
    31  C   -0.265623
    32  C   -0.276350
    33  N   -0.746689
    34  C    0.270006
    35  C    0.013768
    36  C    0.040164
    37  C    0.325337
    38  C   -0.373863
    39  C    0.296005
    40  O   -0.432450
    41  C   -0.390254
    42  C    0.647339
    43  O   -0.450571
    44  O   -0.449456
    45  C   -0.070094
    46  C   -0.002575
    47  C   -0.122864
    48  C    0.106561
    49  C   -0.320459
    50  C   -0.239661
    51  C   -0.159522
    52  C   -0.153898
    53  C   -0.060918
    54  C   -0.306542
    55  C   -0.155391
    56  C   -0.175341
    57  C   -0.167242
    58  C   -0.080597
    59  C   -0.294477
    60  C   -0.164820
    61  C   -0.187311
    62  C   -0.183944
    63  C   -0.070951
    64  C   -0.314739
    65  C   -0.277767
    66  H    0.067340
    67  H    0.089629
    68  H    0.092288
    69  H    0.133172
    70  H    0.117980
    71  H    0.095804
    72  H    0.092130
    73  H    0.113349
    74  H    0.118924
    75  H    0.116675
    76  H    0.123867
    77  H    0.125789
    78  H    0.103724
    79  H    0.106241
    80  H    0.129210
    81  H    0.090134
    82  H    0.106423
    83  H    0.110275
    84  H    0.110219
    85  H    0.092888
    86  H    0.122024
    87  H    0.115350
    88  H    0.103372
    89  H    0.118960
    90  H    0.103826
    91  H    0.090141
    92  H    0.093249
    93  H    0.152538
    94  H    0.140589
    95  H    0.155749
    96  H    0.092045
    97  H    0.111895
    98  H    0.124014
    99  H    0.134309
   100  H    0.142838
   101  H    0.089542
   102  H    0.119198
   103  H    0.122240
   104  H    0.092365
   105  H    0.091953
   106  H    0.097234
   107  H    0.078684
   108  H    0.107239
   109  H    0.075987
   110  H    0.098167
   111  H    0.059782
   112  H    0.097922
   113  H    0.085369
   114  H    0.099456
   115  H    0.109144
   116  H    0.075920
   117  H    0.084506
   118  H    0.080924
   119  H    0.083384
   120  H    0.099594
   121  H    0.074833
   122  H    0.107768
   123  H    0.071249
   124  H    0.108912
   125  H    0.057251
   126  H    0.099508
   127  H    0.075234
   128  H    0.099572
   129  H    0.082975
   130  H    0.107160
   131  H    0.094359
   132  H    0.104194
   133  H    0.106865
   134  H    0.093445
   135  H    0.068750
   136  H    0.099844
   137  H    0.107590
 Sum of Mulliken charges =  -0.00000

 Dipole moment (field-independent basis, Debye):
    X=              0.5644    Y=              4.4902    Z=             -0.1618  Tot=              4.5284
 Quadrupole moment (field-independent basis, Debye-Ang):
   XX=           -302.3682   YY=           -394.9761   ZZ=           -397.2970
   XY=            -17.6763   XZ=             12.8565   YZ=             -0.4214

 Normal termination of Gaussian 16 at Sun Jun 30 16:16:28 2019.
