 Gaussian 16, Revision A.03,
 Gaussian 16:  ES64L-G16RevA.03 25-Dec-2016

 ----------------------------------------------------------------------
 # td=(NStates=1) iop(3/107=0140000000,3/108=0140000000) CAM-B3LYP/6-31
 G(d,p)
 ----------------------------------------------------------------------

 --
 TD
 --
 Symbolic Z-matrix:
 Charge =  0 Multiplicity = 1

                         Standard orientation:
 ---------------------------------------------------------------------
 Center     Atomic      Atomic             Coordinates (Angstroms)
 Number     Number       Type             X           Y           Z
 ---------------------------------------------------------------------
      1         12           0       -7.041740    0.694685    0.056925
      2          6           0       -4.885186   -1.925631    0.474167
      3          6           0       -4.730368    2.780755    1.350302
      4          6           0       -9.295235    3.256933   -0.573212
      5          6           0       -9.575414   -1.695414   -0.703258
      6          7           0       -5.089121    0.401147    0.710894
      7          6           0       -4.422993   -0.660544    0.811437
      8          6           0       -2.986555   -0.614363    1.192821
      9          6           0       -2.957609    0.948768    1.699566
     10          6           0       -4.299573    1.397511    1.215696
     11          6           0       -2.864279    1.147919    3.261465
     12          6           0       -1.915419   -0.773210    0.051248
     13          6           0       -0.523933   -0.466404    0.583672
     14          6           0        0.441617   -0.845117   -0.531286
     15          8           0        0.174881   -1.311832   -1.622504
     16          8           0        1.700078   -0.472075   -0.245802
     17          7           0       -6.973320    2.719057    0.272607
     18          6           0       -5.900943    3.405866    0.791049
     19          6           0       -6.238202    4.766135    0.699372
     20          6           0       -7.619105    4.903297    0.462689
     21          6           0       -8.082229    3.558474    0.058876
     22          6           0       -5.286358    5.891015    1.136661
     23          6           0       -8.308040    6.189569    0.163098
     24          6           0       -8.172569    7.374915    0.715465
     25          7           0       -9.027464    0.797215   -0.607279
     26          6           0       -9.823123    1.873194   -0.820618
     27          6           0      -11.169360    1.541782   -1.135182
     28          6           0      -11.224412    0.156332   -1.190999
     29          6           0       -9.843326   -0.275152   -0.834085
     30          6           0      -12.384519    2.532886   -1.294828
     31          6           0      -12.466135   -0.490420   -1.724510
     32          6           0      -12.296658   -1.023775   -3.119224
     33          7           0       -7.292386   -1.353052   -0.137980
     34          6           0       -8.292200   -2.225028   -0.508192
     35          6           0       -7.881702   -3.589404   -0.398527
     36          6           0       -6.471976   -3.614227   -0.200009
     37          6           0       -6.207825   -2.184526   -0.002204
     38          6           0       -8.770180   -4.818957   -0.633179
     39          6           0       -5.362952   -4.357577    0.087180
     40          8           0       -5.177990   -5.530931    0.155779
     41          6           0       -4.205766   -3.351751    0.427450
     42          6           0       -3.558676   -3.754022    1.766311
     43          8           0       -3.844813   -3.251329    2.895747
     44          8           0       -2.742740   -4.777491    1.677131
     45          6           0       -2.036614   -5.182561    2.898373
     46          6           0        2.718176   -0.667816   -1.300595
     47          6           0        4.066546   -0.593130   -0.547091
     48          6           0        5.032968    0.156273   -1.003702
     49          6           0        5.049997    0.992636   -2.297649
     50          6           0        6.290955    0.274715   -0.272235
     51          6           0        7.559694   -0.286090   -1.031009
     52          6           0        8.845578   -0.229170   -0.163919
     53          6           0       10.198571   -0.607930   -0.843171
     54          6           0       10.202816   -2.105319   -1.239216
     55          6           0       11.392691   -0.241237   -0.052321
     56          6           0       12.700338   -0.454966   -0.701724
     57          6           0       13.960783   -0.039128    0.274076
     58          6           0       15.320265   -0.168684   -0.463464
     59          6           0       15.621324   -1.649676   -0.787570
     60          6           0       16.353043    0.582945    0.407601
     61          6           0       17.795215    0.670189   -0.225141
     62          6           0       18.704830    1.333275    0.622825
     63          6           0       20.221149    1.399716    0.211696
     64          6           0       20.263507    2.279412   -0.997169
     65          6           0       21.113563    1.922247    1.334992
     66          1           0       -3.762557    3.492999    1.709635
     67          1           0      -10.123379    3.974233   -0.746646
     68          1           0      -10.592993   -2.261207   -0.754173
     69          1           0       -2.648734   -1.329160    1.911207
     70          1           0       -2.244701    1.606861    1.027721
     71          1           0       -1.983579    0.827888    3.796106
     72          1           0       -2.937926    2.186649    3.533477
     73          1           0       -3.603161    0.641102    3.820995
     74          1           0       -1.971179   -1.640203   -0.256344
     75          1           0       -2.148678   -0.039831   -0.748271
     76          1           0       -0.279234    0.428686    0.777442
     77          1           0       -0.314313   -1.356793    1.315946
     78          1           0       -5.469537    6.824038    0.689217
     79          1           0       -5.412254    5.936949    2.363543
     80          1           0       -4.306089    5.529469    0.931225
     81          1           0       -8.961866    5.918847   -0.745207
     82          1           0       -8.829553    8.337411    0.539226
     83          1           0       -7.445121    7.422035    1.686943
     84          1           0      -12.083871    3.232968   -1.948939
     85          1           0      -13.243532    2.129026   -1.550968
     86          1           0      -12.797729    3.084284   -0.183992
     87          1           0      -12.598893   -1.515272   -1.030449
     88          1           0      -13.330816    0.112262   -1.546975
     89          1           0      -13.443172   -1.470986   -3.229180
     90          1           0      -12.232899   -0.171593   -3.873528
     91          1           0      -11.483349   -1.789731   -3.366726
     92          1           0       -9.303728   -4.487665   -1.638374
     93          1           0       -8.166780   -5.682171   -0.758510
     94          1           0       -9.661406   -4.799762    0.038592
     95          1           0       -3.525863   -3.468304   -0.299993
     96          1           0       -1.437839   -4.422632    3.242097
     97          1           0       -2.753831   -5.513136    3.472347
     98          1           0       -1.418841   -5.992823    2.477484
     99          1           0        2.686852   -1.817088   -1.567267
    100          1           0        2.521752   -0.044149   -2.042546
    101          1           0        3.988802   -1.462231    0.362378
    102          1           0        3.912190    1.569923   -2.659597
    103          1           0        5.952936    1.888165   -2.037580
    104          1           0        5.487105    0.321629   -3.161436
    105          1           0        6.651162    1.333133   -0.009660
    106          1           0        6.101549   -0.277238    0.566092
    107          1           0        7.408762   -1.434016   -1.309556
    108          1           0        7.904310    0.105852   -1.986419
    109          1           0        9.034344    0.648676    0.167532
    110          1           0        8.588840   -0.978314    0.724371
    111          1           0       10.114950   -0.025653   -1.798201
    112          1           0        9.445086   -2.328812   -1.930033
    113          1           0       11.074368   -2.140347   -1.760062
    114          1           0       10.396035   -2.750005   -0.461156
    115          1           0       11.390274    0.667057    0.241395
    116          1           0       11.147442   -0.735800    1.109612
    117          1           0       12.690194   -1.456236   -0.981464
    118          1           0       12.949357    0.101875   -1.673976
    119          1           0       14.009377    1.177987    0.495205
    120          1           0       13.799062   -0.677203    1.328349
    121          1           0       15.273954    0.290207   -1.322944
    122          1           0       15.647645   -2.245942    0.123582
    123          1           0       14.933000   -2.129095   -1.480268
    124          1           0       16.661347   -1.764027   -1.257250
    125          1           0       15.796829    1.705729    0.455434
    126          1           0       16.475784    0.194709    1.571758
    127          1           0       18.106293   -0.311888   -0.207596
    128          1           0       17.553814    1.245766   -1.234698
    129          1           0       18.450674    2.280555    1.182768
    130          1           0       18.806666    0.729372    1.685746
    131          1           0       20.386217    0.370454   -0.261740
    132          1           0       20.071119    3.466386   -0.694429
    133          1           0       21.284617    2.502847   -1.393024
    134          1           0       19.668116    2.052882   -1.888819
    135          1           0       20.869431    1.407040    2.074428
    136          1           0       22.147009    1.677740    1.047634
    137          1           0       20.666559    2.884888    1.478096
 ---------------------------------------------------------------------

 SCF Done:  E(RCAM-B3LYP) =  -2933.30999378     A.U. after   16 cycles

 Excitation energies and oscillator strengths:

 Excited State   1:      Singlet-A      2.0211 eV  613.43 nm  f=0.2021  <S**2>=0.000
     240 -> 243       -0.27397
     241 -> 242        0.64249
 This state for optimization and/or second-order correction.
 Total Energy, E(TD-HF/TD-DFT) =  -2933.23571793
 Copying the excited state density for this state as the 1-particle RhoCI density.

 The electronic state is 1-A.
 Alpha  occ. eigenvalues --  -46.80611 -19.21812 -19.21252 -19.15833 -19.15111
 Alpha  occ. eigenvalues --  -19.14816 -14.38073 -14.35482 -14.35389 -14.35111
 Alpha  occ. eigenvalues --  -10.33864 -10.33732 -10.29045 -10.27360 -10.27306
 Alpha  occ. eigenvalues --  -10.26521 -10.25744 -10.25687 -10.25612 -10.25401
 Alpha  occ. eigenvalues --  -10.25051 -10.24947 -10.24787 -10.24722 -10.24688
 Alpha  occ. eigenvalues --  -10.24633 -10.24131 -10.24033 -10.23891 -10.23854
 Alpha  occ. eigenvalues --  -10.23578 -10.23538 -10.23436 -10.23269 -10.23165
 Alpha  occ. eigenvalues --  -10.23141 -10.23004 -10.22966 -10.22961 -10.22749
 Alpha  occ. eigenvalues --  -10.22605 -10.22573 -10.22241 -10.22147 -10.22115
 Alpha  occ. eigenvalues --  -10.21932 -10.21854 -10.21825 -10.21721 -10.21716
 Alpha  occ. eigenvalues --  -10.21652 -10.21471 -10.21342 -10.21265 -10.21192
 Alpha  occ. eigenvalues --  -10.21026 -10.21024 -10.20977 -10.20744 -10.20668
 Alpha  occ. eigenvalues --  -10.20500 -10.20416 -10.19889 -10.18818 -10.17908
 Alpha  occ. eigenvalues --   -3.09103  -1.84051  -1.83589  -1.83491  -1.12647
 Alpha  occ. eigenvalues --   -1.12456  -1.07041  -1.03111  -1.02512  -1.00570
 Alpha  occ. eigenvalues --   -0.98573  -0.97772  -0.96996  -0.86899  -0.86731
 Alpha  occ. eigenvalues --   -0.85993  -0.85713  -0.85426  -0.83727  -0.83445
 Alpha  occ. eigenvalues --   -0.83273  -0.82639  -0.81833  -0.81604  -0.80839
 Alpha  occ. eigenvalues --   -0.80111  -0.79390  -0.78841  -0.78542  -0.77380
 Alpha  occ. eigenvalues --   -0.77214  -0.76617  -0.75468  -0.75092  -0.73699
 Alpha  occ. eigenvalues --   -0.72952  -0.72380  -0.72054  -0.71896  -0.71352
 Alpha  occ. eigenvalues --   -0.70506  -0.70321  -0.69739  -0.69123  -0.67789
 Alpha  occ. eigenvalues --   -0.67564  -0.66529  -0.65205  -0.64544  -0.64468
 Alpha  occ. eigenvalues --   -0.62347  -0.62087  -0.61366  -0.60224  -0.60170
 Alpha  occ. eigenvalues --   -0.59216  -0.59015  -0.58583  -0.58404  -0.58129
 Alpha  occ. eigenvalues --   -0.57821  -0.56477  -0.56071  -0.55402  -0.54833
 Alpha  occ. eigenvalues --   -0.54258  -0.53702  -0.53375  -0.53312  -0.53025
 Alpha  occ. eigenvalues --   -0.52542  -0.51641  -0.51445  -0.51222  -0.50759
 Alpha  occ. eigenvalues --   -0.50450  -0.50387  -0.49848  -0.49531  -0.49353
 Alpha  occ. eigenvalues --   -0.49246  -0.49037  -0.49030  -0.48570  -0.48007
 Alpha  occ. eigenvalues --   -0.47733  -0.47148  -0.47070  -0.46892  -0.46805
 Alpha  occ. eigenvalues --   -0.46614  -0.46277  -0.46058  -0.46027  -0.45840
 Alpha  occ. eigenvalues --   -0.45431  -0.45285  -0.44959  -0.44875  -0.44812
 Alpha  occ. eigenvalues --   -0.44651  -0.44357  -0.44259  -0.43832  -0.43787
 Alpha  occ. eigenvalues --   -0.43288  -0.43212  -0.43150  -0.42978  -0.42803
 Alpha  occ. eigenvalues --   -0.42745  -0.42404  -0.42136  -0.41863  -0.41589
 Alpha  occ. eigenvalues --   -0.41496  -0.41012  -0.40913  -0.40684  -0.40652
 Alpha  occ. eigenvalues --   -0.40560  -0.40331  -0.40144  -0.40110  -0.39890
 Alpha  occ. eigenvalues --   -0.39828  -0.39413  -0.39292  -0.39221  -0.39004
 Alpha  occ. eigenvalues --   -0.38604  -0.38243  -0.38158  -0.37986  -0.37892
 Alpha  occ. eigenvalues --   -0.37774  -0.37391  -0.37210  -0.37134  -0.36991
 Alpha  occ. eigenvalues --   -0.36909  -0.36646  -0.36455  -0.36348  -0.35648
 Alpha  occ. eigenvalues --   -0.35538  -0.35501  -0.34876  -0.34581  -0.34310
 Alpha  occ. eigenvalues --   -0.34190  -0.34136  -0.33804  -0.33681  -0.33237
 Alpha  occ. eigenvalues --   -0.32940  -0.32851  -0.32669  -0.32566  -0.32200
 Alpha  occ. eigenvalues --   -0.32093  -0.31781  -0.31767  -0.30702  -0.30135
 Alpha  occ. eigenvalues --   -0.29745  -0.29566  -0.28520  -0.27851  -0.27384
 Alpha  occ. eigenvalues --   -0.26920  -0.26489  -0.25750  -0.24513  -0.21385
 Alpha  occ. eigenvalues --   -0.19929
 Alpha virt. eigenvalues --   -0.06873  -0.04430  -0.00182   0.02602   0.03884
 Alpha virt. eigenvalues --    0.04031   0.04565   0.04800   0.05175   0.05542
 Alpha virt. eigenvalues --    0.06729   0.08388   0.08547   0.08879   0.08952

 Mulliken charges:
               1
     1  Mg   0.821509
     2  C    0.039965
     3  C   -0.207277
     4  C   -0.171143
     5  C   -0.187083
     6  N   -0.625658
     7  C    0.377230
     8  C   -0.167863
     9  C   -0.159363
    10  C    0.309658
    11  C   -0.321976
    12  C   -0.131830
    13  C   -0.226653
    14  C    0.571196
    15  O   -0.477431
    16  O   -0.481630
    17  N   -0.721391
    18  C    0.350515
    19  C   -0.003148
    20  C   -0.041723
    21  C    0.317489
    22  C   -0.351280
    23  C   -0.025757
    24  C   -0.274382
    25  N   -0.656745
    26  C    0.259631
    27  C    0.014271
    28  C    0.020312
    29  C    0.273202
    30  C   -0.335409
    31  C   -0.232392
    32  C   -0.278005
    33  N   -0.684783
    34  C    0.288964
    35  C    0.007650
    36  C    0.083025
    37  C    0.244527
    38  C   -0.365477
    39  C    0.311391
    40  O   -0.457405
    41  C   -0.300144
    42  C    0.599466
    43  O   -0.524109
    44  O   -0.435716
    45  C   -0.072851
    46  C    0.033906
    47  C   -0.132006
    48  C    0.153435
    49  C   -0.326937
    50  C   -0.220975
    51  C   -0.196782
    52  C   -0.143469
    53  C   -0.080707
    54  C   -0.311022
    55  C   -0.135437
    56  C   -0.193726
    57  C   -0.155081
    58  C   -0.032659
    59  C   -0.323055
    60  C   -0.171307
    61  C   -0.148125
    62  C   -0.160377
    63  C   -0.070375
    64  C   -0.288521
    65  C   -0.289004
    66  H    0.069933
    67  H    0.094375
    68  H    0.092600
    69  H    0.121748
    70  H    0.098670
    71  H    0.110736
    72  H    0.113735
    73  H    0.137672
    74  H    0.113601
    75  H    0.105842
    76  H    0.130666
    77  H    0.125638
    78  H    0.128949
    79  H    0.098486
    80  H    0.111366
    81  H    0.087811
    82  H    0.107565
    83  H    0.090991
    84  H    0.131342
    85  H    0.119227
    86  H    0.072995
    87  H    0.065523
    88  H    0.117779
    89  H    0.076602
    90  H    0.106822
    91  H    0.118450
    92  H    0.110131
    93  H    0.150452
    94  H    0.132445
    95  H    0.152367
    96  H    0.132869
    97  H    0.152378
    98  H    0.124605
    99  H    0.116488
   100  H    0.117851
   101  H    0.091415
   102  H    0.082174
   103  H    0.081119
   104  H    0.129405
   105  H    0.098882
   106  H    0.108736
   107  H    0.076884
   108  H    0.093511
   109  H    0.091661
   110  H    0.063749
   111  H    0.068806
   112  H    0.101609
   113  H    0.104299
   114  H    0.108966
   115  H    0.102478
   116  H    0.044764
   117  H    0.109423
   118  H    0.085635
   119  H    0.059324
   120  H    0.073028
   121  H    0.098379
   122  H    0.105894
   123  H    0.106853
   124  H    0.086490
   125  H    0.056603
   126  H    0.068407
   127  H    0.117651
   128  H    0.087334
   129  H    0.082417
   130  H    0.044167
   131  H    0.071980
   132  H    0.053211
   133  H    0.089061
   134  H    0.104399
   135  H    0.113852
   136  H    0.109336
   137  H    0.110237
 Sum of Mulliken charges =  -0.00000

 Dipole moment (field-independent basis, Debye):
    X=              2.6746    Y=              3.1678    Z=             -0.3977  Tot=              4.1649
 Quadrupole moment (field-independent basis, Debye-Ang):
   XX=           -340.1021   YY=           -401.6201   ZZ=           -398.2061
   XY=            -24.5376   XZ=              9.6434   YZ=             -3.9256

 Normal termination of Gaussian 16 at Sun Sep 15 09:35:09 2019.
