 Gaussian 09, Revision D.01,
 Gaussian 09:  ES64L-G09RevD.01 24-Apr-2013

 -------------------------------------
 # td=(NStates=1) CAM-B3LYP/6-31G(d,p)
 -------------------------------------

 --
 TD
 --
 Symbolic Z-matrix:
 Charge =  0 Multiplicity = 1

                         Standard orientation:
 ---------------------------------------------------------------------
 Center     Atomic      Atomic             Coordinates (Angstroms)
 Number     Number       Type             X           Y           Z
 ---------------------------------------------------------------------
      1         12           0       -7.212015    0.541827    0.112045
      2          6           0       -4.881014   -1.983570    0.497537
      3          6           0       -4.801734    2.836013    1.136457
      4          6           0       -9.342499    3.088162   -0.476339
      5          6           0       -9.529085   -1.731439   -0.849077
      6          7           0       -5.135938    0.360039    0.760074
      7          6           0       -4.332665   -0.726272    0.754126
      8          6           0       -2.866601   -0.394289    1.210808
      9          6           0       -3.028367    1.114055    1.603048
     10          6           0       -4.367694    1.486021    1.166730
     11          6           0       -2.791252    1.234730    3.118427
     12          6           0       -1.962354   -0.696268    0.138661
     13          6           0       -0.499002   -0.430568    0.518856
     14          6           0        0.456946   -0.506431   -0.637408
     15          8           0        0.156907   -0.879512   -1.805099
     16          8           0        1.799833   -0.539456   -0.276096
     17          7           0       -7.113839    2.656245    0.301190
     18          6           0       -6.006535    3.350540    0.748154
     19          6           0       -6.397849    4.854887    0.823138
     20          6           0       -7.645279    4.882634    0.364849
     21          6           0       -8.161411    3.506681    0.112235
     22          6           0       -5.438870    5.936633    1.166948
     23          6           0       -8.628294    5.971122    0.266648
     24          6           0       -8.399803    7.013299    0.990012
     25          7           0       -9.178709    0.699655   -0.459042
     26          6           0       -9.852399    1.902017   -0.609295
     27          6           0      -11.182381    1.525013   -1.067298
     28          6           0      -11.267925    0.129135   -1.163634
     29          6           0      -10.028200   -0.419517   -0.888111
     30          6           0      -12.302940    2.529324   -1.425464
     31          6           0      -12.358241   -0.623729   -1.883639
     32          6           0      -12.260770   -0.798298   -3.338674
     33          7           0       -7.222344   -1.410062   -0.150836
     34          6           0       -8.345659   -2.200372   -0.585500
     35          6           0       -7.872829   -3.646892   -0.596035
     36          6           0       -6.525314   -3.537735   -0.099558
     37          6           0       -6.203758   -2.161220    0.069122
     38          6           0       -8.599101   -4.849658   -0.872291
     39          6           0       -5.451657   -4.343990    0.244286
     40          8           0       -5.224217   -5.558439    0.410164
     41          6           0       -4.230950   -3.313168    0.578551
     42          6           0       -3.601307   -3.632743    1.866603
     43          8           0       -3.756305   -3.133006    2.940802
     44          8           0       -2.684132   -4.706515    1.654317
     45          6           0       -2.153193   -5.218626    2.921998
     46          6           0        2.806850   -0.760652   -1.336865
     47          6           0        4.141688   -0.515310   -0.592150
     48          6           0        5.138317    0.283176   -1.085458
     49          6           0        5.184870    0.895268   -2.446677
     50          6           0        6.358398    0.378694   -0.183201
     51          6           0        7.619471   -0.346220   -0.821239
     52          6           0        8.810507   -0.231224    0.063512
     53          6           0       10.219051   -0.531562   -0.661030
     54          6           0       10.162894   -2.057990   -1.217442
     55          6           0       11.397924   -0.269627    0.266433
     56          6           0       12.717884   -0.359343   -0.574993
     57          6           0       13.904458   -0.151551    0.278037
     58          6           0       15.312542   -0.238857   -0.455810
     59          6           0       15.662197   -1.717279   -0.646924
     60          6           0       16.523096    0.412247    0.386211
     61          6           0       17.877348    0.687092   -0.345571
     62          6           0       18.844119    1.366052    0.617208
     63          6           0       20.264429    1.398463    0.116863
     64          6           0       20.358021    2.265232   -1.210888
     65          6           0       21.258985    1.988566    1.132708
     66          1           0       -3.902065    3.515670    1.341777
     67          1           0      -10.172832    3.653711   -0.610891
     68          1           0      -10.384191   -2.375525   -1.162581
     69          1           0       -2.625001   -1.008861    2.134651
     70          1           0       -2.246025    1.602365    1.082069
     71          1           0       -1.781456    0.880323    3.338044
     72          1           0       -2.823816    2.213805    3.414434
     73          1           0       -3.430859    0.561983    3.828363
     74          1           0       -2.069769   -1.756360   -0.331811
     75          1           0       -2.308806   -0.212771   -0.947657
     76          1           0       -0.221700    0.668793    0.949074
     77          1           0       -0.231473   -1.248548    1.222052
     78          1           0       -5.631877    6.830872    0.674643
     79          1           0       -5.688969    6.012466    2.366485
     80          1           0       -4.490568    5.720558    0.871201
     81          1           0       -9.401782    5.782904   -0.302247
     82          1           0       -9.091015    7.832495    0.852239
     83          1           0       -7.589126    7.215774    1.603971
     84          1           0      -11.838715    3.263552   -2.178057
     85          1           0      -13.212956    2.098298   -1.741196
     86          1           0      -12.483586    3.202873   -0.639324
     87          1           0      -12.427299   -1.631963   -1.463930
     88          1           0      -13.490091   -0.330007   -1.713678
     89          1           0      -13.080171   -1.709938   -3.669751
     90          1           0      -12.147663   -0.029066   -4.046927
     91          1           0      -11.355753   -1.463702   -3.549457
     92          1           0       -8.732644   -4.810157   -2.025108
     93          1           0       -8.140182   -5.659475   -0.508411
     94          1           0       -9.681053   -4.726561   -0.542818
     95          1           0       -3.430172   -3.445690    0.027987
     96          1           0       -1.607908   -4.591765    3.486168
     97          1           0       -3.089963   -5.380978    3.638987
     98          1           0       -1.566439   -6.119929    2.501824
     99          1           0        2.633385   -1.718528   -1.767012
    100          1           0        2.457532   -0.017506   -2.114549
    101          1           0        4.453461   -1.122914    0.243426
    102          1           0        4.229195    0.955648   -3.106089
    103          1           0        5.441854    1.947953   -2.104394
    104          1           0        5.982379    0.446679   -3.080372
    105          1           0        6.686374    1.445425   -0.029049
    106          1           0        6.240580   -0.032993    0.732151
    107          1           0        7.209258   -1.422839   -1.287707
    108          1           0        7.669700    0.197870   -1.906006
    109          1           0        8.632836    0.788218    0.779695
    110          1           0        8.914008   -1.094421    0.769889
    111          1           0       10.335452    0.393678   -1.508221
    112          1           0        9.354789   -2.245138   -1.737207
    113          1           0       11.131679   -2.430298   -1.740435
    114          1           0       10.318164   -2.855206   -0.186731
    115          1           0       11.207490    0.707727    0.705656
    116          1           0       11.422686   -0.989498    1.033771
    117          1           0       12.594857   -1.443937   -0.979154
    118          1           0       12.708697    0.500184   -1.412724
    119          1           0       13.809361    0.881391    0.829604
    120          1           0       14.161472   -0.896824    1.282954
    121          1           0       15.205855    0.383873   -1.284732
    122          1           0       15.644489   -2.296185    0.174467
    123          1           0       14.872577   -2.160988   -1.387521
    124          1           0       16.672030   -1.950459   -1.036189
    125          1           0       16.124799    1.372879    1.032708
    126          1           0       16.709142   -0.254221    1.381096
    127          1           0       18.467275   -0.184068   -0.707480
    128          1           0       17.835217    1.273512   -1.213299
    129          1           0       18.678743    2.276577    0.880739
    130          1           0       18.740566    0.887350    1.395852
    131          1           0       20.653328    0.391975   -0.286041
    132          1           0       20.362140    3.395881   -1.030487
    133          1           0       21.412372    2.037793   -1.846883
    134          1           0       19.474415    1.819144   -1.870094
    135          1           0       21.228681    1.365448    2.104341
    136          1           0       22.270452    2.158977    0.642632
    137          1           0       20.973538    2.981142    1.310772
 ---------------------------------------------------------------------

 SCF Done:  E(RCAM-B3LYP) =  -2932.57384407     A.U. after   16 cycles

 Excitation energies and oscillator strengths:

 Excited State   1:      Singlet-A      2.0576 eV  602.58 nm  f=0.2084  <S**2>=0.000
     240 -> 243        0.26800
     241 -> 242        0.64666
 This state for optimization and/or second-order correction.
 Total Energy, E(TD-HF/TD-KS) =  -2932.49822979
 Copying the excited state density for this state as the 1-particle RhoCI density.

 The electronic state is 1-A.
 Alpha  occ. eigenvalues --  -46.84126 -19.24921 -19.24342 -19.21166 -19.20484
 Alpha  occ. eigenvalues --  -19.19701 -14.42176 -14.39826 -14.39698 -14.37981
 Alpha  occ. eigenvalues --  -10.39431 -10.38158 -10.34763 -10.31947 -10.31738
 Alpha  occ. eigenvalues --  -10.30983 -10.30807 -10.30483 -10.30452 -10.29899
 Alpha  occ. eigenvalues --  -10.29895 -10.29395 -10.29152 -10.28906 -10.28436
 Alpha  occ. eigenvalues --  -10.28435 -10.28192 -10.27830 -10.27821 -10.27787
 Alpha  occ. eigenvalues --  -10.27759 -10.27564 -10.27540 -10.27500 -10.27463
 Alpha  occ. eigenvalues --  -10.27416 -10.27249 -10.27190 -10.27080 -10.27049
 Alpha  occ. eigenvalues --  -10.26929 -10.26849 -10.26831 -10.26621 -10.26334
 Alpha  occ. eigenvalues --  -10.26266 -10.26176 -10.26164 -10.26163 -10.26160
 Alpha  occ. eigenvalues --  -10.26052 -10.26027 -10.26006 -10.25906 -10.25678
 Alpha  occ. eigenvalues --  -10.25648 -10.25546 -10.25243 -10.25052 -10.25044
 Alpha  occ. eigenvalues --  -10.24847 -10.24770 -10.24604 -10.24247 -10.21258
 Alpha  occ. eigenvalues --   -3.13123  -1.87837  -1.87333  -1.87315  -1.16049
 Alpha  occ. eigenvalues --   -1.15124  -1.08860  -1.07822  -1.06027  -1.04727
 Alpha  occ. eigenvalues --   -1.03285  -1.02644  -1.00239  -0.93129  -0.91236
 Alpha  occ. eigenvalues --   -0.90926  -0.90457  -0.90285  -0.90230  -0.89564
 Alpha  occ. eigenvalues --   -0.89041  -0.88492  -0.87428  -0.87375  -0.86432
 Alpha  occ. eigenvalues --   -0.84903  -0.84712  -0.84273  -0.83012  -0.82514
 Alpha  occ. eigenvalues --   -0.82140  -0.81632  -0.80657  -0.79946  -0.78938
 Alpha  occ. eigenvalues --   -0.78451  -0.77604  -0.76096  -0.75980  -0.75291
 Alpha  occ. eigenvalues --   -0.75044  -0.74702  -0.73990  -0.73475  -0.72831
 Alpha  occ. eigenvalues --   -0.72303  -0.70398  -0.69695  -0.69011  -0.68858
 Alpha  occ. eigenvalues --   -0.67738  -0.66297  -0.65732  -0.65049  -0.64327
 Alpha  occ. eigenvalues --   -0.64276  -0.62868  -0.62304  -0.61939  -0.61506
 Alpha  occ. eigenvalues --   -0.61270  -0.60987  -0.60729  -0.59750  -0.59245
 Alpha  occ. eigenvalues --   -0.58993  -0.58756  -0.57615  -0.57368  -0.56873
 Alpha  occ. eigenvalues --   -0.56212  -0.55653  -0.55302  -0.55031  -0.54876
 Alpha  occ. eigenvalues --   -0.54786  -0.54256  -0.53864  -0.53461  -0.52477
 Alpha  occ. eigenvalues --   -0.52292  -0.52114  -0.51753  -0.51660  -0.51538
 Alpha  occ. eigenvalues --   -0.51268  -0.51079  -0.50911  -0.50819  -0.50721
 Alpha  occ. eigenvalues --   -0.50272  -0.50237  -0.49971  -0.49532  -0.49422
 Alpha  occ. eigenvalues --   -0.49335  -0.49208  -0.48990  -0.48873  -0.48843
 Alpha  occ. eigenvalues --   -0.48262  -0.47908  -0.47811  -0.47664  -0.47314
 Alpha  occ. eigenvalues --   -0.46816  -0.46643  -0.46577  -0.46429  -0.46330
 Alpha  occ. eigenvalues --   -0.46141  -0.45875  -0.45664  -0.45354  -0.45210
 Alpha  occ. eigenvalues --   -0.45116  -0.44928  -0.44604  -0.44484  -0.44018
 Alpha  occ. eigenvalues --   -0.43835  -0.43788  -0.43612  -0.43503  -0.43261
 Alpha  occ. eigenvalues --   -0.43100  -0.42963  -0.42811  -0.42538  -0.42414
 Alpha  occ. eigenvalues --   -0.42020  -0.41820  -0.41757  -0.41592  -0.41504
 Alpha  occ. eigenvalues --   -0.41181  -0.40961  -0.40776  -0.40667  -0.40517
 Alpha  occ. eigenvalues --   -0.40115  -0.39768  -0.39676  -0.39483  -0.39094
 Alpha  occ. eigenvalues --   -0.38832  -0.38498  -0.38263  -0.37632  -0.37510
 Alpha  occ. eigenvalues --   -0.37237  -0.37211  -0.36818  -0.36687  -0.36430
 Alpha  occ. eigenvalues --   -0.36407  -0.35828  -0.35581  -0.35320  -0.35168
 Alpha  occ. eigenvalues --   -0.34773  -0.34613  -0.34300  -0.33529  -0.33453
 Alpha  occ. eigenvalues --   -0.32976  -0.32768  -0.32622  -0.31303  -0.29690
 Alpha  occ. eigenvalues --   -0.29418  -0.29050  -0.27996  -0.26916  -0.23690
 Alpha  occ. eigenvalues --   -0.20970
 Alpha virt. eigenvalues --   -0.06156  -0.03792   0.01309   0.04502   0.04764
 Alpha virt. eigenvalues --    0.05596   0.06239   0.06453   0.06590   0.07195
 Alpha virt. eigenvalues --    0.08272   0.10732   0.11168   0.11247   0.11651

 Mulliken charges:
               1
     1  Mg   0.818040
     2  C    0.075186
     3  C   -0.213291
     4  C   -0.111936
     5  C   -0.180068
     6  N   -0.635268
     7  C    0.300256
     8  C   -0.134282
     9  C   -0.151774
    10  C    0.344748
    11  C   -0.314384
    12  C   -0.192943
    13  C   -0.250789
    14  C    0.587712
    15  O   -0.490792
    16  O   -0.503054
    17  N   -0.682112
    18  C    0.323486
    19  C   -0.021065
    20  C    0.001197
    21  C    0.279690
    22  C   -0.349426
    23  C   -0.003203
    24  C   -0.243327
    25  N   -0.727141
    26  C    0.301608
    27  C   -0.008208
    28  C    0.021865
    29  C    0.258996
    30  C   -0.375403
    31  C   -0.239595
    32  C   -0.282004
    33  N   -0.783090
    34  C    0.286619
    35  C    0.074207
    36  C    0.013313
    37  C    0.369197
    38  C   -0.373793
    39  C    0.324741
    40  O   -0.486978
    41  C   -0.316298
    42  C    0.618808
    43  O   -0.465571
    44  O   -0.495754
    45  C   -0.074733
    46  C    0.020270
    47  C   -0.135283
    48  C    0.112994
    49  C   -0.355941
    50  C   -0.233042
    51  C   -0.158419
    52  C   -0.169936
    53  C   -0.056345
    54  C   -0.300462
    55  C   -0.167493
    56  C   -0.160176
    57  C   -0.157024
    58  C   -0.053002
    59  C   -0.301181
    60  C   -0.184291
    61  C   -0.191228
    62  C   -0.118362
    63  C   -0.079158
    64  C   -0.296940
    65  C   -0.306831
    66  H    0.086989
    67  H    0.064384
    68  H    0.090316
    69  H    0.133337
    70  H    0.115258
    71  H    0.109467
    72  H    0.115628
    73  H    0.123919
    74  H    0.128935
    75  H    0.108876
    76  H    0.120710
    77  H    0.158663
    78  H    0.132895
    79  H    0.111140
    80  H    0.122614
    81  H    0.081387
    82  H    0.085686
    83  H    0.102383
    84  H    0.107592
    85  H    0.122380
    86  H    0.128714
    87  H    0.101162
    88  H    0.089890
    89  H    0.064883
    90  H    0.125207
    91  H    0.091626
    92  H    0.132627
    93  H    0.160394
    94  H    0.126869
    95  H    0.150984
    96  H    0.131750
    97  H    0.115272
    98  H    0.120439
    99  H    0.135724
   100  H    0.123832
   101  H    0.099023
   102  H    0.112449
   103  H    0.112159
   104  H    0.130890
   105  H    0.094577
   106  H    0.116675
   107  H    0.077531
   108  H    0.071608
   109  H    0.072780
   110  H    0.102478
   111  H    0.053610
   112  H    0.127269
   113  H    0.106790
   114  H    0.058969
   115  H    0.095302
   116  H    0.100591
   117  H    0.093218
   118  H    0.086185
   119  H    0.076900
   120  H    0.051290
   121  H    0.093215
   122  H    0.117495
   123  H    0.080945
   124  H    0.098690
   125  H    0.064230
   126  H    0.065677
   127  H    0.095131
   128  H    0.105616
   129  H    0.094954
   130  H    0.095059
   131  H    0.076081
   132  H    0.097154
   133  H    0.069398
   134  H    0.087684
   135  H    0.092033
   136  H    0.096111
   137  H    0.106766
 Sum of Mulliken charges =   0.00000

 Dipole moment (field-independent basis, Debye):
    X=              1.7625    Y=              4.8227    Z=              0.0843  Tot=              5.1353
 Quadrupole moment (field-independent basis, Debye-Ang):
   XX=           -364.3728   YY=           -394.5958   ZZ=           -398.7961
   XY=            -18.1265   XZ=             15.6588   YZ=              4.7668

 Normal termination of Gaussian 09 at Tue Jul  2 15:57:55 2019.
