 Gaussian 16, Revision A.03,
 Gaussian 16:  ES64L-G16RevA.03 25-Dec-2016

 ----------------------------------------------------------------------
 # td=(NStates=1) iop(3/107=0140000000,3/108=0140000000) CAM-B3LYP/6-31
 G(d,p)
 ----------------------------------------------------------------------

 --
 TD
 --
 Symbolic Z-matrix:
 Charge =  0 Multiplicity = 1

                         Standard orientation:
 ---------------------------------------------------------------------
 Center     Atomic      Atomic             Coordinates (Angstroms)
 Number     Number       Type             X           Y           Z
 ---------------------------------------------------------------------
      1         12           0       -7.147889    0.611553   -0.062541
      2          6           0       -4.937406   -1.938249    0.478398
      3          6           0       -4.854334    2.813359    1.301217
      4          6           0       -9.383196    2.976485   -0.422664
      5          6           0       -9.622574   -1.742089   -0.693017
      6          7           0       -5.114753    0.370527    0.725586
      7          6           0       -4.387472   -0.715141    0.811898
      8          6           0       -2.957351   -0.430389    1.168264
      9          6           0       -3.000054    0.980076    1.597149
     10          6           0       -4.370518    1.467829    1.124713
     11          6           0       -2.982177    1.250120    3.154105
     12          6           0       -1.888189   -0.627429    0.006270
     13          6           0       -0.522132   -0.428712    0.526566
     14          6           0        0.634892   -0.579547   -0.588748
     15          8           0        0.224637   -0.858568   -1.762252
     16          8           0        1.795690   -0.313386   -0.195068
     17          7           0       -7.130048    2.680329    0.372124
     18          6           0       -6.001533    3.384792    0.861526
     19          6           0       -6.446837    4.700869    0.840670
     20          6           0       -7.715255    4.847593    0.328283
     21          6           0       -8.075622    3.448904    0.004651
     22          6           0       -5.567909    5.835820    1.229758
     23          6           0       -8.491295    6.061791    0.097278
     24          6           0       -8.368290    7.204689    0.884218
     25          7           0       -9.137034    0.636288   -0.568222
     26          6           0       -9.849904    1.826613   -0.689055
     27          6           0      -11.251554    1.530282   -1.127000
     28          6           0      -11.328707    0.075408   -1.255588
     29          6           0      -10.012263   -0.372961   -0.862288
     30          6           0      -12.303413    2.518297   -1.443786
     31          6           0      -12.455164   -0.804552   -1.776810
     32          6           0      -12.238352   -1.227703   -3.217975
     33          7           0       -7.174650   -1.372909   -0.146933
     34          6           0       -8.337173   -2.291704   -0.412333
     35          6           0       -7.902374   -3.596936   -0.408207
     36          6           0       -6.518055   -3.638853   -0.141577
     37          6           0       -6.209972   -2.166859   -0.007784
     38          6           0       -8.818542   -4.882616   -0.535826
     39          6           0       -5.348634   -4.399515    0.140852
     40          8           0       -5.221805   -5.554097    0.180782
     41          6           0       -4.219294   -3.329438    0.505225
     42          6           0       -3.536246   -3.664350    1.818933
     43          8           0       -3.770075   -3.202274    2.925265
     44          8           0       -2.719437   -4.708978    1.674878
     45          6           0       -2.223600   -5.115935    3.043672
     46          6           0        2.823922   -0.419170   -1.116759
     47          6           0        4.180390   -0.273941   -0.604492
     48          6           0        5.155077    0.464065   -1.047652
     49          6           0        5.139236    1.039542   -2.458342
     50          6           0        6.431255    0.593613   -0.274861
     51          6           0        7.673851    0.030504   -0.971503
     52          6           0        8.975545   -0.003914   -0.125961
     53          6           0       10.208682   -0.578991   -0.877161
     54          6           0       10.028897   -2.047710   -1.187657
     55          6           0       11.474624   -0.284856   -0.104720
     56          6           0       12.794652   -0.399464   -0.746018
     57          6           0       13.996374   -0.080439    0.202122
     58          6           0       15.419675   -0.257231   -0.386652
     59          6           0       15.699896   -1.718486   -0.720542
     60          6           0       16.472360    0.302412    0.442313
     61          6           0       17.818243    0.502537   -0.157227
     62          6           0       18.903197    1.323103    0.727959
     63          6           0       20.341592    1.214334    0.284308
     64          6           0       20.436824    1.859938   -1.114470
     65          6           0       21.242140    1.911125    1.286286
     66          1           0       -4.219611    3.553114    1.907233
     67          1           0      -10.150141    3.705533   -0.571024
     68          1           0      -10.480085   -2.371911   -0.943923
     69          1           0       -2.693875   -1.342952    1.873791
     70          1           0       -2.269065    1.721499    1.225461
     71          1           0       -2.048111    0.953691    3.587226
     72          1           0       -3.078322    2.326341    3.521889
     73          1           0       -3.864433    0.858225    3.713512
     74          1           0       -2.007461   -1.716249   -0.294738
     75          1           0       -2.126380    0.101440   -0.783336
     76          1           0       -0.611260    0.732482    0.837408
     77          1           0       -0.238190   -1.132316    1.382298
     78          1           0       -5.621164    6.678744    0.608656
     79          1           0       -5.731671    6.072869    2.265778
     80          1           0       -4.555710    5.465169    1.116253
     81          1           0       -9.349335    5.824767   -0.658674
     82          1           0       -8.837272    8.084664    0.761756
     83          1           0       -7.685876    7.252222    1.743134
     84          1           0      -12.234764    3.304513   -2.300841
     85          1           0      -13.290831    1.995754   -1.712595
     86          1           0      -12.538481    3.100833   -0.611124
     87          1           0      -12.380880   -1.821663   -1.113555
     88          1           0      -13.524930   -0.184515   -1.750217
     89          1           0      -13.124320   -2.015496   -3.527315
     90          1           0      -12.459238   -0.446509   -4.023246
     91          1           0      -11.229870   -1.596628   -3.216282
     92          1           0       -9.297443   -4.835176   -1.709404
     93          1           0       -8.452782   -5.741117   -0.582453
     94          1           0       -9.747622   -4.664301   -0.097250
     95          1           0       -3.554845   -3.281094   -0.496713
     96          1           0       -1.633564   -4.214114    3.429558
     97          1           0       -3.095884   -5.528102    3.576462
     98          1           0       -1.639004   -6.069538    3.025526
     99          1           0        2.753035   -1.488920   -1.370705
    100          1           0        2.719815    0.142642   -2.011523
    101          1           0        4.512147   -0.738659    0.347965
    102          1           0        4.080112    1.358054   -2.800886
    103          1           0        5.624738    2.127676   -2.429559
    104          1           0        5.837361    0.450321   -3.185697
    105          1           0        6.493583    1.637454   -0.193330
    106          1           0        6.417953   -0.103093    0.657730
    107          1           0        7.401984   -1.030661   -1.157074
    108          1           0        7.866520    0.519000   -2.037562
    109          1           0        8.979697    0.908853    0.344748
    110          1           0        8.699450   -0.663263    0.674185
    111          1           0       10.165158   -0.280676   -1.804639
    112          1           0        9.405084   -2.154325   -2.064741
    113          1           0       10.986639   -2.441013   -1.398270
    114          1           0        9.627030   -2.733079   -0.550345
    115          1           0       11.346960    0.696283    0.336409
    116          1           0       11.483227   -0.985872    0.587168
    117          1           0       12.865506   -1.285228   -1.113490
    118          1           0       13.113658    0.325631   -1.726057
    119          1           0       13.736531    0.773680    0.695083
    120          1           0       14.068103   -0.945140    1.194315
    121          1           0       15.471782    0.356344   -1.233148
    122          1           0       15.773453   -2.390186    0.164689
    123          1           0       15.106850   -2.134370   -1.621575
    124          1           0       16.900754   -1.665270   -1.152376
    125          1           0       16.081764    1.411039    0.720950
    126          1           0       16.598980   -0.211168    1.372647
    127          1           0       18.310387   -0.472454   -0.370927
    128          1           0       17.690642    0.991647   -1.115534
    129          1           0       18.579305    2.406194    0.765964
    130          1           0       19.049814    1.017274    1.843333
    131          1           0       20.651255    0.072195    0.179045
    132          1           0       20.276995    2.992444   -0.855987
    133          1           0       21.493607    1.740751   -1.416088
    134          1           0       19.906573    1.200612   -1.940367
    135          1           0       21.029272    1.619852    2.401597
    136          1           0       22.343751    1.674971    1.105325
    137          1           0       21.165349    3.208893    1.119493
 ---------------------------------------------------------------------

 SCF Done:  E(RCAM-B3LYP) =  -2933.44426478     A.U. after   16 cycles

 Excitation energies and oscillator strengths:

 Excited State   1:      Singlet-A      1.8677 eV  663.83 nm  f=0.2623  <S**2>=0.000
     240 -> 243       -0.19062
     241 -> 242        0.67769
 This state for optimization and/or second-order correction.
 Total Energy, E(TD-HF/TD-DFT) =  -2933.37562727
 Copying the excited state density for this state as the 1-particle RhoCI density.

 The electronic state is 1-A.
 Alpha  occ. eigenvalues --  -46.80524 -19.24951 -19.21852 -19.15875 -19.15835
 Alpha  occ. eigenvalues --  -19.15409 -14.37691 -14.35131 -14.34617 -14.34520
 Alpha  occ. eigenvalues --  -10.34969 -10.34049 -10.29793 -10.27786 -10.27559
 Alpha  occ. eigenvalues --  -10.26811 -10.25498 -10.25340 -10.25118 -10.25044
 Alpha  occ. eigenvalues --  -10.24647 -10.24578 -10.24548 -10.24300 -10.24172
 Alpha  occ. eigenvalues --  -10.23965 -10.23890 -10.23788 -10.23638 -10.23605
 Alpha  occ. eigenvalues --  -10.23558 -10.23441 -10.23395 -10.23218 -10.23140
 Alpha  occ. eigenvalues --  -10.22956 -10.22931 -10.22515 -10.22435 -10.22402
 Alpha  occ. eigenvalues --  -10.22402 -10.22389 -10.22293 -10.22255 -10.21924
 Alpha  occ. eigenvalues --  -10.21854 -10.21754 -10.21682 -10.21664 -10.21608
 Alpha  occ. eigenvalues --  -10.21275 -10.21270 -10.21169 -10.21118 -10.21040
 Alpha  occ. eigenvalues --  -10.21011 -10.20903 -10.20902 -10.20831 -10.20550
 Alpha  occ. eigenvalues --  -10.20519 -10.20251 -10.19679 -10.19288 -10.18814
 Alpha  occ. eigenvalues --   -3.09004  -1.83944  -1.83469  -1.83408  -1.18281
 Alpha  occ. eigenvalues --   -1.12640  -1.08969  -1.02739  -1.01862  -1.00380
 Alpha  occ. eigenvalues --   -0.99333  -0.98558  -0.96786  -0.87679  -0.86727
 Alpha  occ. eigenvalues --   -0.86209  -0.85679  -0.85040  -0.84535  -0.83627
 Alpha  occ. eigenvalues --   -0.83249  -0.82915  -0.82719  -0.82575  -0.82397
 Alpha  occ. eigenvalues --   -0.80458  -0.79733  -0.78267  -0.77834  -0.77721
 Alpha  occ. eigenvalues --   -0.77255  -0.75872  -0.75762  -0.75427  -0.73570
 Alpha  occ. eigenvalues --   -0.72515  -0.72198  -0.72118  -0.71687  -0.71041
 Alpha  occ. eigenvalues --   -0.70421  -0.70256  -0.69695  -0.69275  -0.69193
 Alpha  occ. eigenvalues --   -0.67010  -0.66161  -0.64898  -0.64270  -0.63614
 Alpha  occ. eigenvalues --   -0.62917  -0.62750  -0.62063  -0.61372  -0.61045
 Alpha  occ. eigenvalues --   -0.60760  -0.60145  -0.59262  -0.58885  -0.57427
 Alpha  occ. eigenvalues --   -0.56492  -0.56400  -0.55992  -0.55919  -0.55319
 Alpha  occ. eigenvalues --   -0.54958  -0.54610  -0.54140  -0.53160  -0.52823
 Alpha  occ. eigenvalues --   -0.52577  -0.51870  -0.51713  -0.51417  -0.50791
 Alpha  occ. eigenvalues --   -0.50445  -0.50228  -0.49911  -0.49739  -0.49606
 Alpha  occ. eigenvalues --   -0.49132  -0.49047  -0.48814  -0.48773  -0.48712
 Alpha  occ. eigenvalues --   -0.48223  -0.47934  -0.47534  -0.47320  -0.47191
 Alpha  occ. eigenvalues --   -0.46921  -0.46704  -0.46377  -0.46230  -0.45918
 Alpha  occ. eigenvalues --   -0.45836  -0.45453  -0.45267  -0.45119  -0.44736
 Alpha  occ. eigenvalues --   -0.44567  -0.44324  -0.44228  -0.44176  -0.43904
 Alpha  occ. eigenvalues --   -0.43743  -0.43604  -0.43101  -0.42755  -0.42517
 Alpha  occ. eigenvalues --   -0.42322  -0.42307  -0.42129  -0.41879  -0.41676
 Alpha  occ. eigenvalues --   -0.41459  -0.41270  -0.41146  -0.40600  -0.40478
 Alpha  occ. eigenvalues --   -0.40209  -0.40063  -0.39962  -0.39710  -0.39549
 Alpha  occ. eigenvalues --   -0.39490  -0.39427  -0.39185  -0.38941  -0.38723
 Alpha  occ. eigenvalues --   -0.38373  -0.38235  -0.37960  -0.37552  -0.37489
 Alpha  occ. eigenvalues --   -0.37293  -0.37251  -0.37160  -0.37114  -0.36931
 Alpha  occ. eigenvalues --   -0.36668  -0.36427  -0.36426  -0.36145  -0.36119
 Alpha  occ. eigenvalues --   -0.35830  -0.35649  -0.35035  -0.34858  -0.34717
 Alpha  occ. eigenvalues --   -0.34671  -0.34608  -0.34290  -0.34076  -0.33841
 Alpha  occ. eigenvalues --   -0.33283  -0.33208  -0.32993  -0.32829  -0.32474
 Alpha  occ. eigenvalues --   -0.32386  -0.32089  -0.32060  -0.31706  -0.30230
 Alpha  occ. eigenvalues --   -0.29926  -0.29727  -0.28998  -0.28728  -0.27474
 Alpha  occ. eigenvalues --   -0.27061  -0.26515  -0.25171  -0.24169  -0.21528
 Alpha  occ. eigenvalues --   -0.19136
 Alpha virt. eigenvalues --   -0.07249  -0.03635   0.00057   0.02336   0.03563
 Alpha virt. eigenvalues --    0.03719   0.03972   0.04417   0.05364   0.05934
 Alpha virt. eigenvalues --    0.06974   0.08156   0.09175   0.09448   0.09559

 Mulliken charges:
               1
     1  Mg   0.820880
     2  C    0.051994
     3  C   -0.207641
     4  C   -0.188243
     5  C   -0.196230
     6  N   -0.617228
     7  C    0.353286
     8  C   -0.148964
     9  C   -0.149781
    10  C    0.293117
    11  C   -0.317939
    12  C   -0.148749
    13  C   -0.245526
    14  C    0.578432
    15  O   -0.508770
    16  O   -0.376406
    17  N   -0.708271
    18  C    0.339530
    19  C   -0.025060
    20  C    0.030397
    21  C    0.319305
    22  C   -0.379529
    23  C   -0.084194
    24  C   -0.251762
    25  N   -0.718360
    26  C    0.362559
    27  C    0.031018
    28  C    0.048717
    29  C    0.297775
    30  C   -0.400556
    31  C   -0.240594
    32  C   -0.279936
    33  N   -0.722873
    34  C    0.248454
    35  C    0.014366
    36  C    0.036384
    37  C    0.309535
    38  C   -0.316196
    39  C    0.340953
    40  O   -0.419789
    41  C   -0.332649
    42  C    0.625723
    43  O   -0.489122
    44  O   -0.445426
    45  C   -0.086094
    46  C    0.014452
    47  C   -0.128273
    48  C    0.138076
    49  C   -0.369989
    50  C   -0.218578
    51  C   -0.194744
    52  C   -0.173279
    53  C   -0.041815
    54  C   -0.348988
    55  C   -0.172389
    56  C   -0.156944
    57  C   -0.142313
    58  C   -0.036270
    59  C   -0.297724
    60  C   -0.155890
    61  C   -0.184541
    62  C   -0.144220
    63  C   -0.051668
    64  C   -0.291656
    65  C   -0.284880
    66  H    0.091194
    67  H    0.063615
    68  H    0.066053
    69  H    0.112656
    70  H    0.112060
    71  H    0.111994
    72  H    0.096398
    73  H    0.128013
    74  H    0.104884
    75  H    0.116579
    76  H    0.100046
    77  H    0.113169
    78  H    0.128059
    79  H    0.121848
    80  H    0.096394
    81  H    0.085348
    82  H    0.105257
    83  H    0.102739
    84  H    0.115713
    85  H    0.104769
    86  H    0.137266
    87  H    0.096503
    88  H    0.086535
    89  H    0.080257
    90  H    0.109378
    91  H    0.119304
    92  H    0.072513
    93  H    0.135315
    94  H    0.135185
    95  H    0.149989
    96  H    0.134274
    97  H    0.145042
    98  H    0.117013
    99  H    0.122985
   100  H    0.126340
   101  H    0.072590
   102  H    0.113497
   103  H    0.087351
   104  H    0.132005
   105  H    0.112986
   106  H    0.088870
   107  H    0.095149
   108  H    0.068950
   109  H    0.096064
   110  H    0.090931
   111  H    0.097574
   112  H    0.101985
   113  H    0.103601
   114  H    0.109133
   115  H    0.088357
   116  H    0.112586
   117  H    0.103824
   118  H    0.044939
   119  H    0.098626
   120  H    0.015672
   121  H    0.087129
   122  H    0.111387
   123  H    0.100729
   124  H    0.058655
   125  H    0.060016
   126  H    0.091279
   127  H    0.089677
   128  H    0.097255
   129  H    0.083042
   130  H    0.067988
   131  H    0.072052
   132  H    0.094313
   133  H    0.095580
   134  H    0.100177
   135  H    0.097379
   136  H    0.102114
   137  H    0.056946
 Sum of Mulliken charges =  -0.00000

 Dipole moment (field-independent basis, Debye):
    X=              3.2274    Y=              3.3120    Z=             -0.0312  Tot=              4.6245
 Quadrupole moment (field-independent basis, Debye-Ang):
   XX=           -338.6841   YY=           -397.7006   ZZ=           -399.1381
   XY=            -21.7437   XZ=             13.8709   YZ=             -3.4288

 Normal termination of Gaussian 16 at Sat Sep  7 22:42:27 2019.
