 Gaussian 16, Revision A.03,
 Gaussian 16:  ES64L-G16RevA.03 25-Dec-2016

 -------------------------------------
 # td=(NStates=1) CAM-B3LYP/6-31G(d,p)
 -------------------------------------

 --
 TD
 --
 Symbolic Z-matrix:
 Charge =  0 Multiplicity = 1

                         Standard orientation:
 ---------------------------------------------------------------------
 Center     Atomic      Atomic             Coordinates (Angstroms)
 Number     Number       Type             X           Y           Z
 ---------------------------------------------------------------------
      1         12           0       -7.057707    0.595758   -0.062751
      2          6           0       -4.828913   -1.990275    0.528987
      3          6           0       -4.869254    2.795184    1.104484
      4          6           0       -9.468754    3.142164   -0.374317
      5          6           0       -9.547820   -1.778362   -0.920142
      6          7           0       -5.163223    0.347829    0.655563
      7          6           0       -4.330580   -0.699330    0.629488
      8          6           0       -2.953847   -0.326929    1.174946
      9          6           0       -3.038619    1.188984    1.683413
     10          6           0       -4.473402    1.445172    1.165157
     11          6           0       -2.950613    1.220529    3.230769
     12          6           0       -1.966354   -0.599937    0.055068
     13          6           0       -0.492445   -0.229401    0.496234
     14          6           0        0.548580   -0.513332   -0.601919
     15          8           0        0.311579   -0.933244   -1.760783
     16          8           0        1.821449   -0.254737   -0.182686
     17          7           0       -7.222237    2.568476    0.201412
     18          6           0       -6.151270    3.370390    0.705902
     19          6           0       -6.500189    4.767288    0.828412
     20          6           0       -7.749989    4.785055    0.235071
     21          6           0       -8.164450    3.516086   -0.034745
     22          6           0       -5.571880    5.864695    1.317979
     23          6           0       -8.786212    5.948427    0.155134
     24          6           0       -8.664439    7.111191    0.790948
     25          7           0       -9.206184    0.666829   -0.524198
     26          6           0       -9.909065    1.787669   -0.606325
     27          6           0      -11.297072    1.446090   -1.139361
     28          6           0      -11.312609    0.057838   -1.293925
     29          6           0       -9.938228   -0.450172   -0.907079
     30          6           0      -12.329297    2.411949   -1.459365
     31          6           0      -12.313301   -0.857028   -1.664351
     32          6           0      -12.348904   -1.297012   -3.261738
     33          7           0       -7.308005   -1.479383   -0.151353
     34          6           0       -8.227313   -2.332129   -0.601908
     35          6           0       -7.777345   -3.667093   -0.436789
     36          6           0       -6.459668   -3.641191   -0.078907
     37          6           0       -6.190844   -2.285942    0.129808
     38          6           0       -8.563795   -4.824613   -0.760231
     39          6           0       -5.296850   -4.395142    0.201977
     40          8           0       -5.145330   -5.578267    0.259487
     41          6           0       -4.149095   -3.216202    0.564531
     42          6           0       -3.436011   -3.553997    1.958718
     43          8           0       -3.651814   -2.885182    2.952426
     44          8           0       -2.671536   -4.594892    1.973506
     45          6           0       -2.058527   -5.074239    3.092193
     46          6           0        2.795268   -0.605778   -1.220038
     47          6           0        4.135155   -0.428233   -0.588656
     48          6           0        5.192910    0.301711   -1.034501
     49          6           0        5.176067    1.151814   -2.206182
     50          6           0        6.435421    0.374993   -0.168144
     51          6           0        7.665525   -0.213004   -0.808739
     52          6           0        8.996397   -0.129981   -0.119499
     53          6           0       10.177690   -0.643945   -0.863328
     54          6           0       10.075211   -2.107065   -1.142798
     55          6           0       11.505618   -0.310064   -0.166515
     56          6           0       12.756666   -0.566303   -0.752046
     57          6           0       14.036015   -0.152509    0.186732
     58          6           0       15.409072   -0.199246   -0.542766
     59          6           0       15.809119   -1.672443   -0.859797
     60          6           0       16.404971    0.476047    0.384250
     61          6           0       17.901935    0.559177   -0.101722
     62          6           0       18.877522    1.376611    0.735526
     63          6           0       20.255575    1.354627    0.161751
     64          6           0       20.352509    2.265964   -1.118316
     65          6           0       21.190761    1.879565    1.319706
     66          1           0       -4.175893    3.575717    1.503190
     67          1           0      -10.234591    3.936373   -0.606224
     68          1           0      -10.268111   -2.404796   -1.271964
     69          1           0       -2.544231   -0.793493    2.032815
     70          1           0       -2.311943    1.821556    1.166174
     71          1           0       -1.943932    1.079146    3.650412
     72          1           0       -3.224142    2.123975    3.660767
     73          1           0       -3.848847    0.444623    3.726831
     74          1           0       -2.034079   -1.515978   -0.396830
     75          1           0       -2.022412    0.043792   -0.805870
     76          1           0       -0.539836    0.777449    0.992876
     77          1           0       -0.277027   -0.812280    1.349305
     78          1           0       -5.756935    6.986160    0.865527
     79          1           0       -5.738245    6.276204    2.399849
     80          1           0       -4.668388    5.655605    1.149363
     81          1           0       -9.493396    5.791142   -0.615101
     82          1           0       -9.411492    7.656091    0.622098
     83          1           0       -7.981741    7.092404    1.640370
     84          1           0      -12.064846    2.996827   -2.307272
     85          1           0      -13.134960    1.842036   -1.689335
     86          1           0      -12.529499    3.080280   -0.626291
     87          1           0      -12.468903   -1.659611   -1.124882
     88          1           0      -13.415095   -0.456921   -1.547404
     89          1           0      -13.066515   -1.863471   -3.465789
     90          1           0      -12.312184   -0.462170   -3.969542
     91          1           0      -11.401876   -1.880748   -3.456245
     92          1           0       -9.006133   -4.408700   -1.888136
     93          1           0       -8.063185   -5.750225   -0.667400
     94          1           0       -9.471187   -4.931368   -0.078779
     95          1           0       -3.753529   -3.599965   -0.447501
     96          1           0       -1.494985   -4.231201    3.438082
     97          1           0       -2.846378   -5.143799    3.949916
     98          1           0       -1.711769   -6.158770    3.052655
     99          1           0        2.586496   -1.590407   -1.601637
    100          1           0        2.575662    0.266057   -1.984447
    101          1           0        4.409483   -1.080806    0.334099
    102          1           0        4.052481    1.343013   -2.433810
    103          1           0        5.526650    2.133168   -2.090066
    104          1           0        5.694386    0.839868   -3.008680
    105          1           0        6.548343    1.507117    0.033590
    106          1           0        6.244646   -0.248132    0.746753
    107          1           0        7.410770   -1.272998   -0.956721
    108          1           0        7.641018    0.157386   -1.723981
    109          1           0        9.207805    0.953085    0.051504
    110          1           0        8.879187   -0.542716    0.799988
    111          1           0       10.313721   -0.219410   -1.831794
    112          1           0        9.250838   -2.578534   -1.667001
    113          1           0       11.162185   -2.296936   -1.573335
    114          1           0       10.096956   -2.663701   -0.291832
    115          1           0       11.509734    0.644269    0.324341
    116          1           0       11.538475   -0.987396    0.834177
    117          1           0       12.928731   -1.582811   -1.033409
    118          1           0       12.938672   -0.058681   -1.667080
    119          1           0       13.882573    0.953626    0.565382
    120          1           0       14.017291   -0.891339    0.984011
    121          1           0       15.370059    0.499556   -1.649110
    122          1           0       15.770523   -2.461265    0.035006
    123          1           0       15.175489   -2.180570   -1.507979
    124          1           0       16.709565   -1.720151   -1.511669
    125          1           0       16.120735    1.532236    0.646248
    126          1           0       16.641641    0.083653    1.376785
    127          1           0       18.382126   -0.552533   -0.215274
    128          1           0       17.802207    0.840199   -1.303434
    129          1           0       18.401475    2.377948    0.731995
    130          1           0       18.862442    0.825644    1.745605
    131          1           0       20.553556    0.361077   -0.067998
    132          1           0       20.095737    3.315911   -0.966968
    133          1           0       21.297421    2.271955   -1.558330
    134          1           0       19.488101    1.898837   -1.866205
    135          1           0       21.073807    1.396442    2.288367
    136          1           0       22.272252    1.814405    0.959474
    137          1           0       20.972067    2.872353    1.347027
 ---------------------------------------------------------------------

 SCF Done:  E(RCAM-B3LYP) =  -2932.63516222     A.U. after   18 cycles

 Excitation energies and oscillator strengths:

 Excited State   1:      Singlet-A      1.8829 eV  658.47 nm  f=0.2945  <S**2>=0.000
     240 -> 242       -0.11207
     240 -> 243        0.21341
     241 -> 242        0.65974
 This state for optimization and/or second-order correction.
 Total Energy, E(TD-HF/TD-DFT) =  -2932.56596634
 Copying the excited state density for this state as the 1-particle RhoCI density.

 The electronic state is 1-A.
 Alpha  occ. eigenvalues --  -46.84957 -19.26439 -19.26098 -19.20885 -19.20631
 Alpha  occ. eigenvalues --  -19.19717 -14.42184 -14.39510 -14.39386 -14.38897
 Alpha  occ. eigenvalues --  -10.39760 -10.39419 -10.35066 -10.32201 -10.31920
 Alpha  occ. eigenvalues --  -10.31415 -10.30741 -10.30088 -10.29710 -10.29052
 Alpha  occ. eigenvalues --  -10.28854 -10.28702 -10.28320 -10.28319 -10.28298
 Alpha  occ. eigenvalues --  -10.28130 -10.27928 -10.27796 -10.27543 -10.27409
 Alpha  occ. eigenvalues --  -10.27223 -10.27171 -10.27125 -10.26892 -10.26851
 Alpha  occ. eigenvalues --  -10.26828 -10.26783 -10.26649 -10.26635 -10.26462
 Alpha  occ. eigenvalues --  -10.26461 -10.26432 -10.26366 -10.26192 -10.26181
 Alpha  occ. eigenvalues --  -10.26118 -10.26037 -10.25733 -10.25465 -10.25321
 Alpha  occ. eigenvalues --  -10.25299 -10.25193 -10.24952 -10.24886 -10.24870
 Alpha  occ. eigenvalues --  -10.24658 -10.24506 -10.24495 -10.24346 -10.24086
 Alpha  occ. eigenvalues --  -10.23927 -10.23875 -10.23756 -10.23709 -10.23641
 Alpha  occ. eigenvalues --   -3.13869  -1.88574  -1.88099  -1.88054  -1.20779
 Alpha  occ. eigenvalues --   -1.16908  -1.12359  -1.08963  -1.07157  -1.04410
 Alpha  occ. eigenvalues --   -1.03633  -1.03317  -1.01923  -0.92884  -0.92265
 Alpha  occ. eigenvalues --   -0.90940  -0.89784  -0.89697  -0.89156  -0.88791
 Alpha  occ. eigenvalues --   -0.88228  -0.88186  -0.87769  -0.86794  -0.86133
 Alpha  occ. eigenvalues --   -0.85555  -0.84235  -0.83755  -0.83297  -0.82866
 Alpha  occ. eigenvalues --   -0.82162  -0.81270  -0.80739  -0.80537  -0.78983
 Alpha  occ. eigenvalues --   -0.78088  -0.77516  -0.76999  -0.75991  -0.75570
 Alpha  occ. eigenvalues --   -0.75488  -0.74794  -0.74513  -0.73437  -0.72183
 Alpha  occ. eigenvalues --   -0.71899  -0.71291  -0.69937  -0.68933  -0.68304
 Alpha  occ. eigenvalues --   -0.66922  -0.66319  -0.65172  -0.64966  -0.64807
 Alpha  occ. eigenvalues --   -0.64333  -0.64229  -0.62796  -0.62726  -0.62543
 Alpha  occ. eigenvalues --   -0.61590  -0.61392  -0.60528  -0.59990  -0.59454
 Alpha  occ. eigenvalues --   -0.59305  -0.58606  -0.57975  -0.57520  -0.56796
 Alpha  occ. eigenvalues --   -0.56459  -0.56185  -0.56122  -0.55181  -0.54996
 Alpha  occ. eigenvalues --   -0.54676  -0.54173  -0.53915  -0.53867  -0.53162
 Alpha  occ. eigenvalues --   -0.52936  -0.52611  -0.52375  -0.52071  -0.51899
 Alpha  occ. eigenvalues --   -0.51526  -0.51176  -0.51059  -0.50979  -0.50909
 Alpha  occ. eigenvalues --   -0.50374  -0.50249  -0.50012  -0.49905  -0.49658
 Alpha  occ. eigenvalues --   -0.49472  -0.49119  -0.48924  -0.48797  -0.48692
 Alpha  occ. eigenvalues --   -0.48538  -0.48182  -0.47694  -0.47572  -0.47315
 Alpha  occ. eigenvalues --   -0.47288  -0.47122  -0.46683  -0.46321  -0.46123
 Alpha  occ. eigenvalues --   -0.45941  -0.45739  -0.45704  -0.45567  -0.45441
 Alpha  occ. eigenvalues --   -0.44757  -0.44488  -0.44108  -0.44033  -0.43859
 Alpha  occ. eigenvalues --   -0.43805  -0.43598  -0.43504  -0.43346  -0.43333
 Alpha  occ. eigenvalues --   -0.43244  -0.42779  -0.42734  -0.42501  -0.42191
 Alpha  occ. eigenvalues --   -0.42078  -0.41937  -0.41883  -0.41824  -0.41311
 Alpha  occ. eigenvalues --   -0.40892  -0.40719  -0.40495  -0.40398  -0.40213
 Alpha  occ. eigenvalues --   -0.40003  -0.39800  -0.39509  -0.39464  -0.39200
 Alpha  occ. eigenvalues --   -0.39175  -0.38762  -0.38426  -0.38248  -0.37891
 Alpha  occ. eigenvalues --   -0.37713  -0.37330  -0.36864  -0.36786  -0.36529
 Alpha  occ. eigenvalues --   -0.36386  -0.35752  -0.35618  -0.35395  -0.35307
 Alpha  occ. eigenvalues --   -0.34897  -0.34803  -0.34505  -0.33771  -0.33519
 Alpha  occ. eigenvalues --   -0.33197  -0.32337  -0.31978  -0.30738  -0.29619
 Alpha  occ. eigenvalues --   -0.29016  -0.28642  -0.28481  -0.27509  -0.22734
 Alpha  occ. eigenvalues --   -0.20872
 Alpha virt. eigenvalues --   -0.07232  -0.02466   0.01555   0.04297   0.05150
 Alpha virt. eigenvalues --    0.05444   0.06045   0.06437   0.06923   0.08022
 Alpha virt. eigenvalues --    0.08332   0.10739   0.11137   0.11604   0.12084

 Mulliken charges:
               1
     1  Mg   0.840342
     2  C    0.154335
     3  C   -0.200447
     4  C   -0.183468
     5  C   -0.150597
     6  N   -0.641909
     7  C    0.292584
     8  C   -0.160049
     9  C   -0.138340
    10  C    0.309159
    11  C   -0.313253
    12  C   -0.182978
    13  C   -0.290274
    14  C    0.616155
    15  O   -0.497301
    16  O   -0.478583
    17  N   -0.718109
    18  C    0.261440
    19  C    0.039799
    20  C   -0.021340
    21  C    0.347334
    22  C   -0.364635
    23  C   -0.067746
    24  C   -0.210896
    25  N   -0.677990
    26  C    0.313254
    27  C   -0.014166
    28  C    0.084262
    29  C    0.283477
    30  C   -0.368231
    31  C   -0.294533
    32  C   -0.313690
    33  N   -0.691923
    34  C    0.277551
    35  C    0.002968
    36  C    0.112225
    37  C    0.210917
    38  C   -0.369065
    39  C    0.281786
    40  O   -0.439317
    41  C   -0.389028
    42  C    0.617070
    43  O   -0.485577
    44  O   -0.393645
    45  C   -0.093725
    46  C    0.010110
    47  C   -0.135285
    48  C    0.129435
    49  C   -0.368604
    50  C   -0.223185
    51  C   -0.173593
    52  C   -0.156727
    53  C   -0.053422
    54  C   -0.311067
    55  C   -0.162598
    56  C   -0.190205
    57  C   -0.176666
    58  C   -0.036760
    59  C   -0.318021
    60  C   -0.160797
    61  C   -0.181562
    62  C   -0.153374
    63  C   -0.054417
    64  C   -0.318752
    65  C   -0.311573
    66  H    0.079501
    67  H    0.090217
    68  H    0.078259
    69  H    0.135759
    70  H    0.115049
    71  H    0.110482
    72  H    0.120172
    73  H    0.109645
    74  H    0.132119
    75  H    0.117126
    76  H    0.127332
    77  H    0.137485
    78  H    0.108428
    79  H    0.116290
    80  H    0.128572
    81  H    0.092843
    82  H    0.090402
    83  H    0.104262
    84  H    0.127166
    85  H    0.119988
    86  H    0.119569
    87  H    0.125140
    88  H    0.082928
    89  H    0.118078
    90  H    0.110088
    91  H    0.095192
    92  H    0.091682
    93  H    0.143801
    94  H    0.118920
    95  H    0.162425
    96  H    0.127434
    97  H    0.110336
    98  H    0.136711
    99  H    0.148726
   100  H    0.116970
   101  H    0.083036
   102  H    0.095755
   103  H    0.119235
   104  H    0.136799
   105  H    0.088812
   106  H    0.087280
   107  H    0.088393
   108  H    0.095681
   109  H    0.077288
   110  H    0.098022
   111  H    0.090427
   112  H    0.106355
   113  H    0.075096
   114  H    0.108106
   115  H    0.095116
   116  H    0.051290
   117  H    0.101595
   118  H    0.090861
   119  H    0.077747
   120  H    0.103422
   121  H    0.051363
   122  H    0.089798
   123  H    0.112572
   124  H    0.106896
   125  H    0.083641
   126  H    0.096639
   127  H    0.064985
   128  H    0.051888
   129  H    0.095518
   130  H    0.085819
   131  H    0.095368
   132  H    0.102283
   133  H    0.110687
   134  H    0.088895
   135  H    0.101658
   136  H    0.081805
   137  H    0.113994
 Sum of Mulliken charges =  -0.00000

 Dipole moment (field-independent basis, Debye):
    X=              1.2507    Y=              4.3652    Z=              0.0241  Tot=              4.5409
 Quadrupole moment (field-independent basis, Debye-Ang):
   XX=           -343.7654   YY=           -386.3668   ZZ=           -396.1004
   XY=            -23.0463   XZ=             15.3784   YZ=             -1.3724

 Normal termination of Gaussian 16 at Wed Jun 26 23:25:15 2019.
