 Gaussian 16, Revision A.03,
 Gaussian 16:  ES64L-G16RevA.03 25-Dec-2016

 ----------------------------------------------------------------------
 # td=(NStates=1) iop(3/107=0140000000,3/108=0140000000) CAM-B3LYP/6-31
 G(d,p)
 ----------------------------------------------------------------------

 --
 TD
 --
 Symbolic Z-matrix:
 Charge =  0 Multiplicity = 1

                         Standard orientation:
 ---------------------------------------------------------------------
 Center     Atomic      Atomic             Coordinates (Angstroms)
 Number     Number       Type             X           Y           Z
 ---------------------------------------------------------------------
      1         12           0       -7.092243    0.610200    0.123702
      2          6           0       -4.799436   -1.993236    0.580103
      3          6           0       -4.714059    2.788986    1.216868
      4          6           0       -9.289359    3.110939   -0.218230
      5          6           0       -9.519008   -1.743775   -0.877177
      6          7           0       -5.060509    0.430372    0.741152
      7          6           0       -4.327876   -0.743095    0.769001
      8          6           0       -2.934480   -0.405470    1.156064
      9          6           0       -2.977447    1.015516    1.818526
     10          6           0       -4.271629    1.498591    1.186150
     11          6           0       -3.115959    1.038412    3.331954
     12          6           0       -1.956823   -0.574458   -0.020263
     13          6           0       -0.497077   -0.514737    0.413080
     14          6           0        0.516053   -0.703596   -0.679023
     15          8           0        0.168902   -1.088814   -1.750806
     16          8           0        1.825312   -0.416941   -0.270616
     17          7           0       -7.104292    2.654562    0.423944
     18          6           0       -5.928018    3.314313    0.731319
     19          6           0       -6.270149    4.835302    0.790122
     20          6           0       -7.593454    4.907399    0.327440
     21          6           0       -8.101559    3.568241    0.114690
     22          6           0       -5.244077    5.928596    1.059703
     23          6           0       -8.355263    6.007831    0.106002
     24          6           0       -8.213603    7.243213    0.894081
     25          7           0       -9.031291    0.696922   -0.549371
     26          6           0       -9.809114    1.879127   -0.589134
     27          6           0      -11.146502    1.487513   -1.132898
     28          6           0      -11.203265    0.169250   -1.386389
     29          6           0       -9.839483   -0.366935   -0.934973
     30          6           0      -12.195062    2.550669   -1.426626
     31          6           0      -12.349963   -0.704229   -1.819234
     32          6           0      -12.196249   -1.156042   -3.253865
     33          7           0       -7.191836   -1.466905   -0.019998
     34          6           0       -8.305666   -2.186587   -0.403579
     35          6           0       -7.877402   -3.533246   -0.364391
     36          6           0       -6.525413   -3.614893   -0.021040
     37          6           0       -6.114077   -2.279629    0.105545
     38          6           0       -8.663695   -4.786160   -0.932279
     39          6           0       -5.340435   -4.455171    0.324936
     40          8           0       -5.258590   -5.565160    0.285958
     41          6           0       -4.109142   -3.293351    0.652189
     42          6           0       -3.563068   -3.708109    1.870460
     43          8           0       -3.887620   -3.208413    3.066868
     44          8           0       -2.590641   -4.593104    1.742501
     45          6           0       -2.071712   -5.139483    2.972206
     46          6           0        2.693395   -0.718604   -1.329704
     47          6           0        4.040163   -0.447767   -0.678614
     48          6           0        5.088910    0.352279   -1.131780
     49          6           0        4.969045    1.170728   -2.373273
     50          6           0        6.271308    0.283101   -0.353181
     51          6           0        7.608146   -0.140540   -1.073239
     52          6           0        8.884556   -0.153261   -0.294711
     53          6           0       10.106104   -0.616311   -1.053349
     54          6           0       10.037402   -2.088787   -1.261274
     55          6           0       11.321463   -0.293614   -0.207158
     56          6           0       12.715157   -0.492605   -0.824411
     57          6           0       13.955353   -0.130221    0.136604
     58          6           0       15.303927   -0.279154   -0.418148
     59          6           0       15.725896   -1.698858   -0.850476
     60          6           0       16.317278    0.410274    0.445600
     61          6           0       17.697592    0.498091   -0.176479
     62          6           0       18.703575    1.210325    0.744555
     63          6           0       20.170596    1.379009    0.313230
     64          6           0       20.156103    2.551560   -0.805076
     65          6           0       21.081403    1.817741    1.500353
     66          1           0       -4.055886    3.523199    1.747118
     67          1           0      -10.168146    3.982247   -0.373381
     68          1           0      -10.405247   -2.279277   -1.036437
     69          1           0       -2.459014   -0.869798    2.007939
     70          1           0       -1.996141    1.541409    1.378655
     71          1           0       -2.175760    0.871068    3.703618
     72          1           0       -3.263401    2.038131    3.476146
     73          1           0       -3.935917    0.527262    3.848105
     74          1           0       -2.090835   -1.549821   -0.522381
     75          1           0       -1.942385    0.199170   -0.818647
     76          1           0       -0.207058    0.593650    0.887511
     77          1           0       -0.525178   -1.185963    1.232935
     78          1           0       -5.428460    6.936761    0.736342
     79          1           0       -5.364042    5.903817    2.051985
     80          1           0       -4.186002    5.748970    0.824486
     81          1           0       -9.214415    5.958262   -0.331957
     82          1           0       -8.884990    8.114601    0.745645
     83          1           0       -7.359049    7.348105    1.618480
     84          1           0      -11.961586    3.366831   -2.367465
     85          1           0      -13.044915    2.073408   -1.875403
     86          1           0      -12.595587    3.210008   -0.566862
     87          1           0      -12.752886   -1.310488   -0.860446
     88          1           0      -13.290841   -0.107375   -2.009810
     89          1           0      -13.012480   -1.641422   -3.594049
     90          1           0      -12.112128   -0.218567   -3.839224
     91          1           0      -11.379942   -1.644972   -3.229730
     92          1           0       -8.896457   -4.594467   -1.985229
     93          1           0       -8.127175   -5.767701   -0.860626
     94          1           0       -9.641625   -4.736041   -0.457249
     95          1           0       -3.361173   -3.458764   -0.066201
     96          1           0       -1.355200   -4.547755    3.387733
     97          1           0       -2.839281   -5.166886    3.656353
     98          1           0       -1.506858   -6.086761    2.548136
     99          1           0        2.541361   -1.799673   -1.880986
    100          1           0        2.557682    0.087042   -2.169412
    101          1           0        4.345576   -1.136693    0.189425
    102          1           0        3.839636    1.591083   -2.590466
    103          1           0        5.727804    2.237212   -2.103156
    104          1           0        5.100334    0.713491   -3.381386
    105          1           0        6.418444    1.484975   -0.019247
    106          1           0        6.192436   -0.456609    0.504689
    107          1           0        7.363651   -1.157554   -1.426888
    108          1           0        7.682237    0.433770   -1.940469
    109          1           0        8.930058    0.867013    0.052225
    110          1           0        8.894760   -0.688322    0.810652
    111          1           0        9.977198    0.023339   -1.978431
    112          1           0        9.168852   -2.464149   -1.685013
    113          1           0       10.817917   -2.382869   -1.859487
    114          1           0       10.232560   -2.641220   -0.412967
    115          1           0       11.297217    0.730662    0.059399
    116          1           0       11.375222   -0.882548    0.679813
    117          1           0       12.629046   -1.713961   -0.727366
    118          1           0       12.684790    0.018028   -1.835014
    119          1           0       13.669552    0.952757    0.527347
    120          1           0       13.768629   -0.650182    0.995397
    121          1           0       15.083085    0.157246   -1.373037
    122          1           0       15.788040   -2.393346   -0.089609
    123          1           0       14.743833   -2.077542   -1.395617
    124          1           0       16.570031   -1.859175   -1.448157
    125          1           0       15.976936    1.528339    0.613423
    126          1           0       16.552432   -0.084681    1.381005
    127          1           0       17.974176   -0.511035   -0.277626
    128          1           0       17.633943    1.064892   -1.104547
    129          1           0       18.156727    2.166010    1.046619
    130          1           0       18.790190    0.413283    1.886481
    131          1           0       20.543400    0.310809   -0.141455
    132          1           0       19.666632    3.583533   -0.539320
    133          1           0       21.297929    2.714024   -1.323517
    134          1           0       19.632715    2.244597   -1.903922
    135          1           0       20.910205    1.103865    2.480959
    136          1           0       22.019435    1.889735    1.250307
    137          1           0       21.085462    2.934944    1.802648
 ---------------------------------------------------------------------

 SCF Done:  E(RCAM-B3LYP) =  -2933.37191572     A.U. after   16 cycles

 Excitation energies and oscillator strengths:

 Excited State   1:      Singlet-A      2.0710 eV  598.68 nm  f=0.2713  <S**2>=0.000
     240 -> 243        0.23429
     241 -> 242        0.66281
 This state for optimization and/or second-order correction.
 Total Energy, E(TD-HF/TD-DFT) =  -2933.29580935
 Copying the excited state density for this state as the 1-particle RhoCI density.

 The electronic state is 1-A.
 Alpha  occ. eigenvalues --  -46.79831 -19.22644 -19.22426 -19.18318 -19.18060
 Alpha  occ. eigenvalues --  -19.13869 -14.37273 -14.35790 -14.35629 -14.34405
 Alpha  occ. eigenvalues --  -10.34960 -10.33209 -10.31449 -10.28767 -10.26574
 Alpha  occ. eigenvalues --  -10.26084 -10.25930 -10.25488 -10.25477 -10.25203
 Alpha  occ. eigenvalues --  -10.25155 -10.24805 -10.24665 -10.24514 -10.24277
 Alpha  occ. eigenvalues --  -10.24068 -10.23988 -10.23665 -10.23662 -10.23410
 Alpha  occ. eigenvalues --  -10.23360 -10.23323 -10.23311 -10.23308 -10.23245
 Alpha  occ. eigenvalues --  -10.23154 -10.23079 -10.23024 -10.22801 -10.22741
 Alpha  occ. eigenvalues --  -10.22499 -10.22323 -10.22183 -10.22183 -10.22148
 Alpha  occ. eigenvalues --  -10.22079 -10.22053 -10.21880 -10.21825 -10.21728
 Alpha  occ. eigenvalues --  -10.21546 -10.21279 -10.21133 -10.20977 -10.20872
 Alpha  occ. eigenvalues --  -10.20822 -10.20771 -10.20589 -10.20146 -10.19981
 Alpha  occ. eigenvalues --  -10.19686 -10.19661 -10.19567 -10.19242 -10.17876
 Alpha  occ. eigenvalues --   -3.08297  -1.83258  -1.82755  -1.82697  -1.13798
 Alpha  occ. eigenvalues --   -1.13796  -1.12580  -1.06642  -0.98660  -0.97667
 Alpha  occ. eigenvalues --   -0.97448  -0.97132  -0.95725  -0.87542  -0.86786
 Alpha  occ. eigenvalues --   -0.85856  -0.85161  -0.84931  -0.84602  -0.84384
 Alpha  occ. eigenvalues --   -0.83517  -0.82715  -0.82357  -0.81674  -0.80568
 Alpha  occ. eigenvalues --   -0.79991  -0.79668  -0.79215  -0.78387  -0.78167
 Alpha  occ. eigenvalues --   -0.77327  -0.76681  -0.75755  -0.75098  -0.73354
 Alpha  occ. eigenvalues --   -0.72888  -0.72580  -0.71951  -0.71902  -0.71270
 Alpha  occ. eigenvalues --   -0.70420  -0.70352  -0.68811  -0.68262  -0.67914
 Alpha  occ. eigenvalues --   -0.67223  -0.66063  -0.65600  -0.64238  -0.63669
 Alpha  occ. eigenvalues --   -0.63423  -0.61952  -0.61323  -0.60335  -0.59970
 Alpha  occ. eigenvalues --   -0.59645  -0.59217  -0.58818  -0.58661  -0.58120
 Alpha  occ. eigenvalues --   -0.57081  -0.56729  -0.56552  -0.55594  -0.55047
 Alpha  occ. eigenvalues --   -0.54745  -0.54581  -0.54025  -0.53537  -0.53227
 Alpha  occ. eigenvalues --   -0.52298  -0.52209  -0.51715  -0.51413  -0.51018
 Alpha  occ. eigenvalues --   -0.50834  -0.50334  -0.50171  -0.49854  -0.49722
 Alpha  occ. eigenvalues --   -0.49553  -0.49285  -0.48622  -0.48381  -0.48264
 Alpha  occ. eigenvalues --   -0.47960  -0.47695  -0.47609  -0.47431  -0.47043
 Alpha  occ. eigenvalues --   -0.46695  -0.46508  -0.46303  -0.46153  -0.45922
 Alpha  occ. eigenvalues --   -0.45728  -0.45611  -0.45108  -0.45048  -0.44902
 Alpha  occ. eigenvalues --   -0.44771  -0.44487  -0.44225  -0.44124  -0.43681
 Alpha  occ. eigenvalues --   -0.43522  -0.43336  -0.43060  -0.42887  -0.42805
 Alpha  occ. eigenvalues --   -0.42486  -0.42454  -0.41859  -0.41805  -0.41593
 Alpha  occ. eigenvalues --   -0.41442  -0.41382  -0.41281  -0.41065  -0.40822
 Alpha  occ. eigenvalues --   -0.40409  -0.40371  -0.40071  -0.39834  -0.39751
 Alpha  occ. eigenvalues --   -0.39386  -0.39340  -0.39291  -0.38949  -0.38803
 Alpha  occ. eigenvalues --   -0.38390  -0.37903  -0.37774  -0.37643  -0.37468
 Alpha  occ. eigenvalues --   -0.37437  -0.37276  -0.37255  -0.37062  -0.36902
 Alpha  occ. eigenvalues --   -0.36853  -0.36689  -0.36518  -0.36379  -0.36185
 Alpha  occ. eigenvalues --   -0.35982  -0.35461  -0.34913  -0.34658  -0.34501
 Alpha  occ. eigenvalues --   -0.34260  -0.34088  -0.33821  -0.33452  -0.33366
 Alpha  occ. eigenvalues --   -0.33192  -0.32801  -0.32714  -0.32504  -0.32358
 Alpha  occ. eigenvalues --   -0.31857  -0.31473  -0.31273  -0.30828  -0.30423
 Alpha  occ. eigenvalues --   -0.29990  -0.29817  -0.28765  -0.27635  -0.26863
 Alpha  occ. eigenvalues --   -0.26586  -0.25930  -0.25645  -0.23494  -0.21846
 Alpha  occ. eigenvalues --   -0.20203
 Alpha virt. eigenvalues --   -0.07146  -0.03843  -0.00020   0.01715   0.02609
 Alpha virt. eigenvalues --    0.03108   0.03213   0.04882   0.05161   0.05673
 Alpha virt. eigenvalues --    0.06556   0.08327   0.08558   0.09086   0.09216

 Mulliken charges:
               1
     1  Mg   0.807336
     2  C    0.160608
     3  C   -0.199278
     4  C   -0.218947
     5  C   -0.128601
     6  N   -0.645984
     7  C    0.329543
     8  C   -0.165086
     9  C   -0.171190
    10  C    0.342211
    11  C   -0.301416
    12  C   -0.170603
    13  C   -0.274888
    14  C    0.624125
    15  O   -0.438297
    16  O   -0.456173
    17  N   -0.701344
    18  C    0.294612
    19  C   -0.022293
    20  C    0.071709
    21  C    0.360958
    22  C   -0.373751
    23  C   -0.098904
    24  C   -0.256707
    25  N   -0.693577
    26  C    0.302262
    27  C    0.043386
    28  C    0.043120
    29  C    0.258946
    30  C   -0.377660
    31  C   -0.282486
    32  C   -0.293292
    33  N   -0.734829
    34  C    0.339832
    35  C   -0.073877
    36  C    0.035699
    37  C    0.229053
    38  C   -0.369888
    39  C    0.352236
    40  O   -0.348184
    41  C   -0.371727
    42  C    0.625122
    43  O   -0.562869
    44  O   -0.439867
    45  C   -0.081758
    46  C    0.008673
    47  C   -0.136473
    48  C    0.192330
    49  C   -0.355527
    50  C   -0.229828
    51  C   -0.187470
    52  C   -0.146856
    53  C   -0.046335
    54  C   -0.315242
    55  C   -0.180363
    56  C   -0.189537
    57  C   -0.169211
    58  C   -0.028019
    59  C   -0.336984
    60  C   -0.164657
    61  C   -0.174183
    62  C   -0.119779
    63  C   -0.028485
    64  C   -0.302075
    65  C   -0.289185
    66  H    0.082018
    67  H    0.072879
    68  H    0.097524
    69  H    0.114902
    70  H    0.089146
    71  H    0.116130
    72  H    0.117216
    73  H    0.144822
    74  H    0.122977
    75  H    0.109327
    76  H    0.095256
    77  H    0.139726
    78  H    0.127595
    79  H    0.148911
    80  H    0.119821
    81  H    0.076167
    82  H    0.105723
    83  H    0.096411
    84  H    0.083937
    85  H    0.115833
    86  H    0.116468
    87  H    0.104965
    88  H    0.101210
    89  H    0.115451
    90  H    0.113053
    91  H    0.119748
    92  H    0.125367
    93  H    0.133841
    94  H    0.116765
    95  H    0.150973
    96  H    0.132297
    97  H    0.153170
    98  H    0.111953
    99  H    0.118654
   100  H    0.093822
   101  H    0.079077
   102  H    0.101963
   103  H    0.062122
   104  H    0.138119
   105  H    0.056959
   106  H    0.101225
   107  H    0.091988
   108  H    0.102982
   109  H    0.090200
   110  H    0.052348
   111  H    0.075248
   112  H    0.103756
   113  H    0.112300
   114  H    0.106586
   115  H    0.084459
   116  H    0.094565
   117  H    0.069395
   118  H    0.086379
   119  H    0.070236
   120  H    0.094750
   121  H    0.093720
   122  H    0.107620
   123  H    0.085157
   124  H    0.117316
   125  H    0.066338
   126  H    0.095475
   127  H    0.100351
   128  H    0.095383
   129  H    0.086705
   130  H   -0.001286
   131  H    0.079749
   132  H    0.110454
   133  H    0.068903
   134  H    0.076561
   135  H    0.084472
   136  H    0.117738
   137  H    0.088552
 Sum of Mulliken charges =  -0.00000

 Dipole moment (field-independent basis, Debye):
    X=              1.0494    Y=              3.5107    Z=             -1.2151  Tot=              3.8604
 Quadrupole moment (field-independent basis, Debye-Ang):
   XX=           -343.0200   YY=           -389.4729   ZZ=           -399.5014
   XY=            -19.0720   XZ=             12.4126   YZ=              3.4821

 Normal termination of Gaussian 16 at Tue Sep 10 15:06:49 2019.
