 Gaussian 16, Revision A.03,
 Gaussian 16:  ES64L-G16RevA.03 25-Dec-2016

 ----------------------------------------------------------------------
 # td=(NStates=1) iop(3/107=0140000000,3/108=0140000000) CAM-B3LYP/6-31
 G(d,p)
 ----------------------------------------------------------------------

 --
 TD
 --
 Symbolic Z-matrix:
 Charge =  0 Multiplicity = 1

                         Standard orientation:
 ---------------------------------------------------------------------
 Center     Atomic      Atomic             Coordinates (Angstroms)
 Number     Number       Type             X           Y           Z
 ---------------------------------------------------------------------
      1         12           0       -7.119676    0.622150    0.037358
      2          6           0       -4.910173   -1.935578    0.492700
      3          6           0       -4.827715    2.896533    1.141517
      4          6           0       -9.454807    3.098098   -0.276084
      5          6           0       -9.647652   -1.735793   -0.751326
      6          7           0       -5.077754    0.427621    0.658411
      7          6           0       -4.318226   -0.715711    0.724476
      8          6           0       -2.850578   -0.404532    1.052614
      9          6           0       -2.941205    1.106589    1.664319
     10          6           0       -4.394824    1.521023    1.075733
     11          6           0       -2.892362    1.140834    3.155405
     12          6           0       -1.982341   -0.641161   -0.167927
     13          6           0       -0.474605   -0.537913    0.285653
     14          6           0        0.494463   -0.712203   -0.932446
     15          8           0        0.245167   -0.991734   -2.015747
     16          8           0        1.753986   -0.395602   -0.465221
     17          7           0       -7.077859    2.650846    0.366661
     18          6           0       -6.106880    3.421372    0.842815
     19          6           0       -6.435749    4.796357    0.832267
     20          6           0       -7.802933    4.889818    0.411779
     21          6           0       -8.137711    3.525877    0.208517
     22          6           0       -5.487736    5.844517    1.236734
     23          6           0       -8.520969    6.070426    0.076432
     24          6           0       -8.455513    7.294275    0.663420
     25          7           0       -9.080684    0.708008   -0.520117
     26          6           0       -9.878257    1.777165   -0.549947
     27          6           0      -11.260780    1.493536   -1.034378
     28          6           0      -11.270548    0.163440   -1.067667
     29          6           0       -9.990218   -0.354653   -0.838952
     30          6           0      -12.247970    2.470656   -1.348364
     31          6           0      -12.485965   -0.707628   -1.613353
     32          6           0      -12.355536   -1.187374   -3.124200
     33          7           0       -7.198945   -1.456400   -0.261285
     34          6           0       -8.374306   -2.209902   -0.538532
     35          6           0       -7.948571   -3.595995   -0.432249
     36          6           0       -6.575308   -3.541679   -0.054492
     37          6           0       -6.207355   -2.145273    0.055006
     38          6           0       -8.824569   -4.687907   -0.748428
     39          6           0       -5.410212   -4.391068    0.277035
     40          8           0       -5.355891   -5.588444    0.182253
     41          6           0       -4.350782   -3.282142    0.553361
     42          6           0       -3.643599   -3.645844    1.962498
     43          8           0       -3.933940   -3.058319    2.986827
     44          8           0       -2.885265   -4.643904    1.833371
     45          6           0       -2.456822   -5.315920    3.075779
     46          6           0        2.817276   -0.679955   -1.385693
     47          6           0        4.240463   -0.402376   -0.663278
     48          6           0        5.204388    0.323192   -1.049218
     49          6           0        5.345524    1.189776   -2.263236
     50          6           0        6.556367    0.330134   -0.200760
     51          6           0        7.769565   -0.173094   -1.058038
     52          6           0        9.064750   -0.111240   -0.213286
     53          6           0       10.358118   -0.577312   -0.911251
     54          6           0       10.210702   -2.150463   -1.366415
     55          6           0       11.564106   -0.442210   -0.004892
     56          6           0       12.867352   -0.505772   -0.730896
     57          6           0       14.026975   -0.169507    0.222227
     58          6           0       15.374573   -0.288380   -0.310920
     59          6           0       15.635923   -1.684551   -0.783105
     60          6           0       16.474494    0.330124    0.572437
     61          6           0       17.859701    0.623560   -0.037901
     62          6           0       18.931828    1.261064    0.922901
     63          6           0       20.253183    1.398926    0.299537
     64          6           0       20.390610    2.336884   -0.977102
     65          6           0       21.294622    1.904842    1.385023
     66          1           0       -4.057184    3.456372    1.804489
     67          1           0      -10.048217    3.961831   -0.486292
     68          1           0      -10.461883   -2.552482   -0.919206
     69          1           0       -2.510844   -1.100420    1.828126
     70          1           0       -2.233077    1.761413    1.142552
     71          1           0       -2.016486    0.719570    3.535551
     72          1           0       -3.153738    2.029676    3.634736
     73          1           0       -3.662118    0.510218    3.575246
     74          1           0       -2.161273   -1.554025   -0.456875
     75          1           0       -2.378736    0.137740   -0.988861
     76          1           0       -0.209975    0.423098    0.746270
     77          1           0       -0.280781   -1.210545    1.194223
     78          1           0       -5.577888    6.753110    0.361676
     79          1           0       -5.657446    6.321974    2.115844
     80          1           0       -4.376337    5.512420    1.200506
     81          1           0       -9.442779    5.890466   -0.651450
     82          1           0       -9.172505    8.093132    0.475806
     83          1           0       -7.687615    7.538343    1.455921
     84          1           0      -11.854979    3.106564   -2.082693
     85          1           0      -13.178468    2.022769   -1.488053
     86          1           0      -12.579786    3.024893   -0.459601
     87          1           0      -12.558091   -1.625579   -0.818089
     88          1           0      -13.340007   -0.160360   -1.629130
     89          1           0      -13.225870   -1.791135   -3.401433
     90          1           0      -12.527194   -0.352461   -3.805788
     91          1           0      -11.114015   -1.542725   -3.211917
     92          1           0       -9.250140   -4.481670   -1.852696
     93          1           0       -8.354204   -5.618303   -0.935322
     94          1           0       -9.506927   -4.873331    0.077814
     95          1           0       -3.775546   -3.641758   -0.308645
     96          1           0       -1.608597   -4.583311    3.451477
     97          1           0       -3.256257   -5.382078    3.815860
     98          1           0       -2.208927   -6.365355    2.736319
     99          1           0        2.852799   -1.705106   -1.709576
    100          1           0        2.554915   -0.010783   -2.215516
    101          1           0        4.474338   -0.943728    0.236906
    102          1           0        4.415992    1.429939   -2.793173
    103          1           0        5.897246    2.062335   -2.004037
    104          1           0        5.833704    0.835831   -3.296948
    105          1           0        6.826466    1.291766    0.028336
    106          1           0        6.569575   -0.212211    0.693469
    107          1           0        7.424413   -1.129442   -1.353659
    108          1           0        7.785827    0.401827   -1.899429
    109          1           0        9.326751    0.956869    0.157310
    110          1           0        9.029475   -0.772713    0.665161
    111          1           0       10.482070   -0.110318   -1.686884
    112          1           0        9.408370   -2.114624   -2.035267
    113          1           0       11.043047   -2.539955   -1.779544
    114          1           0       10.199011   -2.635993   -0.486982
    115          1           0       11.445888    0.542477    0.430603
    116          1           0       11.551227   -1.253890    0.793933
    117          1           0       12.979729   -1.651465   -1.101811
    118          1           0       13.036873    0.073630   -1.467234
    119          1           0       13.800730    0.777465    0.719316
    120          1           0       13.966523   -1.072146    0.982384
    121          1           0       15.375538    0.388958   -1.099516
    122          1           0       15.695234   -2.241542    0.192711
    123          1           0       14.713540   -2.066946   -1.271514
    124          1           0       16.462421   -2.007370   -1.369461
    125          1           0       16.177172    1.287125    1.026910
    126          1           0       16.769617   -0.369604    1.407180
    127          1           0       18.436766   -0.312759   -0.666481
    128          1           0       17.917502    1.300957   -1.057616
    129          1           0       18.618767    2.335768    1.136821
    130          1           0       18.957498    0.576689    1.842457
    131          1           0       20.693885    0.363016   -0.052822
    132          1           0       20.153833    3.507601   -0.681408
    133          1           0       21.552039    2.198304   -1.559685
    134          1           0       19.628699    2.149615   -1.685471
    135          1           0       21.109260    1.283056    2.034685
    136          1           0       22.160222    1.897229    0.787731
    137          1           0       21.118040    3.054502    1.620817
 ---------------------------------------------------------------------

 SCF Done:  E(RCAM-B3LYP) =  -2933.46727024     A.U. after   15 cycles

 Excitation energies and oscillator strengths:

 Excited State   1:      Singlet-A      2.0105 eV  616.67 nm  f=0.2325  <S**2>=0.000
     240 -> 243       -0.22984
     241 -> 242        0.66415
 This state for optimization and/or second-order correction.
 Total Energy, E(TD-HF/TD-DFT) =  -2933.39338469
 Copying the excited state density for this state as the 1-particle RhoCI density.

 The electronic state is 1-A.
 Alpha  occ. eigenvalues --  -46.80329 -19.23245 -19.20675 -19.17774 -19.15655
 Alpha  occ. eigenvalues --  -19.15532 -14.37365 -14.35411 -14.34845 -14.34151
 Alpha  occ. eigenvalues --  -10.34271 -10.34054 -10.29615 -10.29128 -10.27603
 Alpha  occ. eigenvalues --  -10.26519 -10.25965 -10.24883 -10.24465 -10.24419
 Alpha  occ. eigenvalues --  -10.24311 -10.24169 -10.23889 -10.23871 -10.23771
 Alpha  occ. eigenvalues --  -10.23700 -10.23353 -10.23241 -10.23107 -10.23008
 Alpha  occ. eigenvalues --  -10.22984 -10.22957 -10.22875 -10.22775 -10.22517
 Alpha  occ. eigenvalues --  -10.22450 -10.22431 -10.22359 -10.22321 -10.22307
 Alpha  occ. eigenvalues --  -10.22220 -10.22084 -10.22009 -10.21948 -10.21873
 Alpha  occ. eigenvalues --  -10.21635 -10.21506 -10.21503 -10.21355 -10.21112
 Alpha  occ. eigenvalues --  -10.21111 -10.21018 -10.20577 -10.20498 -10.20406
 Alpha  occ. eigenvalues --  -10.20396 -10.20220 -10.19990 -10.19986 -10.19730
 Alpha  occ. eigenvalues --  -10.19714 -10.19714 -10.19248 -10.18623 -10.17685
 Alpha  occ. eigenvalues --   -3.08763  -1.83723  -1.83229  -1.83156  -1.15664
 Alpha  occ. eigenvalues --   -1.14390  -1.06281  -1.06143  -1.04007  -0.99584
 Alpha  occ. eigenvalues --   -0.99052  -0.97770  -0.97276  -0.87574  -0.86715
 Alpha  occ. eigenvalues --   -0.85656  -0.84450  -0.84290  -0.84056  -0.83956
 Alpha  occ. eigenvalues --   -0.83666  -0.83335  -0.82072  -0.81566  -0.80364
 Alpha  occ. eigenvalues --   -0.79976  -0.78660  -0.78329  -0.77876  -0.77504
 Alpha  occ. eigenvalues --   -0.76893  -0.76104  -0.75577  -0.75134  -0.73811
 Alpha  occ. eigenvalues --   -0.73279  -0.72597  -0.71552  -0.71101  -0.71082
 Alpha  occ. eigenvalues --   -0.70881  -0.70325  -0.69955  -0.69260  -0.67595
 Alpha  occ. eigenvalues --   -0.66707  -0.66075  -0.65302  -0.64583  -0.63541
 Alpha  occ. eigenvalues --   -0.62607  -0.62192  -0.60963  -0.60507  -0.60284
 Alpha  occ. eigenvalues --   -0.60166  -0.59759  -0.58587  -0.58443  -0.58339
 Alpha  occ. eigenvalues --   -0.56429  -0.56310  -0.55930  -0.55495  -0.54689
 Alpha  occ. eigenvalues --   -0.54284  -0.54210  -0.53625  -0.53324  -0.52456
 Alpha  occ. eigenvalues --   -0.52279  -0.51865  -0.51768  -0.51087  -0.50808
 Alpha  occ. eigenvalues --   -0.50626  -0.50279  -0.50181  -0.50039  -0.49933
 Alpha  occ. eigenvalues --   -0.49720  -0.49157  -0.48895  -0.48643  -0.48414
 Alpha  occ. eigenvalues --   -0.47913  -0.47690  -0.47357  -0.47275  -0.47115
 Alpha  occ. eigenvalues --   -0.46956  -0.46652  -0.46319  -0.46268  -0.45997
 Alpha  occ. eigenvalues --   -0.45791  -0.45600  -0.45516  -0.45178  -0.44850
 Alpha  occ. eigenvalues --   -0.44750  -0.44473  -0.43970  -0.43639  -0.43530
 Alpha  occ. eigenvalues --   -0.43287  -0.43128  -0.43082  -0.42841  -0.42485
 Alpha  occ. eigenvalues --   -0.42313  -0.42007  -0.41866  -0.41543  -0.41399
 Alpha  occ. eigenvalues --   -0.41187  -0.41012  -0.40873  -0.40695  -0.40470
 Alpha  occ. eigenvalues --   -0.40400  -0.40241  -0.39852  -0.39706  -0.39622
 Alpha  occ. eigenvalues --   -0.39519  -0.39421  -0.39100  -0.39039  -0.38868
 Alpha  occ. eigenvalues --   -0.38826  -0.38719  -0.38610  -0.38403  -0.38377
 Alpha  occ. eigenvalues --   -0.37975  -0.37795  -0.37607  -0.37357  -0.37119
 Alpha  occ. eigenvalues --   -0.37080  -0.36687  -0.36321  -0.36199  -0.35831
 Alpha  occ. eigenvalues --   -0.35722  -0.35531  -0.35304  -0.34835  -0.34645
 Alpha  occ. eigenvalues --   -0.34601  -0.34087  -0.33798  -0.33550  -0.33267
 Alpha  occ. eigenvalues --   -0.33034  -0.32882  -0.32611  -0.32402  -0.32209
 Alpha  occ. eigenvalues --   -0.32061  -0.32014  -0.31517  -0.30857  -0.30513
 Alpha  occ. eigenvalues --   -0.29817  -0.29325  -0.29001  -0.28282  -0.28188
 Alpha  occ. eigenvalues --   -0.26536  -0.25795  -0.25468  -0.24385  -0.21149
 Alpha  occ. eigenvalues --   -0.19689
 Alpha virt. eigenvalues --   -0.06886  -0.03376   0.00436   0.02395   0.04830
 Alpha virt. eigenvalues --    0.04976   0.05325   0.05495   0.05764   0.06357
 Alpha virt. eigenvalues --    0.07333   0.09047   0.09126   0.09910   0.09936

 Mulliken charges:
               1
     1  Mg   0.803974
     2  C    0.166765
     3  C   -0.216093
     4  C   -0.174654
     5  C   -0.175832
     6  N   -0.625223
     7  C    0.297353
     8  C   -0.162368
     9  C   -0.130815
    10  C    0.289557
    11  C   -0.317572
    12  C   -0.139245
    13  C   -0.288888
    14  C    0.600947
    15  O   -0.414769
    16  O   -0.484335
    17  N   -0.690696
    18  C    0.347749
    19  C    0.030852
    20  C    0.056678
    21  C    0.255692
    22  C   -0.385908
    23  C   -0.085030
    24  C   -0.248209
    25  N   -0.680367
    26  C    0.305418
    27  C    0.068164
    28  C    0.000226
    29  C    0.264276
    30  C   -0.381130
    31  C   -0.216082
    32  C   -0.303703
    33  N   -0.766896
    34  C    0.277055
    35  C    0.015970
    36  C   -0.021124
    37  C    0.344209
    38  C   -0.395023
    39  C    0.348642
    40  O   -0.454429
    41  C   -0.370204
    42  C    0.593355
    43  O   -0.494610
    44  O   -0.395361
    45  C   -0.103316
    46  C    0.013078
    47  C   -0.163320
    48  C    0.173145
    49  C   -0.379141
    50  C   -0.245871
    51  C   -0.185604
    52  C   -0.172120
    53  C   -0.051638
    54  C   -0.327556
    55  C   -0.168149
    56  C   -0.158148
    57  C   -0.177261
    58  C   -0.033424
    59  C   -0.317115
    60  C   -0.170493
    61  C   -0.169726
    62  C   -0.146445
    63  C   -0.070055
    64  C   -0.289740
    65  C   -0.264029
    66  H    0.077510
    67  H    0.067516
    68  H    0.105527
    69  H    0.105634
    70  H    0.101334
    71  H    0.114946
    72  H    0.114748
    73  H    0.131863
    74  H    0.129103
    75  H    0.100356
    76  H    0.138688
    77  H    0.125605
    78  H    0.085953
    79  H    0.138890
    80  H    0.107785
    81  H    0.079559
    82  H    0.109415
    83  H    0.100274
    84  H    0.134362
    85  H    0.114129
    86  H    0.122826
    87  H    0.081170
    88  H    0.103090
    89  H    0.112458
    90  H    0.112391
    91  H    0.087493
    92  H    0.107197
    93  H    0.146001
    94  H    0.133386
    95  H    0.154615
    96  H    0.128275
    97  H    0.155187
    98  H    0.141292
    99  H    0.126897
   100  H    0.116913
   101  H    0.084809
   102  H    0.111279
   103  H    0.122782
   104  H    0.101239
   105  H    0.105147
   106  H    0.097082
   107  H    0.107873
   108  H    0.103835
   109  H    0.073786
   110  H    0.089602
   111  H    0.082264
   112  H    0.106345
   113  H    0.103935
   114  H    0.104492
   115  H    0.079501
   116  H    0.082469
   117  H    0.074363
   118  H    0.099145
   119  H    0.088214
   120  H    0.060639
   121  H    0.087318
   122  H    0.091575
   123  H    0.097609
   124  H    0.110932
   125  H    0.092758
   126  H    0.084556
   127  H    0.051351
   128  H    0.058586
   129  H    0.089296
   130  H    0.087980
   131  H    0.071843
   132  H    0.073482
   133  H    0.068688
   134  H    0.115450
   135  H    0.101227
   136  H    0.106348
   137  H    0.078424
 Sum of Mulliken charges =  -0.00000

 Dipole moment (field-independent basis, Debye):
    X=              0.4144    Y=              2.8290    Z=              0.5278  Tot=              2.9075
 Quadrupole moment (field-independent basis, Debye-Ang):
   XX=           -356.4973   YY=           -389.1794   ZZ=           -394.3689
   XY=            -20.7889   XZ=              5.3574   YZ=             -6.4421

 Normal termination of Gaussian 16 at Fri Sep  6 00:54:58 2019.
