 Gaussian 09, Revision D.01,
 Gaussian 09:  ES64L-G09RevD.01 24-Apr-2013

 -------------------------------------
 # td=(NStates=1) CAM-B3LYP/6-31G(d,p)
 -------------------------------------

 --
 TD
 --
 Symbolic Z-matrix:
 Charge =  0 Multiplicity = 1

                         Standard orientation:
 ---------------------------------------------------------------------
 Center     Atomic      Atomic             Coordinates (Angstroms)
 Number     Number       Type             X           Y           Z
 ---------------------------------------------------------------------
      1         12           0       -7.200176    0.620887    0.008247
      2          6           0       -4.855190   -1.975170    0.606023
      3          6           0       -4.812202    2.757898    1.224559
      4          6           0       -9.485244    3.106564   -0.396960
      5          6           0       -9.524059   -1.784055   -0.915541
      6          7           0       -5.153857    0.457800    0.631852
      7          6           0       -4.412395   -0.640075    0.789350
      8          6           0       -2.979471   -0.342255    1.160925
      9          6           0       -3.028576    1.140656    1.722720
     10          6           0       -4.460537    1.483821    1.145294
     11          6           0       -2.992647    1.250698    3.239935
     12          6           0       -1.955571   -0.613185    0.093669
     13          6           0       -0.459065   -0.494958    0.527642
     14          6           0        0.470084   -0.647995   -0.659920
     15          8           0        0.125681   -0.970405   -1.753951
     16          8           0        1.718628   -0.427009   -0.201969
     17          7           0       -7.138612    2.625029    0.392867
     18          6           0       -6.115910    3.381152    0.823234
     19          6           0       -6.436258    4.767904    0.883473
     20          6           0       -7.790506    4.866862    0.432022
     21          6           0       -8.180606    3.459127    0.141592
     22          6           0       -5.477847    5.865886    1.102196
     23          6           0       -8.560978    6.028611    0.213979
     24          6           0       -8.533986    7.142269    0.934480
     25          7           0       -9.155586    0.699936   -0.594544
     26          6           0       -9.986293    1.895780   -0.672520
     27          6           0      -11.259639    1.541898   -1.053224
     28          6           0      -11.230354    0.162727   -1.390859
     29          6           0       -9.954241   -0.346873   -0.966090
     30          6           0      -12.246529    2.458869   -1.482073
     31          6           0      -12.302726   -0.784786   -1.783819
     32          6           0      -12.176615   -1.201529   -3.299994
     33          7           0       -7.267632   -1.427489   -0.262572
     34          6           0       -8.271396   -2.312840   -0.498062
     35          6           0       -7.869508   -3.648029   -0.434306
     36          6           0       -6.561753   -3.537055   -0.048046
     37          6           0       -6.159832   -2.193467    0.165142
     38          6           0       -8.694086   -4.855700   -0.800173
     39          6           0       -5.390774   -4.409154    0.156144
     40          8           0       -5.189467   -5.544791    0.055298
     41          6           0       -4.149439   -3.330766    0.636766
     42          6           0       -3.530295   -3.728980    1.944641
     43          8           0       -3.664411   -3.118253    2.992431
     44          8           0       -2.778236   -4.853010    1.795070
     45          6           0       -2.209445   -5.369804    3.019300
     46          6           0        2.735613   -0.557244   -1.233052
     47          6           0        4.158584   -0.418011   -0.614562
     48          6           0        5.131027    0.402809   -0.961026
     49          6           0        5.165850    1.243774   -2.159268
     50          6           0        6.421952    0.396220   -0.282649
     51          6           0        7.646723   -0.194828   -1.046174
     52          6           0        8.970123   -0.048651   -0.192382
     53          6           0       10.337072   -0.448802   -0.884928
     54          6           0       10.223751   -1.961152   -1.129052
     55          6           0       11.522398   -0.085605   -0.041844
     56          6           0       12.944576   -0.375948   -0.675978
     57          6           0       13.996499   -0.086215    0.256495
     58          6           0       15.418759   -0.243360   -0.327666
     59          6           0       15.744918   -1.704143   -0.776101
     60          6           0       16.499151    0.506255    0.437372
     61          6           0       17.784814    0.657255   -0.321034
     62          6           0       18.849110    1.307010    0.726007
     63          6           0       20.294309    1.253460    0.217724
     64          6           0       20.461483    1.956547   -1.142817
     65          6           0       21.309677    1.750153    1.262511
     66          1           0       -4.270711    3.588121    1.570080
     67          1           0      -10.103751    3.893059   -0.500232
     68          1           0      -10.163771   -2.663195   -1.302752
     69          1           0       -2.510514   -1.071097    1.921871
     70          1           0       -2.196275    1.612267    1.208637
     71          1           0       -2.092452    0.673282    3.602046
     72          1           0       -3.338867    2.401851    3.531972
     73          1           0       -3.852382    0.505567    3.570935
     74          1           0       -2.101874   -1.683339   -0.381495
     75          1           0       -2.217322   -0.007946   -0.902648
     76          1           0       -0.250665    0.569568    1.060471
     77          1           0       -0.365024   -1.253015    1.337757
     78          1           0       -5.831109    6.877690    0.740933
     79          1           0       -5.498882    6.019756    2.110284
     80          1           0       -4.518611    5.542271    0.813230
     81          1           0       -9.464382    6.048674   -0.767529
     82          1           0       -8.956784    8.226107    0.751149
     83          1           0       -7.734939    7.205452    1.702587
     84          1           0      -11.998021    3.204578   -2.300121
     85          1           0      -13.254802    2.142647   -1.736859
     86          1           0      -12.214717    3.198267   -0.581416
     87          1           0      -12.412130   -1.680992   -1.156200
     88          1           0      -13.235278   -0.311146   -1.623491
     89          1           0      -13.241844   -1.842104   -3.602957
     90          1           0      -12.303980   -0.267166   -3.911050
     91          1           0      -11.259916   -1.749994   -3.549676
     92          1           0       -9.007301   -4.943507   -1.793578
     93          1           0       -8.271398   -5.930113   -0.603599
     94          1           0       -9.449453   -4.954033   -0.196459
     95          1           0       -3.455496   -3.443661   -0.215445
     96          1           0       -1.607924   -4.692928    3.322232
     97          1           0       -2.897794   -5.532113    3.965839
     98          1           0       -1.691838   -6.181694    2.597540
     99          1           0        2.467844   -1.671489   -1.654002
    100          1           0        2.520952    0.197193   -1.948480
    101          1           0        4.242776   -1.108020    0.217467
    102          1           0        4.152034    1.425003   -2.618170
    103          1           0        5.401825    2.352671   -2.095647
    104          1           0        5.748294    0.830186   -2.954927
    105          1           0        6.629472    1.380251    0.139041
    106          1           0        6.295004   -0.319722    0.538646
    107          1           0        7.352017   -1.165338   -1.188182
    108          1           0        7.823300    0.274436   -1.918890
    109          1           0        9.041372    1.090526   -0.058800
    110          1           0        8.819016   -0.344791    0.789120
    111          1           0       10.208767    0.018011   -1.908649
    112          1           0        9.368089   -2.240956   -1.676084
    113          1           0       11.017281   -2.293441   -2.073770
    114          1           0       10.308090   -2.505828   -0.291084
    115          1           0       11.263921    0.969174    0.116399
    116          1           0       11.300009   -0.396955    0.924822
    117          1           0       13.034783   -1.514147   -1.020268
    118          1           0       13.041952    0.221457   -1.650674
    119          1           0       13.816352    0.928315    0.538308
    120          1           0       14.125688   -0.594565    1.282111
    121          1           0       15.456791    0.343592   -1.245609
    122          1           0       15.678273   -2.438952    0.030090
    123          1           0       14.970698   -2.146770   -1.379303
    124          1           0       16.612801   -1.746198   -1.041250
    125          1           0       15.976296    1.384586    0.818936
    126          1           0       16.782251   -0.197096    1.398515
    127          1           0       18.304191   -0.185695   -0.743746
    128          1           0       17.557265    1.200454   -0.975017
    129          1           0       18.586079    2.311218    0.812049
    130          1           0       18.731793    0.753924    1.583401
    131          1           0       20.611746    0.102695    0.114838
    132          1           0       20.224652    3.139100   -1.061144
    133          1           0       21.487885    1.921559   -1.476399
    134          1           0       19.610641    1.517126   -1.886752
    135          1           0       21.384209    1.367271    2.287930
    136          1           0       22.201706    1.477236    0.825693
    137          1           0       21.133435    2.871592    1.361793
 ---------------------------------------------------------------------

 SCF Done:  E(RCAM-B3LYP) =  -2932.62800272     A.U. after   18 cycles

 Excitation energies and oscillator strengths:

 Excited State   1:      Singlet-A      1.9984 eV  620.43 nm  f=0.2564  <S**2>=0.000
     240 -> 242       -0.10978
     240 -> 243        0.23479
     241 -> 242        0.64623
 This state for optimization and/or second-order correction.
 Total Energy, E(TD-HF/TD-KS) =  -2932.55456393
 Copying the excited state density for this state as the 1-particle RhoCI density.

 The electronic state is 1-A.
 Alpha  occ. eigenvalues --  -46.84491 -19.26297 -19.26060 -19.22285 -19.21664
 Alpha  occ. eigenvalues --  -19.20645 -14.42081 -14.39341 -14.39049 -14.39049
 Alpha  occ. eigenvalues --  -10.39362 -10.38940 -10.36122 -10.32859 -10.31509
 Alpha  occ. eigenvalues --  -10.30021 -10.29941 -10.29589 -10.29423 -10.29397
 Alpha  occ. eigenvalues --  -10.29079 -10.29014 -10.28862 -10.28819 -10.28753
 Alpha  occ. eigenvalues --  -10.28692 -10.28422 -10.27722 -10.27677 -10.27666
 Alpha  occ. eigenvalues --  -10.27293 -10.27132 -10.27129 -10.27109 -10.27067
 Alpha  occ. eigenvalues --  -10.26825 -10.26750 -10.26725 -10.26674 -10.26637
 Alpha  occ. eigenvalues --  -10.26589 -10.26511 -10.26395 -10.26302 -10.26160
 Alpha  occ. eigenvalues --  -10.26104 -10.26056 -10.26055 -10.25828 -10.25810
 Alpha  occ. eigenvalues --  -10.25771 -10.25453 -10.25445 -10.25444 -10.24952
 Alpha  occ. eigenvalues --  -10.24929 -10.24793 -10.24722 -10.24661 -10.24390
 Alpha  occ. eigenvalues --  -10.24188 -10.23992 -10.23556 -10.22733 -10.22080
 Alpha  occ. eigenvalues --   -3.13421  -1.88137  -1.87663  -1.87584  -1.18732
 Alpha  occ. eigenvalues --   -1.17394  -1.15551  -1.10717  -1.08664  -1.05453
 Alpha  occ. eigenvalues --   -1.03765  -1.03271  -1.01299  -0.92350  -0.91997
 Alpha  occ. eigenvalues --   -0.91065  -0.89727  -0.89503  -0.89030  -0.88812
 Alpha  occ. eigenvalues --   -0.88351  -0.88188  -0.87810  -0.87031  -0.85725
 Alpha  occ. eigenvalues --   -0.85063  -0.84439  -0.83854  -0.83362  -0.82872
 Alpha  occ. eigenvalues --   -0.81383  -0.81135  -0.80597  -0.80175  -0.78435
 Alpha  occ. eigenvalues --   -0.77525  -0.76835  -0.76555  -0.76298  -0.75974
 Alpha  occ. eigenvalues --   -0.75628  -0.75493  -0.74810  -0.73609  -0.73007
 Alpha  occ. eigenvalues --   -0.71337  -0.71151  -0.69281  -0.68886  -0.68181
 Alpha  occ. eigenvalues --   -0.67824  -0.66416  -0.65404  -0.64763  -0.64685
 Alpha  occ. eigenvalues --   -0.63804  -0.63681  -0.62836  -0.62440  -0.62139
 Alpha  occ. eigenvalues --   -0.61164  -0.60911  -0.60857  -0.60074  -0.59102
 Alpha  occ. eigenvalues --   -0.58587  -0.58156  -0.57422  -0.57237  -0.56965
 Alpha  occ. eigenvalues --   -0.56479  -0.55657  -0.55538  -0.55115  -0.54876
 Alpha  occ. eigenvalues --   -0.54613  -0.54447  -0.53701  -0.53579  -0.53406
 Alpha  occ. eigenvalues --   -0.53274  -0.52650  -0.52422  -0.52130  -0.51961
 Alpha  occ. eigenvalues --   -0.51583  -0.51464  -0.51357  -0.51022  -0.50669
 Alpha  occ. eigenvalues --   -0.50533  -0.50408  -0.50112  -0.49987  -0.49684
 Alpha  occ. eigenvalues --   -0.49552  -0.49280  -0.49104  -0.49068  -0.48773
 Alpha  occ. eigenvalues --   -0.48511  -0.48252  -0.48230  -0.47628  -0.47336
 Alpha  occ. eigenvalues --   -0.47292  -0.47097  -0.46692  -0.46441  -0.46353
 Alpha  occ. eigenvalues --   -0.46277  -0.46086  -0.45386  -0.45130  -0.45055
 Alpha  occ. eigenvalues --   -0.45003  -0.44814  -0.44288  -0.44171  -0.44041
 Alpha  occ. eigenvalues --   -0.43949  -0.43753  -0.43680  -0.43392  -0.43108
 Alpha  occ. eigenvalues --   -0.43060  -0.42793  -0.42750  -0.42616  -0.42571
 Alpha  occ. eigenvalues --   -0.42395  -0.42220  -0.41982  -0.41845  -0.41607
 Alpha  occ. eigenvalues --   -0.41467  -0.41077  -0.40820  -0.40597  -0.40390
 Alpha  occ. eigenvalues --   -0.40068  -0.39814  -0.39636  -0.39285  -0.38890
 Alpha  occ. eigenvalues --   -0.38770  -0.38309  -0.38289  -0.37978  -0.37955
 Alpha  occ. eigenvalues --   -0.37462  -0.37212  -0.37096  -0.36754  -0.36629
 Alpha  occ. eigenvalues --   -0.36393  -0.36276  -0.35630  -0.35602  -0.35102
 Alpha  occ. eigenvalues --   -0.34778  -0.34696  -0.34529  -0.34308  -0.33712
 Alpha  occ. eigenvalues --   -0.33218  -0.33167  -0.32226  -0.31465  -0.30681
 Alpha  occ. eigenvalues --   -0.30027  -0.29648  -0.27273  -0.26581  -0.22857
 Alpha  occ. eigenvalues --   -0.21454
 Alpha virt. eigenvalues --   -0.07056  -0.03479   0.01956   0.04684   0.05610
 Alpha virt. eigenvalues --    0.05742   0.06137   0.06369   0.07007   0.07443
 Alpha virt. eigenvalues --    0.08793   0.10782   0.11054   0.11241   0.11920

 Mulliken charges:
               1
     1  Mg   0.817625
     2  C    0.061125
     3  C   -0.169158
     4  C   -0.146282
     5  C   -0.188432
     6  N   -0.637333
     7  C    0.347928
     8  C   -0.160813
     9  C   -0.118628
    10  C    0.333781
    11  C   -0.289831
    12  C   -0.184615
    13  C   -0.269802
    14  C    0.632856
    15  O   -0.455991
    16  O   -0.481005
    17  N   -0.699446
    18  C    0.256681
    19  C    0.004180
    20  C    0.016700
    21  C    0.278648
    22  C   -0.373359
    23  C   -0.075779
    24  C   -0.260140
    25  N   -0.697598
    26  C    0.318141
    27  C    0.042266
    28  C    0.008100
    29  C    0.312525
    30  C   -0.380576
    31  C   -0.245012
    32  C   -0.296546
    33  N   -0.729706
    34  C    0.280980
    35  C    0.073806
    36  C   -0.039425
    37  C    0.294098
    38  C   -0.384508
    39  C    0.353753
    40  O   -0.385440
    41  C   -0.360380
    42  C    0.637706
    43  O   -0.483866
    44  O   -0.467896
    45  C   -0.073222
    46  C    0.014750
    47  C   -0.142162
    48  C    0.153735
    49  C   -0.383258
    50  C   -0.241674
    51  C   -0.173284
    52  C   -0.201633
    53  C   -0.063965
    54  C   -0.286458
    55  C   -0.174319
    56  C   -0.168106
    57  C   -0.162348
    58  C   -0.071687
    59  C   -0.297366
    60  C   -0.183723
    61  C   -0.168989
    62  C   -0.158477
    63  C   -0.068558
    64  C   -0.292175
    65  C   -0.303839
    66  H    0.065515
    67  H    0.071846
    68  H    0.093584
    69  H    0.104026
    70  H    0.104824
    71  H    0.113205
    72  H    0.101421
    73  H    0.113990
    74  H    0.104522
    75  H    0.095194
    76  H    0.117228
    77  H    0.137916
    78  H    0.118623
    79  H    0.136076
    80  H    0.122025
    81  H    0.061155
    82  H    0.105965
    83  H    0.090064
    84  H    0.124342
    85  H    0.119754
    86  H    0.102876
    87  H    0.111017
    88  H    0.103693
    89  H    0.060388
    90  H    0.111822
    91  H    0.119406
    92  H    0.139531
    93  H    0.128172
    94  H    0.144384
    95  H    0.160186
    96  H    0.134709
    97  H    0.121156
    98  H    0.129483
    99  H    0.111369
   100  H    0.124832
   101  H    0.094728
   102  H    0.098739
   103  H    0.111462
   104  H    0.137224
   105  H    0.103411
   106  H    0.093669
   107  H    0.109462
   108  H    0.103256
   109  H    0.071770
   110  H    0.097472
   111  H    0.076681
   112  H    0.106728
   113  H    0.048942
   114  H    0.110058
   115  H    0.088550
   116  H    0.102439
   117  H    0.086319
   118  H    0.095799
   119  H    0.087993
   120  H    0.086719
   121  H    0.071365
   122  H    0.088035
   123  H    0.103259
   124  H    0.101494
   125  H    0.097439
   126  H    0.048382
   127  H    0.101054
   128  H    0.099718
   129  H    0.094099
   130  H    0.100626
   131  H    0.058384
   132  H    0.077552
   133  H    0.110485
   134  H    0.092990
   135  H    0.101986
   136  H    0.107709
   137  H    0.087119
 Sum of Mulliken charges =   0.00000

 Dipole moment (field-independent basis, Debye):
    X=              2.2947    Y=              2.2209    Z=             -0.2134  Tot=              3.2006
 Quadrupole moment (field-independent basis, Debye-Ang):
   XX=           -350.2588   YY=           -386.2175   ZZ=           -399.8604
   XY=             -1.2356   XZ=             10.8835   YZ=             -5.4401

 Normal termination of Gaussian 09 at Sun Jul  7 05:06:03 2019.
