 Gaussian 09, Revision D.01,
 Gaussian 09:  ES64L-G09RevD.01 24-Apr-2013

 -------------------------------------
 # td=(NStates=1) CAM-B3LYP/6-31G(d,p)
 -------------------------------------

 --
 TD
 --
 Symbolic Z-matrix:
 Charge =  0 Multiplicity = 1

                         Standard orientation:
 ---------------------------------------------------------------------
 Center     Atomic      Atomic             Coordinates (Angstroms)
 Number     Number       Type             X           Y           Z
 ---------------------------------------------------------------------
      1         12           0       -7.128341    0.639010    0.153524
      2          6           0       -4.833630   -1.922004    0.531841
      3          6           0       -4.710969    2.885322    1.061992
      4          6           0       -9.461037    3.152285   -0.402693
      5          6           0       -9.510334   -1.764664   -0.740207
      6          7           0       -5.110678    0.442683    0.667939
      7          6           0       -4.328772   -0.667808    0.776936
      8          6           0       -2.915739   -0.335295    1.239476
      9          6           0       -3.090705    1.176354    1.680650
     10          6           0       -4.416882    1.519439    1.114895
     11          6           0       -2.914691    1.291983    3.240755
     12          6           0       -1.889200   -0.614124    0.134749
     13          6           0       -0.539992   -0.253634    0.559187
     14          6           0        0.478702   -0.606067   -0.598639
     15          8           0        0.207245   -0.895597   -1.714658
     16          8           0        1.701168   -0.427108   -0.132264
     17          7           0       -7.127339    2.698133    0.320710
     18          6           0       -6.061876    3.309113    0.761203
     19          6           0       -6.453948    4.692122    0.818949
     20          6           0       -7.795803    4.817001    0.403773
     21          6           0       -8.160971    3.534212    0.039735
     22          6           0       -5.542769    5.888590    1.089073
     23          6           0       -8.606470    5.934418    0.209761
     24          6           0       -8.537772    7.162838    0.866632
     25          7           0       -9.132138    0.630873   -0.526466
     26          6           0       -9.909569    1.742874   -0.676599
     27          6           0      -11.138101    1.341333   -1.245750
     28          6           0      -11.170835   -0.035859   -1.289616
     29          6           0       -9.943044   -0.413605   -0.897921
     30          6           0      -12.272775    2.292775   -1.748419
     31          6           0      -12.422798   -0.817661   -1.696412
     32          6           0      -12.598743   -1.253303   -3.191852
     33          7           0       -7.217368   -1.439684   -0.159316
     34          6           0       -8.209098   -2.232244   -0.427494
     35          6           0       -7.764259   -3.711325   -0.472647
     36          6           0       -6.506108   -3.479126   -0.064289
     37          6           0       -6.157996   -2.248015    0.127983
     38          6           0       -8.511705   -4.895611   -0.733979
     39          6           0       -5.252813   -4.317862    0.339338
     40          8           0       -5.143704   -5.581415    0.377398
     41          6           0       -4.142270   -3.299618    0.590699
     42          6           0       -3.543688   -3.618255    1.881770
     43          8           0       -3.605147   -2.988591    2.940533
     44          8           0       -2.723271   -4.678511    1.824101
     45          6           0       -2.089348   -5.181939    3.050644
     46          6           0        2.715117   -0.662880   -1.154424
     47          6           0        4.131340   -0.505473   -0.590127
     48          6           0        5.099867    0.292482   -1.023023
     49          6           0        4.945962    1.122074   -2.312379
     50          6           0        6.325402    0.464401   -0.313549
     51          6           0        7.564193   -0.144882   -1.112425
     52          6           0        8.909580   -0.082497   -0.390592
     53          6           0       10.229823   -0.446239   -1.023750
     54          6           0       10.227388   -2.041055   -1.355535
     55          6           0       11.469135   -0.143432   -0.081022
     56          6           0       12.754202   -0.480368   -0.756628
     57          6           0       14.004379   -0.004703    0.157603
     58          6           0       15.360536   -0.104201   -0.586681
     59          6           0       15.614035   -1.572580   -0.994005
     60          6           0       16.432550    0.419354    0.421932
     61          6           0       17.917690    0.546987   -0.116101
     62          6           0       18.848951    1.113564    0.934602
     63          6           0       20.331446    1.210958    0.318711
     64          6           0       20.449588    2.004431   -1.014076
     65          6           0       21.234632    1.790518    1.479104
     66          1           0       -3.907531    3.459567    1.318539
     67          1           0      -10.167041    4.010296   -0.500524
     68          1           0      -10.256588   -2.613573   -1.020501
     69          1           0       -2.558664   -0.894147    2.234326
     70          1           0       -2.081523    1.725654    1.187485
     71          1           0       -1.936309    1.164922    3.568699
     72          1           0       -3.004048    2.286625    3.293257
     73          1           0       -3.690734    0.693837    3.765213
     74          1           0       -2.006722   -1.666904   -0.185988
     75          1           0       -2.373015   -0.063783   -0.677458
     76          1           0       -0.338669    0.793517    0.954476
     77          1           0       -0.465608   -0.971482    1.406423
     78          1           0       -5.944136    6.691174    0.453755
     79          1           0       -5.493139    6.350338    2.202522
     80          1           0       -4.542455    5.860693    0.883660
     81          1           0       -9.441669    5.664761   -0.506219
     82          1           0       -9.200783    8.122052    0.696651
     83          1           0       -7.942442    7.393320    1.778818
     84          1           0      -12.038442    2.826438   -2.585559
     85          1           0      -12.960009    1.669360   -2.128432
     86          1           0      -12.676136    2.854663   -0.950534
     87          1           0      -12.221052   -1.583414   -1.098363
     88          1           0      -13.293850   -0.211216   -1.230849
     89          1           0      -13.479832   -1.935638   -3.288406
     90          1           0      -12.848626   -0.363719   -3.813254
     91          1           0      -11.665434   -1.691357   -3.604674
     92          1           0       -9.175303   -4.657514   -1.693707
     93          1           0       -7.904970   -5.626623   -0.913748
     94          1           0       -9.332760   -5.103187   -0.090624
     95          1           0       -3.356459   -3.456219   -0.306464
     96          1           0       -1.492363   -4.474541    3.494917
     97          1           0       -2.763655   -5.455794    3.704318
     98          1           0       -1.528291   -6.032567    2.536014
     99          1           0        2.624446   -1.818980   -1.376328
    100          1           0        2.605399   -0.075522   -1.973050
    101          1           0        4.166918   -1.164281    0.357748
    102          1           0        3.808838    1.094305   -2.672357
    103          1           0        5.315079    2.103349   -2.067832
    104          1           0        5.573127    0.649952   -3.139275
    105          1           0        6.397573    1.606868   -0.011566
    106          1           0        6.495223   -0.177653    0.648668
    107          1           0        7.349213   -1.213772   -1.361252
    108          1           0        7.550411    0.364908   -2.114803
    109          1           0        9.039743    1.041590   -0.017443
    110          1           0        8.639552   -0.577733    0.514490
    111          1           0       10.219681    0.058690   -1.985046
    112          1           0        9.232193   -2.304011   -1.735205
    113          1           0       11.069071   -2.198123   -2.131370
    114          1           0       10.374443   -2.537460   -0.354994
    115          1           0       11.575937    1.090936   -0.027756
    116          1           0       11.246840   -0.549224    0.853105
    117          1           0       13.019908   -1.504393   -0.927529
    118          1           0       12.939796   -0.048869   -1.887925
    119          1           0       13.755775    1.135922    0.365726
    120          1           0       14.234905   -0.595883    1.232220
    121          1           0       15.393846    0.398433   -1.493190
    122          1           0       15.518991   -2.168977   -0.114693
    123          1           0       14.887069   -1.783828   -1.732124
    124          1           0       16.640152   -1.813939   -1.520444
    125          1           0       15.985996    1.390833    0.604730
    126          1           0       16.647158   -0.083081    1.382923
    127          1           0       18.208520   -0.348994   -0.570931
    128          1           0       17.926416    1.158992   -1.074593
    129          1           0       18.716185    2.338297    1.086941
    130          1           0       18.949251    0.660859    2.011065
    131          1           0       20.636409    0.246861    0.207927
    132          1           0       20.078315    3.035538   -0.809639
    133          1           0       21.420011    2.054739   -1.382265
    134          1           0       19.841943    1.415055   -1.937963
    135          1           0       21.023299    1.306634    2.454452
    136          1           0       22.175495    1.627375    1.133971
    137          1           0       21.128738    2.902067    1.431628
 ---------------------------------------------------------------------

 SCF Done:  E(RCAM-B3LYP) =  -2932.68294399     A.U. after   18 cycles

 Excitation energies and oscillator strengths:

 Excited State   1:      Singlet-A      2.0867 eV  594.15 nm  f=0.2136  <S**2>=0.000
     240 -> 243       -0.26823
     241 -> 242        0.64153
 This state for optimization and/or second-order correction.
 Total Energy, E(TD-HF/TD-KS) =  -2932.60625753
 Copying the excited state density for this state as the 1-particle RhoCI density.

 The electronic state is 1-A.
 Alpha  occ. eigenvalues --  -46.85163 -19.26514 -19.25090 -19.21181 -19.21027
 Alpha  occ. eigenvalues --  -19.19954 -14.41751 -14.39270 -14.38860 -14.38595
 Alpha  occ. eigenvalues --  -10.38899 -10.38775 -10.36231 -10.31797 -10.30626
 Alpha  occ. eigenvalues --  -10.30592 -10.30020 -10.29943 -10.29933 -10.29238
 Alpha  occ. eigenvalues --  -10.28970 -10.28899 -10.28778 -10.28543 -10.28291
 Alpha  occ. eigenvalues --  -10.28060 -10.27875 -10.27820 -10.27811 -10.27716
 Alpha  occ. eigenvalues --  -10.27709 -10.27679 -10.27588 -10.27517 -10.27330
 Alpha  occ. eigenvalues --  -10.27082 -10.26886 -10.26849 -10.26782 -10.26683
 Alpha  occ. eigenvalues --  -10.26596 -10.26580 -10.26428 -10.26377 -10.26258
 Alpha  occ. eigenvalues --  -10.26107 -10.25883 -10.25784 -10.25762 -10.25589
 Alpha  occ. eigenvalues --  -10.25521 -10.25520 -10.25508 -10.25424 -10.25293
 Alpha  occ. eigenvalues --  -10.25181 -10.25032 -10.24623 -10.24595 -10.24468
 Alpha  occ. eigenvalues --  -10.24427 -10.24407 -10.24184 -10.23814 -10.23476
 Alpha  occ. eigenvalues --   -3.13961  -1.88692  -1.88176  -1.88136  -1.19581
 Alpha  occ. eigenvalues --   -1.17154  -1.10409  -1.08798  -1.07043  -1.06124
 Alpha  occ. eigenvalues --   -1.05519  -1.04087  -1.03122  -0.93472  -0.91777
 Alpha  occ. eigenvalues --   -0.90295  -0.89870  -0.89805  -0.88780  -0.88756
 Alpha  occ. eigenvalues --   -0.88242  -0.87656  -0.87491  -0.86727  -0.85641
 Alpha  occ. eigenvalues --   -0.84995  -0.84151  -0.83409  -0.82568  -0.81749
 Alpha  occ. eigenvalues --   -0.81354  -0.81175  -0.80853  -0.79358  -0.78696
 Alpha  occ. eigenvalues --   -0.78356  -0.77526  -0.77015  -0.75862  -0.75461
 Alpha  occ. eigenvalues --   -0.75348  -0.74722  -0.73655  -0.73012  -0.72539
 Alpha  occ. eigenvalues --   -0.71894  -0.70723  -0.70022  -0.69004  -0.68294
 Alpha  occ. eigenvalues --   -0.67884  -0.66689  -0.65077  -0.64414  -0.64193
 Alpha  occ. eigenvalues --   -0.64006  -0.63294  -0.62991  -0.62845  -0.62182
 Alpha  occ. eigenvalues --   -0.62025  -0.60887  -0.60492  -0.59854  -0.59396
 Alpha  occ. eigenvalues --   -0.58458  -0.58256  -0.58042  -0.57563  -0.57215
 Alpha  occ. eigenvalues --   -0.56332  -0.55565  -0.55053  -0.54958  -0.54459
 Alpha  occ. eigenvalues --   -0.54412  -0.54049  -0.53417  -0.53263  -0.52931
 Alpha  occ. eigenvalues --   -0.52728  -0.52556  -0.51871  -0.51685  -0.51381
 Alpha  occ. eigenvalues --   -0.51174  -0.51045  -0.50786  -0.50530  -0.50457
 Alpha  occ. eigenvalues --   -0.50323  -0.50282  -0.49927  -0.49839  -0.49399
 Alpha  occ. eigenvalues --   -0.49251  -0.49085  -0.48692  -0.48350  -0.48211
 Alpha  occ. eigenvalues --   -0.48086  -0.48018  -0.47884  -0.47560  -0.47504
 Alpha  occ. eigenvalues --   -0.47011  -0.46618  -0.46532  -0.46442  -0.46030
 Alpha  occ. eigenvalues --   -0.45958  -0.45739  -0.45635  -0.45356  -0.45206
 Alpha  occ. eigenvalues --   -0.44945  -0.44772  -0.44460  -0.44277  -0.44211
 Alpha  occ. eigenvalues --   -0.44131  -0.44050  -0.43792  -0.43538  -0.43405
 Alpha  occ. eigenvalues --   -0.43367  -0.43165  -0.42688  -0.42676  -0.42243
 Alpha  occ. eigenvalues --   -0.42162  -0.42013  -0.41927  -0.41583  -0.41335
 Alpha  occ. eigenvalues --   -0.41067  -0.40807  -0.40650  -0.40340  -0.40186
 Alpha  occ. eigenvalues --   -0.39929  -0.39646  -0.39450  -0.39393  -0.38781
 Alpha  occ. eigenvalues --   -0.38658  -0.38599  -0.38382  -0.38351  -0.37632
 Alpha  occ. eigenvalues --   -0.37458  -0.37058  -0.36967  -0.36864  -0.36724
 Alpha  occ. eigenvalues --   -0.36535  -0.36267  -0.36188  -0.35692  -0.35529
 Alpha  occ. eigenvalues --   -0.35099  -0.34767  -0.34370  -0.33958  -0.33097
 Alpha  occ. eigenvalues --   -0.32801  -0.32408  -0.32096  -0.30890  -0.30225
 Alpha  occ. eigenvalues --   -0.29803  -0.29317  -0.27702  -0.26216  -0.22924
 Alpha  occ. eigenvalues --   -0.21507
 Alpha virt. eigenvalues --   -0.06398  -0.03726   0.01313   0.03229   0.05082
 Alpha virt. eigenvalues --    0.05969   0.06078   0.06416   0.07054   0.07473
 Alpha virt. eigenvalues --    0.08737   0.11041   0.11301   0.11430   0.11921

 Mulliken charges:
               1
     1  Mg   0.822196
     2  C    0.057084
     3  C   -0.153366
     4  C   -0.163486
     5  C   -0.184303
     6  N   -0.668193
     7  C    0.296247
     8  C   -0.159860
     9  C   -0.188220
    10  C    0.366022
    11  C   -0.293472
    12  C   -0.156631
    13  C   -0.267269
    14  C    0.606944
    15  O   -0.456848
    16  O   -0.464320
    17  N   -0.745228
    18  C    0.362868
    19  C   -0.044772
    20  C    0.076716
    21  C    0.299928
    22  C   -0.375459
    23  C   -0.103863
    24  C   -0.265724
    25  N   -0.686969
    26  C    0.281098
    27  C   -0.046408
    28  C    0.031295
    29  C    0.284004
    30  C   -0.355305
    31  C   -0.211269
    32  C   -0.311716
    33  N   -0.697950
    34  C    0.246971
    35  C    0.027252
    36  C   -0.004727
    37  C    0.306574
    38  C   -0.368156
    39  C    0.384265
    40  O   -0.478791
    41  C   -0.327822
    42  C    0.634010
    43  O   -0.497325
    44  O   -0.468566
    45  C   -0.069944
    46  C    0.023573
    47  C   -0.146665
    48  C    0.142745
    49  C   -0.351354
    50  C   -0.225939
    51  C   -0.194476
    52  C   -0.163336
    53  C   -0.068425
    54  C   -0.314460
    55  C   -0.146098
    56  C   -0.185520
    57  C   -0.164257
    58  C   -0.071715
    59  C   -0.307289
    60  C   -0.167999
    61  C   -0.187532
    62  C   -0.154703
    63  C   -0.072881
    64  C   -0.299901
    65  C   -0.314693
    66  H    0.087489
    67  H    0.103961
    68  H    0.085781
    69  H    0.118906
    70  H    0.073357
    71  H    0.114761
    72  H    0.112448
    73  H    0.130771
    74  H    0.111369
    75  H    0.113991
    76  H    0.131482
    77  H    0.131807
    78  H    0.123243
    79  H    0.087369
    80  H    0.118316
    81  H    0.090417
    82  H    0.097980
    83  H    0.115656
    84  H    0.125293
    85  H    0.111445
    86  H    0.120079
    87  H    0.111690
    88  H    0.101383
    89  H    0.107533
    90  H    0.108424
    91  H    0.114391
    92  H    0.101404
    93  H    0.149805
    94  H    0.145434
    95  H    0.178926
    96  H    0.132596
    97  H    0.143389
    98  H    0.126833
    99  H    0.111088
   100  H    0.118127
   101  H    0.086612
   102  H    0.099755
   103  H    0.121514
   104  H    0.126258
   105  H    0.094577
   106  H    0.094006
   107  H    0.099185
   108  H    0.082875
   109  H    0.066155
   110  H    0.087925
   111  H    0.090589
   112  H    0.101787
   113  H    0.100309
   114  H    0.098637
   115  H    0.068322
   116  H    0.110969
   117  H    0.114987
   118  H    0.074127
   119  H    0.075051
   120  H    0.072287
   121  H    0.093065
   122  H    0.104340
   123  H    0.102626
   124  H    0.080773
   125  H    0.093346
   126  H    0.086472
   127  H    0.100044
   128  H    0.087371
   129  H    0.061052
   130  H    0.082668
   131  H    0.096478
   132  H    0.102705
   133  H    0.113393
   134  H    0.073954
   135  H    0.100647
   136  H    0.108154
   137  H    0.093455
 Sum of Mulliken charges =   0.00000

 Dipole moment (field-independent basis, Debye):
    X=              2.2752    Y=              2.4547    Z=             -0.0626  Tot=              3.3476
 Quadrupole moment (field-independent basis, Debye-Ang):
   XX=           -336.9608   YY=           -396.8667   ZZ=           -395.3851
   XY=            -13.6028   XZ=              4.9118   YZ=             -1.5988

 Normal termination of Gaussian 09 at Sat Jul  6 01:45:52 2019.
