 Gaussian 16, Revision A.03,
 Gaussian 16:  ES64L-G16RevA.03 25-Dec-2016

 ----------------------------------------------------------------------
 # td=(NStates=1) iop(3/107=0140000000,3/108=0140000000) CAM-B3LYP/6-31
 G(d,p)
 ----------------------------------------------------------------------

 --
 TD
 --
 Symbolic Z-matrix:
 Charge =  0 Multiplicity = 1

                         Standard orientation:
 ---------------------------------------------------------------------
 Center     Atomic      Atomic             Coordinates (Angstroms)
 Number     Number       Type             X           Y           Z
 ---------------------------------------------------------------------
      1         12           0       -7.175587    0.673960    0.200522
      2          6           0       -4.857328   -1.964280    0.466354
      3          6           0       -4.721919    2.744104    1.160772
      4          6           0       -9.374436    3.223834   -0.321143
      5          6           0       -9.572707   -1.612781   -0.980335
      6          7           0       -5.036765    0.427306    0.677636
      7          6           0       -4.309633   -0.777848    0.710209
      8          6           0       -2.865732   -0.471294    1.171558
      9          6           0       -2.987626    1.015978    1.724300
     10          6           0       -4.331330    1.393361    1.104117
     11          6           0       -2.944235    1.179699    3.153019
     12          6           0       -1.886344   -0.715808    0.104804
     13          6           0       -0.423548   -0.609671    0.564034
     14          6           0        0.577465   -0.750259   -0.646558
     15          8           0        0.298125   -1.036082   -1.740397
     16          8           0        1.943793   -0.540358   -0.174113
     17          7           0       -7.101594    2.614822    0.367709
     18          6           0       -5.993698    3.389002    0.784413
     19          6           0       -6.316661    4.797185    0.787393
     20          6           0       -7.682439    4.927945    0.365789
     21          6           0       -8.109268    3.541424    0.223284
     22          6           0       -5.440261    5.987831    0.945263
     23          6           0       -8.477293    6.065304    0.085388
     24          6           0       -8.358542    7.255552    0.671057
     25          7           0       -9.068270    0.714086   -0.431796
     26          6           0       -9.748626    1.884403   -0.559770
     27          6           0      -11.124594    1.560089   -1.125031
     28          6           0      -11.215660    0.193620   -1.250508
     29          6           0       -9.856066   -0.310475   -0.894912
     30          6           0      -12.276131    2.592190   -1.269987
     31          6           0      -12.298401   -0.667387   -1.729193
     32          6           0      -12.248630   -0.952470   -3.273809
     33          7           0       -7.226336   -1.463761   -0.144587
     34          6           0       -8.335004   -2.210220   -0.576170
     35          6           0       -7.867407   -3.572785   -0.560073
     36          6           0       -6.512512   -3.578560   -0.237673
     37          6           0       -6.144389   -2.192909    0.150661
     38          6           0       -8.655531   -4.776687   -0.918093
     39          6           0       -5.411134   -4.379483    0.058108
     40          8           0       -5.249366   -5.638108    0.147825
     41          6           0       -4.233500   -3.377945    0.532514
     42          6           0       -3.638952   -3.652716    1.933435
     43          8           0       -3.695509   -3.044468    2.906197
     44          8           0       -2.838816   -4.823687    1.835923
     45          6           0       -2.186866   -5.190704    3.032732
     46          6           0        2.841290   -0.720651   -1.195123
     47          6           0        4.202644   -0.604213   -0.509824
     48          6           0        5.110509    0.207018   -0.994881
     49          6           0        5.125312    1.011706   -2.185783
     50          6           0        6.482067    0.309606   -0.138575
     51          6           0        7.579806   -0.322156   -0.894196
     52          6           0        8.929541   -0.263334   -0.108342
     53          6           0       10.171248   -0.746569   -0.772913
     54          6           0       10.021043   -2.176428   -1.115466
     55          6           0       11.460187   -0.455829   -0.058528
     56          6           0       12.784506   -0.497844   -0.782660
     57          6           0       13.896800   -0.120277    0.137060
     58          6           0       15.354452   -0.145307   -0.431494
     59          6           0       15.647384   -1.634383   -0.954411
     60          6           0       16.331135    0.421386    0.426608
     61          6           0       17.761056    0.575423   -0.086413
     62          6           0       18.689297    1.418136    0.806121
     63          6           0       20.099529    1.553672    0.268600
     64          6           0       20.088389    2.242590   -1.107099
     65          6           0       21.034781    2.351900    1.112384
     66          1           0       -4.182592    3.578908    1.632070
     67          1           0       -9.968240    4.186191   -0.457299
     68          1           0      -10.255901   -2.364145   -1.272120
     69          1           0       -2.501658   -1.084872    1.952753
     70          1           0       -2.132372    1.806847    1.241480
     71          1           0       -2.018788    1.058755    3.696329
     72          1           0       -3.314339    2.251056    3.308628
     73          1           0       -3.811229    0.616446    3.679727
     74          1           0       -2.029286   -1.755068   -0.371931
     75          1           0       -1.875362   -0.030483   -0.764610
     76          1           0       -0.367125    0.469465    0.953237
     77          1           0       -0.106130   -1.542506    1.113021
     78          1           0       -5.905277    6.866037    0.338872
     79          1           0       -5.544636    6.208915    2.081653
     80          1           0       -4.346049    5.715101    0.816482
     81          1           0       -9.418324    5.892979   -0.594492
     82          1           0       -9.016031    8.135982    0.391525
     83          1           0       -7.724157    7.404095    1.408766
     84          1           0      -11.879952    3.620078   -1.855360
     85          1           0      -13.215702    2.271813   -1.860893
     86          1           0      -12.762761    3.099568   -0.252856
     87          1           0      -12.311264   -1.845007   -1.309143
     88          1           0      -13.277255   -0.293031   -1.504367
     89          1           0      -13.241408   -1.499213   -3.583198
     90          1           0      -12.011987   -0.057684   -3.940655
     91          1           0      -11.212449   -1.646027   -3.368601
     92          1           0       -9.064110   -4.817917   -2.055976
     93          1           0       -7.985914   -5.600793   -0.863403
     94          1           0       -9.735745   -5.096472   -0.301529
     95          1           0       -3.481463   -3.490402   -0.252340
     96          1           0       -1.384144   -4.545690    3.392006
     97          1           0       -3.092643   -5.198320    3.937159
     98          1           0       -2.056960   -6.454250    2.894870
     99          1           0        2.768602   -1.730315   -1.595869
    100          1           0        2.617138    0.137279   -2.056106
    101          1           0        4.179240   -0.921846    0.470666
    102          1           0        4.035892    1.194802   -2.549393
    103          1           0        5.480924    2.064264   -2.168759
    104          1           0        5.738326    0.619098   -2.936982
    105          1           0        6.689053    1.365181    0.008566
    106          1           0        6.433544   -0.292611    0.871708
    107          1           0        7.463702   -1.429595   -0.825126
    108          1           0        7.785226    0.118529   -1.873212
    109          1           0        9.028542    0.865012    0.098155
    110          1           0        8.778407   -0.542515    0.923501
    111          1           0       10.353858   -0.266855   -1.780665
    112          1           0        9.244829   -2.410066   -1.899302
    113          1           0       10.975545   -2.581908   -1.534186
    114          1           0        9.900784   -2.922537   -0.379734
    115          1           0       11.335996    0.567322    0.316313
    116          1           0       11.466094   -1.363598    0.838330
    117          1           0       12.974131   -1.661799   -0.998098
    118          1           0       12.599625    0.126456   -1.784889
    119          1           0       13.636527    0.893806    0.521948
    120          1           0       13.874379   -0.720569    0.976271
    121          1           0       15.189065    0.567242   -1.177946
    122          1           0       15.501087   -2.477195   -0.089399
    123          1           0       15.029068   -1.955508   -1.831073
    124          1           0       16.655562   -1.582674   -1.239894
    125          1           0       15.980328    1.498538    0.616645
    126          1           0       16.339467   -0.179164    1.529998
    127          1           0       18.235313   -0.385272   -0.094271
    128          1           0       17.745648    0.888386   -1.095032
    129          1           0       18.235086    2.530802    0.830188
    130          1           0       18.900843    0.871385    1.880478
    131          1           0       20.606116    0.553109   -0.151081
    132          1           0       19.599695    3.323313   -0.912519
    133          1           0       21.054242    2.615917   -1.708863
    134          1           0       19.639541    1.607790   -1.817289
    135          1           0       21.171449    1.745461    2.064300
    136          1           0       21.955537    2.198100    0.871397
    137          1           0       20.812595    3.388730    1.152814
 ---------------------------------------------------------------------

 SCF Done:  E(RCAM-B3LYP) =  -2933.46700674     A.U. after   16 cycles

 Excitation energies and oscillator strengths:

 Excited State   1:      Singlet-A      2.0281 eV  611.32 nm  f=0.3081  <S**2>=0.000
     240 -> 243       -0.21311
     241 -> 242        0.67065
 This state for optimization and/or second-order correction.
 Total Energy, E(TD-HF/TD-DFT) =  -2933.39247429
 Copying the excited state density for this state as the 1-particle RhoCI density.

 The electronic state is 1-A.
 Alpha  occ. eigenvalues --  -46.80748 -19.20642 -19.20112 -19.18918 -19.18176
 Alpha  occ. eigenvalues --  -19.14716 -14.38528 -14.36545 -14.36138 -14.35238
 Alpha  occ. eigenvalues --  -10.34909 -10.34487 -10.29663 -10.28417 -10.27120
 Alpha  occ. eigenvalues --  -10.27041 -10.26809 -10.26556 -10.26327 -10.25854
 Alpha  occ. eigenvalues --  -10.25477 -10.25231 -10.25047 -10.25046 -10.24563
 Alpha  occ. eigenvalues --  -10.24493 -10.24378 -10.24270 -10.24185 -10.24103
 Alpha  occ. eigenvalues --  -10.23967 -10.23849 -10.23713 -10.23621 -10.23612
 Alpha  occ. eigenvalues --  -10.23528 -10.23182 -10.23076 -10.23063 -10.23027
 Alpha  occ. eigenvalues --  -10.22987 -10.22872 -10.22568 -10.22520 -10.22283
 Alpha  occ. eigenvalues --  -10.22257 -10.22245 -10.22177 -10.21973 -10.21761
 Alpha  occ. eigenvalues --  -10.21589 -10.21573 -10.21224 -10.21155 -10.21091
 Alpha  occ. eigenvalues --  -10.20997 -10.20792 -10.20692 -10.20594 -10.20259
 Alpha  occ. eigenvalues --  -10.20244 -10.19748 -10.19703 -10.19164 -10.18507
 Alpha  occ. eigenvalues --   -3.09374  -1.84305  -1.83860  -1.83771  -1.14089
 Alpha  occ. eigenvalues --   -1.13588  -1.06474  -1.05114  -1.01892  -1.01136
 Alpha  occ. eigenvalues --   -0.99003  -0.97978  -0.97420  -0.88164  -0.86434
 Alpha  occ. eigenvalues --   -0.86001  -0.85731  -0.85589  -0.84795  -0.84501
 Alpha  occ. eigenvalues --   -0.83898  -0.83412  -0.82992  -0.81975  -0.81373
 Alpha  occ. eigenvalues --   -0.80659  -0.79739  -0.78759  -0.78471  -0.77456
 Alpha  occ. eigenvalues --   -0.76403  -0.76077  -0.75721  -0.75416  -0.73804
 Alpha  occ. eigenvalues --   -0.73781  -0.71526  -0.71407  -0.70769  -0.70201
 Alpha  occ. eigenvalues --   -0.70068  -0.69680  -0.69557  -0.68506  -0.67900
 Alpha  occ. eigenvalues --   -0.67042  -0.65698  -0.65013  -0.64575  -0.64343
 Alpha  occ. eigenvalues --   -0.63395  -0.61969  -0.61837  -0.60840  -0.60104
 Alpha  occ. eigenvalues --   -0.59274  -0.58169  -0.57997  -0.57614  -0.57319
 Alpha  occ. eigenvalues --   -0.56781  -0.56741  -0.56378  -0.55859  -0.55836
 Alpha  occ. eigenvalues --   -0.54930  -0.54634  -0.54196  -0.53505  -0.52859
 Alpha  occ. eigenvalues --   -0.52110  -0.51665  -0.51427  -0.51356  -0.51045
 Alpha  occ. eigenvalues --   -0.50777  -0.50445  -0.50378  -0.50166  -0.49845
 Alpha  occ. eigenvalues --   -0.49465  -0.49388  -0.49155  -0.48584  -0.48278
 Alpha  occ. eigenvalues --   -0.47968  -0.47801  -0.47584  -0.47397  -0.46866
 Alpha  occ. eigenvalues --   -0.46788  -0.46461  -0.46266  -0.46076  -0.45779
 Alpha  occ. eigenvalues --   -0.45525  -0.45417  -0.45313  -0.45057  -0.44780
 Alpha  occ. eigenvalues --   -0.44726  -0.44445  -0.44250  -0.44195  -0.44048
 Alpha  occ. eigenvalues --   -0.43724  -0.43410  -0.43047  -0.42937  -0.42796
 Alpha  occ. eigenvalues --   -0.42357  -0.41935  -0.41873  -0.41782  -0.41564
 Alpha  occ. eigenvalues --   -0.41294  -0.41148  -0.40999  -0.40623  -0.40386
 Alpha  occ. eigenvalues --   -0.40275  -0.40135  -0.39967  -0.39716  -0.39542
 Alpha  occ. eigenvalues --   -0.39431  -0.39347  -0.39227  -0.39193  -0.39060
 Alpha  occ. eigenvalues --   -0.38823  -0.38474  -0.38375  -0.38353  -0.38274
 Alpha  occ. eigenvalues --   -0.38203  -0.37917  -0.37614  -0.37453  -0.37056
 Alpha  occ. eigenvalues --   -0.36698  -0.36424  -0.36140  -0.35942  -0.35820
 Alpha  occ. eigenvalues --   -0.35622  -0.35409  -0.35308  -0.35061  -0.34314
 Alpha  occ. eigenvalues --   -0.34300  -0.34090  -0.33985  -0.33199  -0.33180
 Alpha  occ. eigenvalues --   -0.32911  -0.32883  -0.32316  -0.32167  -0.31815
 Alpha  occ. eigenvalues --   -0.31578  -0.31394  -0.31383  -0.31102  -0.30965
 Alpha  occ. eigenvalues --   -0.30139  -0.30025  -0.29582  -0.29447  -0.26983
 Alpha  occ. eigenvalues --   -0.26903  -0.26309  -0.25727  -0.25641  -0.22288
 Alpha  occ. eigenvalues --   -0.20787
 Alpha virt. eigenvalues --   -0.08176  -0.04052  -0.01099   0.01406   0.03699
 Alpha virt. eigenvalues --    0.03966   0.04232   0.04497   0.05284   0.05644
 Alpha virt. eigenvalues --    0.05800   0.08045   0.08267   0.08987   0.09394

 Mulliken charges:
               1
     1  Mg   0.838422
     2  C    0.098636
     3  C   -0.191609
     4  C   -0.153660
     5  C   -0.140630
     6  N   -0.618772
     7  C    0.267211
     8  C   -0.133387
     9  C   -0.128829
    10  C    0.379739
    11  C   -0.303331
    12  C   -0.172877
    13  C   -0.260230
    14  C    0.573769
    15  O   -0.399692
    16  O   -0.489654
    17  N   -0.720273
    18  C    0.276423
    19  C    0.014947
    20  C    0.057994
    21  C    0.280014
    22  C   -0.382378
    23  C   -0.087437
    24  C   -0.242508
    25  N   -0.723401
    26  C    0.319567
    27  C    0.010754
    28  C    0.089706
    29  C    0.320392
    30  C   -0.365866
    31  C   -0.258931
    32  C   -0.285795
    33  N   -0.739924
    34  C    0.281427
    35  C    0.012495
    36  C    0.073976
    37  C    0.284545
    38  C   -0.388287
    39  C    0.307563
    40  O   -0.495647
    41  C   -0.320945
    42  C    0.618004
    43  O   -0.406580
    44  O   -0.454429
    45  C   -0.070616
    46  C    0.031025
    47  C   -0.134923
    48  C    0.144587
    49  C   -0.379411
    50  C   -0.221426
    51  C   -0.160836
    52  C   -0.181773
    53  C   -0.030658
    54  C   -0.326200
    55  C   -0.146512
    56  C   -0.163211
    57  C   -0.165088
    58  C   -0.044675
    59  C   -0.319636
    60  C   -0.146058
    61  C   -0.182130
    62  C   -0.135109
    63  C   -0.066913
    64  C   -0.296392
    65  C   -0.283644
    66  H    0.074296
    67  H    0.088128
    68  H    0.092978
    69  H    0.120706
    70  H    0.072540
    71  H    0.124373
    72  H    0.100766
    73  H    0.117125
    74  H    0.104288
    75  H    0.111942
    76  H    0.130418
    77  H    0.138538
    78  H    0.128269
    79  H    0.119281
    80  H    0.116319
    81  H    0.091320
    82  H    0.103502
    83  H    0.107988
    84  H    0.086262
    85  H    0.113804
    86  H    0.103381
    87  H    0.086054
    88  H    0.112368
    89  H    0.101009
    90  H    0.113910
    91  H    0.080128
    92  H    0.100785
    93  H    0.154574
    94  H    0.090358
    95  H    0.164200
    96  H    0.126657
    97  H    0.082021
    98  H    0.107437
    99  H    0.112352
   100  H    0.077808
   101  H    0.098944
   102  H    0.097150
   103  H    0.114938
   104  H    0.136753
   105  H    0.094033
   106  H    0.079574
   107  H    0.105615
   108  H    0.093160
   109  H    0.058425
   110  H    0.092445
   111  H    0.071101
   112  H    0.098861
   113  H    0.087438
   114  H    0.105360
   115  H    0.085890
   116  H    0.045306
   117  H    0.080081
   118  H    0.071862
   119  H    0.073051
   120  H    0.100412
   121  H    0.093036
   122  H    0.081100
   123  H    0.109848
   124  H    0.108635
   125  H    0.078661
   126  H    0.047056
   127  H    0.102393
   128  H    0.101739
   129  H    0.073062
   130  H    0.076975
   131  H    0.068110
   132  H    0.066602
   133  H    0.079201
   134  H    0.107039
   135  H    0.075343
   136  H    0.117382
   137  H    0.106622
 Sum of Mulliken charges =  -0.00000

 Dipole moment (field-independent basis, Debye):
    X=             -0.7208    Y=              7.1648    Z=              0.2678  Tot=              7.2060
 Quadrupole moment (field-independent basis, Debye-Ang):
   XX=           -326.4252   YY=           -401.0674   ZZ=           -400.2402
   XY=            -38.2736   XZ=              0.5011   YZ=              0.6609

 Normal termination of Gaussian 16 at Wed Sep 18 06:36:12 2019.
