 Gaussian 16, Revision A.03,
 Gaussian 16:  ES64L-G16RevA.03 25-Dec-2016

 ----------------------------------------------------------------------
 # td=(NStates=1) iop(3/107=0140000000,3/108=0140000000) CAM-B3LYP/6-31
 G(d,p)
 ----------------------------------------------------------------------

 --
 TD
 --
 Symbolic Z-matrix:
 Charge =  0 Multiplicity = 1

                         Standard orientation:
 ---------------------------------------------------------------------
 Center     Atomic      Atomic             Coordinates (Angstroms)
 Number     Number       Type             X           Y           Z
 ---------------------------------------------------------------------
      1         12           0       -7.128321    0.654250    0.077478
      2          6           0       -4.818790   -1.973385    0.369301
      3          6           0       -4.646730    2.757917    1.265545
      4          6           0       -9.442825    3.177924   -0.417211
      5          6           0       -9.552391   -1.682542   -0.941792
      6          7           0       -5.130146    0.395149    0.890253
      7          6           0       -4.278098   -0.698459    0.865005
      8          6           0       -2.870221   -0.473375    1.411380
      9          6           0       -3.002380    1.050905    1.868597
     10          6           0       -4.321383    1.498530    1.265245
     11          6           0       -2.963326    1.079492    3.310210
     12          6           0       -1.802183   -0.605593    0.146122
     13          6           0       -0.440095   -0.589376    0.580112
     14          6           0        0.506592   -0.615296   -0.618162
     15          8           0        0.233519   -0.993685   -1.704284
     16          8           0        1.808330   -0.461190   -0.171052
     17          7           0       -7.035322    2.630479    0.348571
     18          6           0       -5.933853    3.366268    0.752800
     19          6           0       -6.336724    4.715269    0.806301
     20          6           0       -7.701584    4.838840    0.291719
     21          6           0       -8.094162    3.526211    0.128042
     22          6           0       -5.526700    5.724495    1.281858
     23          6           0       -8.468366    6.034666    0.239067
     24          6           0       -8.324910    7.230405    0.825384
     25          7           0       -9.125013    0.723865   -0.598608
     26          6           0       -9.879232    1.901878   -0.702442
     27          6           0      -11.152525    1.560586   -1.278501
     28          6           0      -11.244899    0.141329   -1.292886
     29          6           0       -9.846484   -0.315230   -0.882664
     30          6           0      -12.383792    2.485120   -1.400740
     31          6           0      -12.461658   -0.685697   -1.763748
     32          6           0      -12.231093   -1.051131   -3.291557
     33          7           0       -7.278041   -1.348570   -0.286793
     34          6           0       -8.312316   -2.200884   -0.620617
     35          6           0       -7.877041   -3.652328   -0.598209
     36          6           0       -6.540011   -3.567161   -0.135014
     37          6           0       -6.186104   -2.150203    0.040133
     38          6           0       -8.801430   -4.728005   -0.955477
     39          6           0       -5.425000   -4.363904    0.223150
     40          8           0       -5.249933   -5.664531    0.221499
     41          6           0       -4.219713   -3.390837    0.620764
     42          6           0       -3.649192   -3.754930    1.957787
     43          8           0       -3.824161   -3.088878    2.991244
     44          8           0       -2.783491   -4.837761    1.833591
     45          6           0       -2.234367   -5.294086    3.043955
     46          6           0        2.877167   -0.552403   -1.271317
     47          6           0        4.137034   -0.286631   -0.629292
     48          6           0        5.163697    0.422337   -1.056805
     49          6           0        5.168328    1.243518   -2.319044
     50          6           0        6.464551    0.418744   -0.285571
     51          6           0        7.643673   -0.111779   -1.083869
     52          6           0        8.897082   -0.148169   -0.211126
     53          6           0       10.247187   -0.552721   -1.012787
     54          6           0       10.170576   -1.973153   -1.550182
     55          6           0       11.404496   -0.326296    0.004849
     56          6           0       12.770556   -0.467207   -0.659613
     57          6           0       13.903569   -0.230959    0.225529
     58          6           0       15.340556   -0.178162   -0.444874
     59          6           0       15.681568   -1.558538   -0.960042
     60          6           0       16.360514    0.431273    0.519058
     61          6           0       17.747680    0.548724   -0.181490
     62          6           0       18.777474    1.309421    0.720665
     63          6           0       20.219306    1.261688    0.326694
     64          6           0       20.384202    2.082537   -1.020820
     65          6           0       21.213815    1.868029    1.369471
     66          1           0       -4.200506    3.581604    1.717509
     67          1           0      -10.155484    3.879942   -0.836219
     68          1           0      -10.391860   -2.439844   -1.251774
     69          1           0       -2.744776   -1.131341    2.283121
     70          1           0       -2.041400    1.576231    1.564692
     71          1           0       -2.152451    0.862896    3.758973
     72          1           0       -3.288240    2.011703    3.719423
     73          1           0       -3.556936    0.361904    3.798591
     74          1           0       -1.855288   -1.534954   -0.250456
     75          1           0       -1.885473    0.113609   -0.631832
     76          1           0       -0.256763    0.308907    1.358487
     77          1           0       -0.246661   -1.404704    1.333451
     78          1           0       -5.703560    6.631036    0.671930
     79          1           0       -5.834705    6.123949    2.286576
     80          1           0       -4.421266    5.367612    1.148923
     81          1           0       -9.251663    5.829464   -0.659564
     82          1           0       -9.099298    8.014012    0.748067
     83          1           0       -7.653591    7.436281    1.497010
     84          1           0      -12.105747    3.248134   -2.295635
     85          1           0      -13.332883    2.012375   -1.797999
     86          1           0      -12.673652    3.147884   -0.503344
     87          1           0      -12.388672   -1.690088   -1.186498
     88          1           0      -13.478964   -0.002266   -1.657789
     89          1           0      -12.902670   -1.824841   -3.566434
     90          1           0      -12.279356   -0.141630   -3.836531
     91          1           0      -11.454043   -1.419996   -3.634246
     92          1           0       -9.231650   -4.707811   -1.968380
     93          1           0       -8.204284   -5.832185   -1.031438
     94          1           0       -9.607700   -5.037169   -0.334827
     95          1           0       -3.579764   -3.636048   -0.161973
     96          1           0       -1.541551   -4.575810    3.481493
     97          1           0       -3.055204   -5.341523    3.782929
     98          1           0       -1.966297   -6.369163    2.846917
     99          1           0        2.789594   -1.486929   -1.545599
    100          1           0        2.659450    0.177769   -2.190522
    101          1           0        4.343935   -0.915914    0.324780
    102          1           0        4.150270    1.120188   -2.810479
    103          1           0        5.354156    2.208699   -2.064450
    104          1           0        5.820505    1.071176   -3.253533
    105          1           0        6.740243    1.410711    0.312015
    106          1           0        6.202805   -0.146346    0.737885
    107          1           0        7.327510   -1.141656   -1.527641
    108          1           0        7.783673    0.431677   -2.063749
    109          1           0        9.113427    0.845210    0.170130
    110          1           0        8.631448   -0.872039    0.566488
    111          1           0       10.549875    0.252969   -1.781581
    112          1           0        9.329224   -2.312116   -2.037291
    113          1           0       11.039935   -2.332018   -1.965001
    114          1           0       10.164051   -2.593546   -0.749255
    115          1           0       11.490473    0.783832    0.212928
    116          1           0       11.416816   -0.783747    0.979970
    117          1           0       12.754169   -1.513024   -1.206652
    118          1           0       13.010192    0.180339   -1.613799
    119          1           0       13.764202    0.712317    0.749785
    120          1           0       14.051054   -1.027330    0.975662
    121          1           0       15.395934    0.557718   -1.409096
    122          1           0       16.117520   -2.275309   -0.122785
    123          1           0       14.740590   -1.975277   -1.329023
    124          1           0       16.501947   -1.491254   -1.656465
    125          1           0       16.132181    1.413695    0.694297
    126          1           0       16.443963   -0.122628    1.299558
    127          1           0       17.970810   -0.449310   -0.333886
    128          1           0       17.615188    1.125356   -1.163871
    129          1           0       18.241101    2.386105    0.732223
    130          1           0       18.589446    1.004010    1.719984
    131          1           0       20.296338    0.027782    0.176308
    132          1           0       19.999093    2.955125   -0.851152
    133          1           0       21.468155    2.404865   -1.354632
    134          1           0       19.762997    1.666022   -1.930007
    135          1           0       21.158806    1.130447    2.297226
    136          1           0       22.140818    1.862795    0.933162
    137          1           0       20.865599    3.016363    1.675885
 ---------------------------------------------------------------------

 SCF Done:  E(RCAM-B3LYP) =  -2933.46350648     A.U. after   16 cycles

 Excitation energies and oscillator strengths:

 Excited State   1:      Singlet-A      1.8616 eV  666.02 nm  f=0.2997  <S**2>=0.000
     240 -> 243       -0.17302
     241 -> 242        0.67529
 This state for optimization and/or second-order correction.
 Total Energy, E(TD-HF/TD-DFT) =  -2933.39509478
 Copying the excited state density for this state as the 1-particle RhoCI density.

 The electronic state is 1-A.
 Alpha  occ. eigenvalues --  -46.80370 -19.22414 -19.20745 -19.17760 -19.17488
 Alpha  occ. eigenvalues --  -19.16166 -14.38380 -14.36295 -14.35500 -14.34702
 Alpha  occ. eigenvalues --  -10.35701 -10.34449 -10.31207 -10.28238 -10.27141
 Alpha  occ. eigenvalues --  -10.26769 -10.26590 -10.26514 -10.26304 -10.25701
 Alpha  occ. eigenvalues --  -10.25204 -10.25030 -10.24724 -10.24534 -10.24425
 Alpha  occ. eigenvalues --  -10.24187 -10.24040 -10.24034 -10.23991 -10.23933
 Alpha  occ. eigenvalues --  -10.23701 -10.23620 -10.23611 -10.23554 -10.23368
 Alpha  occ. eigenvalues --  -10.23220 -10.23189 -10.23027 -10.22990 -10.22988
 Alpha  occ. eigenvalues --  -10.22650 -10.22604 -10.22165 -10.22153 -10.22014
 Alpha  occ. eigenvalues --  -10.21793 -10.21636 -10.21523 -10.21330 -10.21318
 Alpha  occ. eigenvalues --  -10.21177 -10.21024 -10.20935 -10.20889 -10.20641
 Alpha  occ. eigenvalues --  -10.20411 -10.20296 -10.20285 -10.20228 -10.20191
 Alpha  occ. eigenvalues --  -10.20030 -10.18837 -10.18169 -10.18118 -10.17989
 Alpha  occ. eigenvalues --   -3.08859  -1.83806  -1.83338  -1.83252  -1.12305
 Alpha  occ. eigenvalues --   -1.12280  -1.04299  -1.03805  -1.01283  -0.99056
 Alpha  occ. eigenvalues --   -0.97918  -0.97269  -0.96125  -0.87450  -0.86538
 Alpha  occ. eigenvalues --   -0.85695  -0.85467  -0.84292  -0.83868  -0.83385
 Alpha  occ. eigenvalues --   -0.83269  -0.82810  -0.82680  -0.82262  -0.81707
 Alpha  occ. eigenvalues --   -0.80741  -0.79676  -0.79147  -0.78867  -0.77362
 Alpha  occ. eigenvalues --   -0.76878  -0.76759  -0.75702  -0.75555  -0.73907
 Alpha  occ. eigenvalues --   -0.73654  -0.72273  -0.72019  -0.71236  -0.71080
 Alpha  occ. eigenvalues --   -0.70665  -0.70433  -0.70076  -0.68689  -0.68062
 Alpha  occ. eigenvalues --   -0.67451  -0.66007  -0.65569  -0.64728  -0.64188
 Alpha  occ. eigenvalues --   -0.63098  -0.61989  -0.61236  -0.60663  -0.60354
 Alpha  occ. eigenvalues --   -0.60045  -0.59427  -0.58586  -0.58230  -0.58127
 Alpha  occ. eigenvalues --   -0.56957  -0.56469  -0.56038  -0.55485  -0.54991
 Alpha  occ. eigenvalues --   -0.54657  -0.54541  -0.53916  -0.53056  -0.52908
 Alpha  occ. eigenvalues --   -0.52567  -0.51879  -0.51617  -0.51426  -0.51066
 Alpha  occ. eigenvalues --   -0.50495  -0.50362  -0.49950  -0.49854  -0.49355
 Alpha  occ. eigenvalues --   -0.48979  -0.48777  -0.48233  -0.48049  -0.47927
 Alpha  occ. eigenvalues --   -0.47807  -0.47416  -0.47346  -0.47183  -0.46861
 Alpha  occ. eigenvalues --   -0.46663  -0.46388  -0.46225  -0.46000  -0.45883
 Alpha  occ. eigenvalues --   -0.45734  -0.45671  -0.45583  -0.45398  -0.45149
 Alpha  occ. eigenvalues --   -0.44916  -0.44799  -0.44458  -0.43874  -0.43722
 Alpha  occ. eigenvalues --   -0.43304  -0.43003  -0.42887  -0.42793  -0.42663
 Alpha  occ. eigenvalues --   -0.42355  -0.42123  -0.42043  -0.41770  -0.41622
 Alpha  occ. eigenvalues --   -0.41412  -0.41096  -0.41079  -0.40959  -0.40469
 Alpha  occ. eigenvalues --   -0.40295  -0.40280  -0.40147  -0.40058  -0.39985
 Alpha  occ. eigenvalues --   -0.39756  -0.39433  -0.39345  -0.39069  -0.38844
 Alpha  occ. eigenvalues --   -0.38709  -0.38611  -0.38416  -0.38113  -0.37941
 Alpha  occ. eigenvalues --   -0.37896  -0.37872  -0.37344  -0.37207  -0.36805
 Alpha  occ. eigenvalues --   -0.36716  -0.36667  -0.36372  -0.36277  -0.36169
 Alpha  occ. eigenvalues --   -0.35980  -0.35634  -0.34914  -0.34835  -0.34578
 Alpha  occ. eigenvalues --   -0.34234  -0.33902  -0.33806  -0.33553  -0.33317
 Alpha  occ. eigenvalues --   -0.33278  -0.33001  -0.32952  -0.32835  -0.32661
 Alpha  occ. eigenvalues --   -0.32547  -0.31583  -0.31456  -0.31000  -0.30975
 Alpha  occ. eigenvalues --   -0.30500  -0.30330  -0.29232  -0.28848  -0.27829
 Alpha  occ. eigenvalues --   -0.27722  -0.26912  -0.25556  -0.23282  -0.21829
 Alpha  occ. eigenvalues --   -0.20308
 Alpha virt. eigenvalues --   -0.08446  -0.03769  -0.01649   0.01966   0.02781
 Alpha virt. eigenvalues --    0.03325   0.03688   0.04260   0.05168   0.05364
 Alpha virt. eigenvalues --    0.06057   0.07976   0.08956   0.09734   0.10129

 Mulliken charges:
               1
     1  Mg   0.821128
     2  C   -0.029468
     3  C   -0.152063
     4  C   -0.147357
     5  C   -0.185278
     6  N   -0.609901
     7  C    0.322653
     8  C   -0.184797
     9  C   -0.133518
    10  C    0.345144
    11  C   -0.310408
    12  C   -0.155847
    13  C   -0.273955
    14  C    0.611238
    15  O   -0.440686
    16  O   -0.511068
    17  N   -0.721058
    18  C    0.270524
    19  C    0.020907
    20  C    0.038323
    21  C    0.278597
    22  C   -0.421161
    23  C   -0.057754
    24  C   -0.258627
    25  N   -0.697094
    26  C    0.287181
    27  C    0.016542
    28  C    0.001522
    29  C    0.364043
    30  C   -0.372232
    31  C   -0.242098
    32  C   -0.303512
    33  N   -0.725086
    34  C    0.286060
    35  C    0.101381
    36  C    0.052704
    37  C    0.333181
    38  C   -0.424320
    39  C    0.289935
    40  O   -0.499851
    41  C   -0.266766
    42  C    0.627019
    43  O   -0.483533
    44  O   -0.439521
    45  C   -0.089581
    46  C    0.020077
    47  C   -0.122076
    48  C    0.144657
    49  C   -0.368035
    50  C   -0.226981
    51  C   -0.172099
    52  C   -0.167683
    53  C   -0.054073
    54  C   -0.324208
    55  C   -0.183050
    56  C   -0.175955
    57  C   -0.169688
    58  C   -0.059587
    59  C   -0.306981
    60  C   -0.157157
    61  C   -0.194215
    62  C   -0.157588
    63  C   -0.039446
    64  C   -0.310262
    65  C   -0.292239
    66  H    0.077308
    67  H    0.097949
    68  H    0.089129
    69  H    0.137293
    70  H    0.097098
    71  H    0.115303
    72  H    0.102892
    73  H    0.120877
    74  H    0.129935
    75  H    0.125189
    76  H    0.100166
    77  H    0.134861
    78  H    0.118482
    79  H    0.119354
    80  H    0.096969
    81  H    0.064555
    82  H    0.098436
    83  H    0.092972
    84  H    0.094136
    85  H    0.110731
    86  H    0.125434
    87  H    0.097155
    88  H    0.095274
    89  H    0.098432
    90  H    0.112359
    91  H    0.121890
    92  H    0.137428
    93  H    0.120081
    94  H    0.152064
    95  H    0.173578
    96  H    0.124487
    97  H    0.127140
    98  H    0.129584
    99  H    0.141718
   100  H    0.112067
   101  H    0.086777
   102  H    0.089182
   103  H    0.136167
   104  H    0.114771
   105  H    0.085158
   106  H    0.075786
   107  H    0.086208
   108  H    0.095311
   109  H    0.096332
   110  H    0.099000
   111  H    0.078965
   112  H    0.108573
   113  H    0.108408
   114  H    0.112469
   115  H    0.085985
   116  H    0.098688
   117  H    0.071804
   118  H    0.078161
   119  H    0.087261
   120  H    0.087823
   121  H    0.049689
   122  H    0.074165
   123  H    0.106183
   124  H    0.111373
   125  H    0.094542
   126  H    0.095676
   127  H    0.097474
   128  H    0.082404
   129  H    0.056644
   130  H    0.091444
   131  H    0.061364
   132  H    0.125398
   133  H    0.078074
   134  H    0.090222
   135  H    0.089577
   136  H    0.122338
   137  H    0.083331
 Sum of Mulliken charges =  -0.00000

 Dipole moment (field-independent basis, Debye):
    X=              1.3428    Y=              1.7018    Z=              0.1676  Tot=              2.1742
 Quadrupole moment (field-independent basis, Debye-Ang):
   XX=           -346.2535   YY=           -401.7024   ZZ=           -394.4149
   XY=             -0.7891   XZ=             18.7508   YZ=             -1.4646

 Normal termination of Gaussian 16 at Sat Sep 14 03:49:41 2019.
