 Gaussian 16, Revision A.03,
 Gaussian 16:  ES64L-G16RevA.03 25-Dec-2016

 ----------------------------------------------------------------------
 # td=(NStates=1) iop(3/107=0140000000,3/108=0140000000) CAM-B3LYP/6-31
 G(d,p)
 ----------------------------------------------------------------------

 --
 TD
 --
 Symbolic Z-matrix:
 Charge =  0 Multiplicity = 1

                         Standard orientation:
 ---------------------------------------------------------------------
 Center     Atomic      Atomic             Coordinates (Angstroms)
 Number     Number       Type             X           Y           Z
 ---------------------------------------------------------------------
      1         12           0       -7.130941    0.660692    0.054677
      2          6           0       -4.866920   -1.839933    0.484876
      3          6           0       -4.784285    2.842913    1.324288
      4          6           0       -9.332868    3.156463   -0.514400
      5          6           0       -9.539697   -1.745167   -0.948087
      6          7           0       -5.090897    0.505280    0.710423
      7          6           0       -4.319193   -0.677620    0.787092
      8          6           0       -2.886102   -0.389286    1.203606
      9          6           0       -3.025898    1.072351    1.779257
     10          6           0       -4.368785    1.475385    1.212257
     11          6           0       -3.107583    1.047235    3.342367
     12          6           0       -1.936018   -0.407258    0.008432
     13          6           0       -0.463204   -0.322259    0.538309
     14          6           0        0.583480   -0.555063   -0.630229
     15          8           0        0.195075   -0.774456   -1.818169
     16          8           0        1.792297   -0.359806   -0.149001
     17          7           0       -7.119853    2.556271    0.421376
     18          6           0       -6.051411    3.313880    0.907195
     19          6           0       -6.348456    4.813293    0.748728
     20          6           0       -7.646419    4.828407    0.372713
     21          6           0       -8.010793    3.445992    0.035375
     22          6           0       -5.483310    5.898682    1.309501
     23          6           0       -8.367631    6.058505   -0.015184
     24          6           0       -8.175807    7.243891    0.534770
     25          7           0       -9.152189    0.646456   -0.642700
     26          6           0       -9.868093    1.905585   -0.724920
     27          6           0      -11.263630    1.474985   -1.074404
     28          6           0      -11.288635    0.161518   -1.286182
     29          6           0       -9.909396   -0.319877   -1.028139
     30          6           0      -12.301453    2.488023   -1.239568
     31          6           0      -12.443580   -0.832869   -1.766821
     32          6           0      -12.284415   -1.315305   -3.191393
     33          7           0       -7.262411   -1.391827   -0.158231
     34          6           0       -8.302702   -2.237579   -0.532146
     35          6           0       -7.927232   -3.617655   -0.477883
     36          6           0       -6.475486   -3.488256   -0.179747
     37          6           0       -6.222682   -2.194015    0.124442
     38          6           0       -8.686168   -4.893540   -0.834012
     39          6           0       -5.363485   -4.365680    0.059821
     40          8           0       -5.181680   -5.622690    0.161326
     41          6           0       -4.148182   -3.361954    0.503315
     42          6           0       -3.545420   -3.660525    1.869978
     43          8           0       -3.799784   -3.127142    2.900475
     44          8           0       -2.834530   -4.783914    1.883336
     45          6           0       -2.211623   -5.205124    3.011592
     46          6           0        2.892270   -0.646353   -1.135906
     47          6           0        4.171508   -0.438818   -0.491536
     48          6           0        5.258728    0.281514   -0.983191
     49          6           0        5.020633    1.228725   -2.145692
     50          6           0        6.443961    0.364480   -0.199386
     51          6           0        7.640129   -0.196825   -1.046246
     52          6           0        8.965539   -0.166163   -0.142975
     53          6           0       10.282144   -0.650101   -0.871707
     54          6           0       10.174243   -2.024134   -1.153516
     55          6           0       11.460337   -0.156980   -0.015163
     56          6           0       12.772511   -0.441257   -0.669019
     57          6           0       13.951330   -0.187700    0.134704
     58          6           0       15.291131   -0.273925   -0.491792
     59          6           0       15.588624   -1.709897   -0.904515
     60          6           0       16.477955    0.400494    0.346509
     61          6           0       17.812177    0.551971   -0.221674
     62          6           0       18.712892    1.241446    0.735546
     63          6           0       20.211415    1.232631    0.256384
     64          6           0       20.361435    1.987371   -1.098140
     65          6           0       21.054751    2.083382    1.321245
     66          1           0       -3.927316    3.431317    1.827387
     67          1           0      -10.061010    3.821304   -0.317163
     68          1           0      -10.345422   -2.508598   -1.360134
     69          1           0       -2.555018   -1.083987    2.049126
     70          1           0       -2.159722    1.779105    1.469225
     71          1           0       -2.017331    0.776955    3.932630
     72          1           0       -3.524910    1.962832    3.573314
     73          1           0       -3.885133    0.238136    3.596868
     74          1           0       -1.888414   -1.325905   -0.755983
     75          1           0       -2.240847    0.469771   -0.679474
     76          1           0       -0.318355    0.597250    0.842191
     77          1           0       -0.263725   -0.805518    1.271375
     78          1           0       -5.530102    6.630014    0.322946
     79          1           0       -5.584089    6.446359    2.246781
     80          1           0       -4.369636    5.761710    1.177104
     81          1           0       -9.133155    5.978831   -0.871112
     82          1           0       -8.721762    7.970974    0.196181
     83          1           0       -7.488431    7.273044    1.256811
     84          1           0      -12.302476    3.064062   -2.113999
     85          1           0      -13.298157    1.935283   -1.060020
     86          1           0      -12.142931    3.303899   -0.283490
     87          1           0      -12.579972   -1.505714   -0.932106
     88          1           0      -13.455893   -0.434715   -1.522221
     89          1           0      -12.956284   -2.102085   -3.629686
     90          1           0      -12.363473   -0.442017   -3.970821
     91          1           0      -11.534809   -1.876412   -3.254909
     92          1           0       -9.137372   -4.926879   -1.869414
     93          1           0       -8.286304   -5.853284   -0.595616
     94          1           0       -9.731814   -4.817109   -0.159235
     95          1           0       -3.437046   -3.540383   -0.294755
     96          1           0       -1.629937   -4.353430    3.672953
     97          1           0       -2.952810   -5.410757    3.765645
     98          1           0       -1.634721   -5.993131    2.697400
     99          1           0        2.890071   -1.765945   -1.206351
    100          1           0        2.745659   -0.004321   -2.154317
    101          1           0        4.322552   -1.176013    0.407182
    102          1           0        4.026912    1.300234   -2.415556
    103          1           0        5.540993    2.231659   -1.931025
    104          1           0        5.490549    0.767612   -3.074744
    105          1           0        6.726857    1.260284    0.213854
    106          1           0        6.383665   -0.245049    0.581222
    107          1           0        7.272919   -1.049921   -1.509170
    108          1           0        7.726602    0.561207   -1.932624
    109          1           0        8.920763    0.684586    0.274873
    110          1           0        8.843931   -0.840790    0.540030
    111          1           0       10.412519   -0.033159   -1.677459
    112          1           0        9.263169   -2.331095   -1.697518
    113          1           0       10.882795   -2.506349   -1.819867
    114          1           0       10.049852   -2.517424   -0.211574
    115          1           0       11.541438    0.792120    0.539520
    116          1           0       11.394767   -0.743473    0.872775
    117          1           0       12.822927   -1.363549   -1.058077
    118          1           0       12.599625    0.345950   -1.591964
    119          1           0       13.983400    0.847567    0.612167
    120          1           0       13.782599   -0.857307    0.986345
    121          1           0       15.285947    0.276363   -1.538765
    122          1           0       15.358852   -2.506376   -0.000248
    123          1           0       15.063300   -2.129468   -1.977781
    124          1           0       16.779157   -1.827922   -1.351501
    125          1           0       16.039434    1.383429    0.628205
    126          1           0       16.276566   -0.262085    1.351926
    127          1           0       18.205745   -0.675039   -0.339263
    128          1           0       17.578307    1.140012   -1.141695
    129          1           0       18.183989    2.201923    0.910818
    130          1           0       18.665680    0.693673    1.896388
    131          1           0       20.456219    0.155730    0.176298
    132          1           0       20.023146    3.025106   -1.327958
    133          1           0       21.391848    1.939730   -1.314760
    134          1           0       19.892539    1.399464   -1.909354
    135          1           0       21.127194    1.450417    2.120024
    136          1           0       22.269540    2.350625    0.852150
    137          1           0       20.790270    3.101141    1.561711
 ---------------------------------------------------------------------

 SCF Done:  E(RCAM-B3LYP) =  -2933.32811912     A.U. after   16 cycles

 Excitation energies and oscillator strengths:

 Excited State   1:      Singlet-A      1.8805 eV  659.30 nm  f=0.3170  <S**2>=0.000
     240 -> 243        0.16109
     241 -> 242        0.68745
 This state for optimization and/or second-order correction.
 Total Energy, E(TD-HF/TD-DFT) =  -2933.25901074
 Copying the excited state density for this state as the 1-particle RhoCI density.

 The electronic state is 1-A.
 Alpha  occ. eigenvalues --  -46.80579 -19.23460 -19.20549 -19.16087 -19.15390
 Alpha  occ. eigenvalues --  -19.15179 -14.37950 -14.36710 -14.34906 -14.34856
 Alpha  occ. eigenvalues --  -10.34664 -10.33278 -10.30112 -10.29204 -10.26822
 Alpha  occ. eigenvalues --  -10.26456 -10.26178 -10.25658 -10.25266 -10.24965
 Alpha  occ. eigenvalues --  -10.24634 -10.24631 -10.24340 -10.24155 -10.24084
 Alpha  occ. eigenvalues --  -10.24036 -10.24007 -10.23875 -10.23772 -10.23748
 Alpha  occ. eigenvalues --  -10.23582 -10.23343 -10.23319 -10.23299 -10.22949
 Alpha  occ. eigenvalues --  -10.22942 -10.22894 -10.22869 -10.22845 -10.22819
 Alpha  occ. eigenvalues --  -10.22680 -10.22673 -10.22626 -10.22596 -10.22588
 Alpha  occ. eigenvalues --  -10.22510 -10.22401 -10.21969 -10.21912 -10.21646
 Alpha  occ. eigenvalues --  -10.21631 -10.21596 -10.21591 -10.20902 -10.20659
 Alpha  occ. eigenvalues --  -10.20583 -10.20562 -10.20080 -10.19932 -10.19898
 Alpha  occ. eigenvalues --  -10.19861 -10.19834 -10.19682 -10.19226 -10.19007
 Alpha  occ. eigenvalues --   -3.09172  -1.84106  -1.83667  -1.83565  -1.14397
 Alpha  occ. eigenvalues --   -1.12798  -1.04599  -1.01874  -1.01852  -1.00127
 Alpha  occ. eigenvalues --   -0.99269  -0.98480  -0.97371  -0.87671  -0.86838
 Alpha  occ. eigenvalues --   -0.85776  -0.85390  -0.85172  -0.84492  -0.83580
 Alpha  occ. eigenvalues --   -0.83151  -0.82943  -0.82031  -0.81615  -0.80964
 Alpha  occ. eigenvalues --   -0.80241  -0.79713  -0.79214  -0.78631  -0.78530
 Alpha  occ. eigenvalues --   -0.77266  -0.76431  -0.76279  -0.75730  -0.73755
 Alpha  occ. eigenvalues --   -0.73298  -0.73247  -0.72253  -0.70974  -0.70894
 Alpha  occ. eigenvalues --   -0.70607  -0.70139  -0.68813  -0.68409  -0.67859
 Alpha  occ. eigenvalues --   -0.67080  -0.65871  -0.65422  -0.64477  -0.63612
 Alpha  occ. eigenvalues --   -0.63371  -0.62877  -0.61378  -0.60547  -0.60467
 Alpha  occ. eigenvalues --   -0.60092  -0.59514  -0.59327  -0.58276  -0.57927
 Alpha  occ. eigenvalues --   -0.56703  -0.56543  -0.56237  -0.55816  -0.55114
 Alpha  occ. eigenvalues --   -0.54731  -0.54339  -0.53870  -0.53571  -0.53099
 Alpha  occ. eigenvalues --   -0.52653  -0.52265  -0.51586  -0.51046  -0.50954
 Alpha  occ. eigenvalues --   -0.50884  -0.50491  -0.50122  -0.49710  -0.49611
 Alpha  occ. eigenvalues --   -0.49110  -0.48559  -0.48286  -0.48186  -0.48065
 Alpha  occ. eigenvalues --   -0.47846  -0.47735  -0.47299  -0.46958  -0.46798
 Alpha  occ. eigenvalues --   -0.46592  -0.46396  -0.46264  -0.46053  -0.45769
 Alpha  occ. eigenvalues --   -0.45506  -0.45398  -0.45183  -0.44812  -0.44752
 Alpha  occ. eigenvalues --   -0.44638  -0.44349  -0.44188  -0.44109  -0.43960
 Alpha  occ. eigenvalues --   -0.43433  -0.43300  -0.43007  -0.42726  -0.42591
 Alpha  occ. eigenvalues --   -0.42373  -0.42338  -0.42015  -0.41918  -0.41534
 Alpha  occ. eigenvalues --   -0.41288  -0.40992  -0.40915  -0.40824  -0.40691
 Alpha  occ. eigenvalues --   -0.40469  -0.40265  -0.40163  -0.39751  -0.39415
 Alpha  occ. eigenvalues --   -0.39250  -0.39098  -0.38980  -0.38904  -0.38860
 Alpha  occ. eigenvalues --   -0.38345  -0.38234  -0.38211  -0.37982  -0.37766
 Alpha  occ. eigenvalues --   -0.37674  -0.37626  -0.37467  -0.37166  -0.36822
 Alpha  occ. eigenvalues --   -0.36731  -0.36476  -0.36207  -0.36178  -0.35812
 Alpha  occ. eigenvalues --   -0.35739  -0.35471  -0.34995  -0.34990  -0.34736
 Alpha  occ. eigenvalues --   -0.34415  -0.34160  -0.34111  -0.33487  -0.33116
 Alpha  occ. eigenvalues --   -0.32987  -0.32932  -0.32914  -0.32590  -0.32423
 Alpha  occ. eigenvalues --   -0.32306  -0.31555  -0.30798  -0.30291  -0.30252
 Alpha  occ. eigenvalues --   -0.29571  -0.29323  -0.29265  -0.28794  -0.26582
 Alpha  occ. eigenvalues --   -0.26340  -0.26259  -0.26013  -0.25383  -0.22622
 Alpha  occ. eigenvalues --   -0.19072
 Alpha virt. eigenvalues --   -0.07461  -0.03365  -0.00285   0.02100   0.02474
 Alpha virt. eigenvalues --    0.04252   0.04344   0.04599   0.04985   0.05535
 Alpha virt. eigenvalues --    0.07159   0.08800   0.09106   0.09510   0.09855

 Mulliken charges:
               1
     1  Mg   0.830824
     2  C    0.023593
     3  C   -0.201750
     4  C   -0.165339
     5  C   -0.181521
     6  N   -0.621562
     7  C    0.270452
     8  C   -0.149358
     9  C   -0.164432
    10  C    0.369553
    11  C   -0.291891
    12  C   -0.170752
    13  C   -0.225534
    14  C    0.588413
    15  O   -0.502325
    16  O   -0.444787
    17  N   -0.704474
    18  C    0.279923
    19  C    0.034714
    20  C    0.014895
    21  C    0.298544
    22  C   -0.394630
    23  C   -0.086144
    24  C   -0.193732
    25  N   -0.662162
    26  C    0.259557
    27  C    0.035133
    28  C    0.016724
    29  C    0.306576
    30  C   -0.371191
    31  C   -0.243364
    32  C   -0.292619
    33  N   -0.709577
    34  C    0.295942
    35  C    0.053392
    36  C   -0.003555
    37  C    0.325099
    38  C   -0.376865
    39  C    0.334527
    40  O   -0.493446
    41  C   -0.301136
    42  C    0.610625
    43  O   -0.466662
    44  O   -0.401997
    45  C   -0.075078
    46  C    0.000672
    47  C   -0.144518
    48  C    0.133298
    49  C   -0.357745
    50  C   -0.223568
    51  C   -0.212211
    52  C   -0.154871
    53  C   -0.050934
    54  C   -0.320707
    55  C   -0.189317
    56  C   -0.142089
    57  C   -0.165912
    58  C   -0.041887
    59  C   -0.278616
    60  C   -0.164215
    61  C   -0.145911
    62  C   -0.138743
    63  C   -0.056767
    64  C   -0.320444
    65  C   -0.286707
    66  H    0.087637
    67  H    0.084819
    68  H    0.088579
    69  H    0.120585
    70  H    0.097193
    71  H    0.084894
    72  H    0.116134
    73  H    0.130826
    74  H    0.116120
    75  H    0.100745
    76  H    0.131247
    77  H    0.119451
    78  H    0.108159
    79  H    0.142559
    80  H    0.111281
    81  H    0.086083
    82  H    0.090583
    83  H    0.091955
    84  H    0.139589
    85  H    0.106906
    86  H    0.077105
    87  H    0.116448
    88  H    0.091481
    89  H    0.092155
    90  H    0.106289
    91  H    0.124369
    92  H    0.126020
    93  H    0.158335
    94  H    0.089304
    95  H    0.149575
    96  H    0.079883
    97  H    0.125632
    98  H    0.124201
    99  H    0.134918
   100  H    0.124942
   101  H    0.080814
   102  H    0.117885
   103  H    0.112608
   104  H    0.116328
   105  H    0.110732
   106  H    0.108672
   107  H    0.103053
   108  H    0.074423
   109  H    0.088321
   110  H    0.101193
   111  H    0.090521
   112  H    0.106900
   113  H    0.108478
   114  H    0.104672
   115  H    0.091408
   116  H    0.073079
   117  H    0.106072
   118  H    0.050552
   119  H    0.072251
   120  H    0.090009
   121  H    0.065321
   122  H    0.079939
   123  H    0.077147
   124  H    0.066239
   125  H    0.083910
   126  H    0.063594
   127  H    0.061552
   128  H    0.106383
   129  H    0.091514
   130  H    0.048984
   131  H    0.101377
   132  H    0.104274
   133  H    0.110209
   134  H    0.094195
   135  H    0.114720
   136  H    0.034866
   137  H    0.120393
 Sum of Mulliken charges =  -0.00000

 Dipole moment (field-independent basis, Debye):
    X=              2.9387    Y=              5.4889    Z=              0.2109  Tot=              6.2296
 Quadrupole moment (field-independent basis, Debye-Ang):
   XX=           -353.9021   YY=           -395.4528   ZZ=           -398.4497
   XY=            -19.4758   XZ=             12.1160   YZ=              3.6568

 Normal termination of Gaussian 16 at Mon Sep  9 12:46:45 2019.
