 Gaussian 16, Revision A.03,
 Gaussian 16:  ES64L-G16RevA.03 25-Dec-2016

 ----------------------------------------------------------------------
 # td=(NStates=1) iop(3/107=0140000000,3/108=0140000000) CAM-B3LYP/6-31
 G(d,p)
 ----------------------------------------------------------------------

 --
 TD
 --
 Symbolic Z-matrix:
 Charge =  0 Multiplicity = 1

                         Standard orientation:
 ---------------------------------------------------------------------
 Center     Atomic      Atomic             Coordinates (Angstroms)
 Number     Number       Type             X           Y           Z
 ---------------------------------------------------------------------
      1         12           0       -7.087590    0.680815    0.044072
      2          6           0       -4.878135   -2.031565    0.552622
      3          6           0       -4.861861    2.784031    1.305877
      4          6           0       -9.338165    3.051762   -0.526982
      5          6           0       -9.487594   -1.755155   -0.949557
      6          7           0       -5.105116    0.394709    0.759006
      7          6           0       -4.390668   -0.774117    0.802625
      8          6           0       -2.991826   -0.414148    1.294764
      9          6           0       -3.059271    1.031115    1.841864
     10          6           0       -4.460604    1.456005    1.193702
     11          6           0       -3.028769    1.131666    3.355168
     12          6           0       -1.952891   -0.576661    0.187947
     13          6           0       -0.512479   -0.417442    0.539963
     14          6           0        0.514961   -0.602182   -0.527478
     15          8           0        0.187187   -0.861621   -1.704801
     16          8           0        1.757607   -0.342145   -0.124285
     17          7           0       -7.108584    2.646563    0.292005
     18          6           0       -6.108525    3.391677    0.864529
     19          6           0       -6.501426    4.810665    0.771710
     20          6           0       -7.836440    4.814184    0.356014
     21          6           0       -8.182342    3.430782    0.042744
     22          6           0       -5.593590    5.886453    1.241126
     23          6           0       -8.601426    5.973275    0.248968
     24          6           0       -8.499965    7.214796    0.827591
     25          7           0       -9.071412    0.625419   -0.690476
     26          6           0       -9.781074    1.811781   -0.826354
     27          6           0      -11.139737    1.476707   -1.290857
     28          6           0      -11.270238    0.139270   -1.424513
     29          6           0       -9.873217   -0.417195   -1.022210
     30          6           0      -12.274299    2.416825   -1.470091
     31          6           0      -12.322972   -0.867106   -1.862281
     32          6           0      -12.150990   -1.077308   -3.409889
     33          7           0       -7.204334   -1.422179   -0.195694
     34          6           0       -8.259260   -2.230570   -0.513558
     35          6           0       -7.855304   -3.700357   -0.474654
     36          6           0       -6.526685   -3.594054   -0.188603
     37          6           0       -6.193136   -2.196661    0.102962
     38          6           0       -8.679366   -4.801232   -0.727388
     39          6           0       -5.363263   -4.344968    0.291038
     40          8           0       -5.165452   -5.514294    0.246313
     41          6           0       -4.238565   -3.358480    0.597625
     42          6           0       -3.601378   -3.651804    1.984778
     43          8           0       -3.859359   -3.131153    2.975832
     44          8           0       -2.812851   -4.691342    1.814895
     45          6           0       -2.203784   -5.062758    3.108573
     46          6           0        2.795529   -0.497139   -1.231310
     47          6           0        4.078040   -0.409788   -0.604746
     48          6           0        5.162282    0.278953   -0.919675
     49          6           0        5.139713    1.121432   -2.202729
     50          6           0        6.468732    0.382287   -0.225860
     51          6           0        7.647347   -0.118882   -1.089846
     52          6           0        8.923341   -0.178832   -0.130190
     53          6           0       10.175319   -0.545292   -0.898720
     54          6           0       10.158738   -1.930132   -1.483274
     55          6           0       11.507867   -0.377724    0.058753
     56          6           0       12.825641   -0.446964   -0.706966
     57          6           0       13.979660   -0.025999    0.147592
     58          6           0       15.451362   -0.197193   -0.522298
     59          6           0       15.739272   -1.597728   -0.979824
     60          6           0       16.497325    0.263700    0.444024
     61          6           0       17.858565    0.536211   -0.120186
     62          6           0       18.833417    1.259885    0.767570
     63          6           0       20.335589    1.272729    0.236493
     64          6           0       20.465159    2.059212   -1.132976
     65          6           0       21.144767    1.870357    1.367620
     66          1           0       -4.165999    3.487483    1.798169
     67          1           0       -9.956925    3.931881   -0.559934
     68          1           0      -10.074236   -2.396858   -1.339234
     69          1           0       -2.862876   -1.223338    2.047095
     70          1           0       -2.364671    1.752980    1.339733
     71          1           0       -1.866567    0.724504    3.769124
     72          1           0       -3.198612    2.205270    3.722401
     73          1           0       -3.806077    0.554783    3.828302
     74          1           0       -2.165994   -1.646460   -0.387179
     75          1           0       -2.209484    0.134562   -0.633503
     76          1           0       -0.315796    0.445033    0.999097
     77          1           0       -0.199505   -1.177469    1.420006
     78          1           0       -5.629819    6.622029    0.400708
     79          1           0       -6.076312    6.315344    2.214056
     80          1           0       -4.531024    5.573263    1.299468
     81          1           0       -9.498809    5.895000   -0.406975
     82          1           0       -9.282835    8.097787    0.688935
     83          1           0       -7.735972    7.627696    1.533832
     84          1           0      -11.853619    3.067551   -2.148114
     85          1           0      -13.213246    1.790416   -1.882212
     86          1           0      -12.555477    2.825542   -0.470778
     87          1           0      -12.204261   -1.710867   -1.208640
     88          1           0      -13.288952   -0.386876   -1.636868
     89          1           0      -13.027484   -1.576393   -3.972154
     90          1           0      -11.898706   -0.135661   -4.058220
     91          1           0      -11.267996   -1.734420   -3.408101
     92          1           0       -9.093183   -4.730909   -1.718502
     93          1           0       -8.139182   -5.803965   -0.895498
     94          1           0       -9.486472   -4.901484    0.063694
     95          1           0       -3.560215   -3.510648   -0.197552
     96          1           0       -1.300902   -4.439432    3.298402
     97          1           0       -2.783288   -4.863111    3.950482
     98          1           0       -2.020183   -6.313365    2.830416
     99          1           0        2.648346   -1.411439   -1.455634
    100          1           0        2.528261    0.383547   -1.927436
    101          1           0        4.254583   -1.055386    0.426695
    102          1           0        4.303311    1.478349   -2.567909
    103          1           0        5.676506    2.148976   -2.048344
    104          1           0        5.694715    0.501423   -2.953015
    105          1           0        6.730986    1.337215    0.060853
    106          1           0        6.229239   -0.219736    0.757310
    107          1           0        7.306767   -1.066726   -1.534425
    108          1           0        7.821894    0.610250   -1.923912
    109          1           0        8.832627    0.857644    0.416092
    110          1           0        8.831645   -0.991421    0.733946
    111          1           0       10.146420    0.068815   -1.730258
    112          1           0        9.572060   -1.797619   -2.368975
    113          1           0       11.111588   -2.088245   -2.090816
    114          1           0        9.812669   -2.802083   -0.750790
    115          1           0       11.324402    0.674183    0.387924
    116          1           0       11.640568   -0.893220    0.940843
    117          1           0       12.970979   -1.430984   -1.222662
    118          1           0       12.608678    0.158144   -1.651873
    119          1           0       13.753196    1.003389    0.212715
    120          1           0       13.880202   -0.699249    1.089862
    121          1           0       15.214765    0.492113   -1.445693
    122          1           0       15.776034   -2.339710   -0.164814
    123          1           0       15.153721   -1.904807   -1.976461
    124          1           0       16.828582   -1.821262   -1.303023
    125          1           0       16.061753    1.300024    0.781415
    126          1           0       16.746495   -0.184676    1.355655
    127          1           0       18.285618   -0.302589   -0.547604
    128          1           0       17.625428    1.104119   -0.990556
    129          1           0       18.471449    2.295347    0.775354
    130          1           0       18.706526    0.783124    1.700777
    131          1           0       20.502158    0.280623    0.163955
    132          1           0       20.175602    3.098728   -0.817576
    133          1           0       21.578634    2.225802   -1.287058
    134          1           0       19.947431    1.622900   -1.935943
    135          1           0       20.964919    1.471030    2.351572
    136          1           0       22.254703    1.970639    1.029970
    137          1           0       21.181088    3.088015    1.455655
 ---------------------------------------------------------------------

 SCF Done:  E(RCAM-B3LYP) =  -2933.54317358     A.U. after   16 cycles

 Excitation energies and oscillator strengths:

 Excited State   1:      Singlet-A      2.0518 eV  604.26 nm  f=0.3052  <S**2>=0.000
     240 -> 243        0.22623
     241 -> 242        0.66775
 This state for optimization and/or second-order correction.
 Total Energy, E(TD-HF/TD-DFT) =  -2933.46776963
 Copying the excited state density for this state as the 1-particle RhoCI density.

 The electronic state is 1-A.
 Alpha  occ. eigenvalues --  -46.80263 -19.22342 -19.21654 -19.17250 -19.15322
 Alpha  occ. eigenvalues --  -19.15137 -14.37201 -14.35088 -14.34996 -14.34837
 Alpha  occ. eigenvalues --  -10.33913 -10.33735 -10.29292 -10.28218 -10.27230
 Alpha  occ. eigenvalues --  -10.25909 -10.25804 -10.25266 -10.24751 -10.24254
 Alpha  occ. eigenvalues --  -10.24112 -10.23943 -10.23816 -10.23540 -10.23429
 Alpha  occ. eigenvalues --  -10.23260 -10.23112 -10.23094 -10.22986 -10.22948
 Alpha  occ. eigenvalues --  -10.22904 -10.22842 -10.22567 -10.22556 -10.22542
 Alpha  occ. eigenvalues --  -10.22517 -10.22487 -10.22460 -10.22449 -10.22271
 Alpha  occ. eigenvalues --  -10.22212 -10.21991 -10.21983 -10.21966 -10.21869
 Alpha  occ. eigenvalues --  -10.21755 -10.21683 -10.21562 -10.21533 -10.21471
 Alpha  occ. eigenvalues --  -10.21467 -10.21268 -10.21244 -10.21178 -10.21175
 Alpha  occ. eigenvalues --  -10.21069 -10.21058 -10.20931 -10.20755 -10.20448
 Alpha  occ. eigenvalues --  -10.20335 -10.20299 -10.20199 -10.19554 -10.18212
 Alpha  occ. eigenvalues --   -3.08762  -1.83719  -1.83219  -1.83167  -1.15752
 Alpha  occ. eigenvalues --   -1.11644  -1.07392  -1.06976  -1.01702  -0.99767
 Alpha  occ. eigenvalues --   -0.98744  -0.98149  -0.96440  -0.88086  -0.86941
 Alpha  occ. eigenvalues --   -0.85590  -0.84752  -0.84436  -0.84352  -0.83985
 Alpha  occ. eigenvalues --   -0.83562  -0.83080  -0.82959  -0.81937  -0.81591
 Alpha  occ. eigenvalues --   -0.80357  -0.79851  -0.78886  -0.78578  -0.77633
 Alpha  occ. eigenvalues --   -0.76807  -0.76461  -0.75848  -0.75669  -0.73708
 Alpha  occ. eigenvalues --   -0.72672  -0.71930  -0.71549  -0.71090  -0.70632
 Alpha  occ. eigenvalues --   -0.70290  -0.70141  -0.69713  -0.68850  -0.67981
 Alpha  occ. eigenvalues --   -0.66691  -0.65553  -0.65116  -0.64270  -0.63514
 Alpha  occ. eigenvalues --   -0.62940  -0.62713  -0.61133  -0.60973  -0.60240
 Alpha  occ. eigenvalues --   -0.60057  -0.59759  -0.59195  -0.59062  -0.58223
 Alpha  occ. eigenvalues --   -0.58169  -0.56044  -0.55708  -0.55428  -0.55149
 Alpha  occ. eigenvalues --   -0.54745  -0.54274  -0.54032  -0.53814  -0.53363
 Alpha  occ. eigenvalues --   -0.52335  -0.51801  -0.51270  -0.51174  -0.51104
 Alpha  occ. eigenvalues --   -0.50785  -0.50390  -0.50217  -0.49965  -0.49203
 Alpha  occ. eigenvalues --   -0.48822  -0.48369  -0.48262  -0.48129  -0.47933
 Alpha  occ. eigenvalues --   -0.47909  -0.47656  -0.47370  -0.47114  -0.47047
 Alpha  occ. eigenvalues --   -0.46713  -0.46508  -0.46403  -0.46014  -0.45975
 Alpha  occ. eigenvalues --   -0.45806  -0.45380  -0.45231  -0.44971  -0.44893
 Alpha  occ. eigenvalues --   -0.44711  -0.44455  -0.44350  -0.44063  -0.43919
 Alpha  occ. eigenvalues --   -0.43826  -0.43198  -0.42943  -0.42769  -0.42690
 Alpha  occ. eigenvalues --   -0.42449  -0.42312  -0.42141  -0.41838  -0.41712
 Alpha  occ. eigenvalues --   -0.41380  -0.41184  -0.40835  -0.40748  -0.40531
 Alpha  occ. eigenvalues --   -0.40411  -0.40349  -0.40121  -0.39991  -0.39856
 Alpha  occ. eigenvalues --   -0.39820  -0.39499  -0.39392  -0.39177  -0.39048
 Alpha  occ. eigenvalues --   -0.38918  -0.38720  -0.38451  -0.38044  -0.37721
 Alpha  occ. eigenvalues --   -0.37704  -0.37250  -0.37056  -0.36949  -0.36918
 Alpha  occ. eigenvalues --   -0.36731  -0.36597  -0.36209  -0.36016  -0.35793
 Alpha  occ. eigenvalues --   -0.35538  -0.35278  -0.35186  -0.35114  -0.34890
 Alpha  occ. eigenvalues --   -0.34462  -0.34283  -0.34158  -0.34107  -0.33338
 Alpha  occ. eigenvalues --   -0.33109  -0.33017  -0.32597  -0.32378  -0.32357
 Alpha  occ. eigenvalues --   -0.32275  -0.31425  -0.31264  -0.31160  -0.29559
 Alpha  occ. eigenvalues --   -0.29515  -0.29277  -0.29004  -0.28515  -0.27420
 Alpha  occ. eigenvalues --   -0.27239  -0.26145  -0.25622  -0.24147  -0.21563
 Alpha  occ. eigenvalues --   -0.19355
 Alpha virt. eigenvalues --   -0.06543  -0.03105   0.00581   0.02485   0.03847
 Alpha virt. eigenvalues --    0.04641   0.04982   0.05230   0.05638   0.06509
 Alpha virt. eigenvalues --    0.06829   0.09098   0.09496   0.09617   0.10087

 Mulliken charges:
               1
     1  Mg   0.810191
     2  C    0.130486
     3  C   -0.202147
     4  C   -0.156023
     5  C   -0.143715
     6  N   -0.647052
     7  C    0.283720
     8  C   -0.166697
     9  C   -0.124857
    10  C    0.331084
    11  C   -0.282711
    12  C   -0.160854
    13  C   -0.242924
    14  C    0.610002
    15  O   -0.506388
    16  O   -0.491770
    17  N   -0.748006
    18  C    0.293228
    19  C    0.014023
    20  C    0.035739
    21  C    0.345432
    22  C   -0.373509
    23  C   -0.104914
    24  C   -0.263277
    25  N   -0.688943
    26  C    0.329185
    27  C   -0.012237
    28  C    0.033230
    29  C    0.281993
    30  C   -0.357250
    31  C   -0.242469
    32  C   -0.302983
    33  N   -0.706312
    34  C    0.256111
    35  C    0.072679
    36  C   -0.022165
    37  C    0.297314
    38  C   -0.418534
    39  C    0.371058
    40  O   -0.444248
    41  C   -0.336042
    42  C    0.619523
    43  O   -0.440055
    44  O   -0.427079
    45  C   -0.111588
    46  C    0.053446
    47  C   -0.141696
    48  C    0.126102
    49  C   -0.360400
    50  C   -0.215279
    51  C   -0.198350
    52  C   -0.151532
    53  C   -0.059872
    54  C   -0.297725
    55  C   -0.172562
    56  C   -0.192686
    57  C   -0.167094
    58  C   -0.044333
    59  C   -0.307451
    60  C   -0.168500
    61  C   -0.187499
    62  C   -0.171995
    63  C   -0.041624
    64  C   -0.317444
    65  C   -0.307715
    66  H    0.073303
    67  H    0.074033
    68  H    0.045841
    69  H    0.111158
    70  H    0.102751
    71  H    0.067754
    72  H    0.100862
    73  H    0.134947
    74  H    0.087328
    75  H    0.113365
    76  H    0.140073
    77  H    0.103133
    78  H    0.127684
    79  H    0.121634
    80  H    0.112701
    81  H    0.085248
    82  H    0.091501
    83  H    0.098900
    84  H    0.131221
    85  H    0.093686
    86  H    0.124903
    87  H    0.119160
    88  H    0.098698
    89  H    0.096515
    90  H    0.109853
    91  H    0.114472
    92  H    0.133100
    93  H    0.138721
    94  H    0.130480
    95  H    0.166673
    96  H    0.125818
    97  H    0.160728
    98  H    0.111932
    99  H    0.138761
   100  H    0.134325
   101  H    0.066501
   102  H    0.115459
   103  H    0.087289
   104  H    0.121843
   105  H    0.117953
   106  H    0.081639
   107  H    0.108702
   108  H    0.101196
   109  H    0.078783
   110  H    0.078207
   111  H    0.088014
   112  H    0.099821
   113  H    0.097141
   114  H    0.094876
   115  H    0.079398
   116  H    0.096066
   117  H    0.090620
   118  H    0.068447
   119  H    0.106132
   120  H    0.079414
   121  H    0.077143
   122  H    0.105422
   123  H    0.086927
   124  H    0.089282
   125  H    0.067340
   126  H    0.094793
   127  H    0.088125
   128  H    0.087751
   129  H    0.089911
   130  H    0.083010
   131  H    0.098799
   132  H    0.105143
   133  H    0.095704
   134  H    0.119537
   135  H    0.113454
   136  H    0.080704
   137  H    0.072152
 Sum of Mulliken charges =  -0.00000

 Dipole moment (field-independent basis, Debye):
    X=              2.4724    Y=              2.8467    Z=              0.4792  Tot=              3.8008
 Quadrupole moment (field-independent basis, Debye-Ang):
   XX=           -348.1332   YY=           -396.6048   ZZ=           -393.9316
   XY=             -9.6435   XZ=              3.6667   YZ=             -2.8579

 Normal termination of Gaussian 16 at Tue Sep  3 14:20:55 2019.
