 Gaussian 16, Revision A.03,
 Gaussian 16:  ES64L-G16RevA.03 25-Dec-2016

 ----------------------------------------------------------------------
 # td=(NStates=1) iop(3/107=0140000000,3/108=0140000000) CAM-B3LYP/6-31
 G(d,p)
 ----------------------------------------------------------------------

 --
 TD
 --
 Symbolic Z-matrix:
 Charge =  0 Multiplicity = 1

                         Standard orientation:
 ---------------------------------------------------------------------
 Center     Atomic      Atomic             Coordinates (Angstroms)
 Number     Number       Type             X           Y           Z
 ---------------------------------------------------------------------
      1         12           0       -7.096455    0.620484    0.092078
      2          6           0       -4.862316   -1.940348    0.446489
      3          6           0       -4.756729    2.772453    1.010669
      4          6           0       -9.373270    3.121539   -0.282611
      5          6           0       -9.566487   -1.815767   -0.907387
      6          7           0       -5.192014    0.488291    0.731532
      7          6           0       -4.425344   -0.669990    0.759988
      8          6           0       -2.849379   -0.491522    1.266361
      9          6           0       -3.000764    1.002057    1.735253
     10          6           0       -4.349297    1.466508    1.071290
     11          6           0       -3.030036    1.188299    3.259627
     12          6           0       -1.914478   -0.557527    0.097213
     13          6           0       -0.577811   -0.429475    0.528334
     14          6           0        0.431947   -0.706942   -0.639181
     15          8           0        0.115602   -1.190266   -1.719147
     16          8           0        1.736046   -0.419091   -0.290677
     17          7           0       -7.090047    2.590119    0.389255
     18          6           0       -6.032182    3.376405    0.827044
     19          6           0       -6.294368    4.720897    0.847928
     20          6           0       -7.742388    4.883172    0.429846
     21          6           0       -8.092203    3.509041    0.044128
     22          6           0       -5.382856    5.874530    1.035026
     23          6           0       -8.426683    5.989275    0.130665
     24          6           0       -8.266265    7.205143    0.681532
     25          7           0       -9.063173    0.640212   -0.440149
     26          6           0       -9.863517    1.814044   -0.536730
     27          6           0      -11.122864    1.479123   -1.138483
     28          6           0      -11.241831    0.162916   -1.409758
     29          6           0       -9.813457   -0.402752   -0.977490
     30          6           0      -12.223459    2.570588   -1.292782
     31          6           0      -12.402375   -0.707549   -1.806427
     32          6           0      -12.227456   -1.225975   -3.227397
     33          7           0       -7.179657   -1.399701   -0.198428
     34          6           0       -8.292929   -2.197529   -0.578264
     35          6           0       -7.869064   -3.555491   -0.462022
     36          6           0       -6.518558   -3.624053   -0.095460
     37          6           0       -6.239989   -2.180222    0.148208
     38          6           0       -8.669511   -4.739410   -0.763875
     39          6           0       -5.359915   -4.400763    0.259988
     40          8           0       -5.180350   -5.621734    0.417832
     41          6           0       -4.246570   -3.349699    0.548700
     42          6           0       -3.669511   -3.662499    1.898758
     43          8           0       -3.777435   -3.028316    2.951177
     44          8           0       -2.790372   -4.638142    1.847172
     45          6           0       -2.284408   -5.163507    3.063949
     46          6           0        2.833296   -0.583917   -1.241137
     47          6           0        4.181180   -0.407827   -0.654997
     48          6           0        5.150410    0.322341   -0.978242
     49          6           0        5.020483    1.297080   -2.148041
     50          6           0        6.464520    0.338334   -0.223991
     51          6           0        7.592914    0.047240   -1.101941
     52          6           0        8.867149   -0.052971   -0.288656
     53          6           0       10.188960   -0.513460   -1.036845
     54          6           0       10.044261   -2.008493   -1.432010
     55          6           0       11.470011   -0.286535   -0.219196
     56          6           0       12.911128   -0.611961   -0.916266
     57          6           0       13.928567   -0.316070    0.087144
     58          6           0       15.435034   -0.339868   -0.475492
     59          6           0       15.798307   -1.720815   -0.946750
     60          6           0       16.405643    0.387666    0.447776
     61          6           0       17.840603    0.447389   -0.062994
     62          6           0       18.716337    1.371594    0.890891
     63          6           0       20.245387    1.410313    0.365116
     64          6           0       20.300621    2.150040   -0.875822
     65          6           0       21.152580    1.949799    1.492038
     66          1           0       -4.126501    3.642665    1.376333
     67          1           0      -10.180120    4.021198   -0.488239
     68          1           0      -10.380879   -2.487216   -1.365676
     69          1           0       -2.422223   -1.250009    1.899000
     70          1           0       -2.313478    1.680603    1.182961
     71          1           0       -2.096505    0.664916    3.698280
     72          1           0       -2.994537    2.224091    3.577575
     73          1           0       -3.818061    0.707077    3.865699
     74          1           0       -2.226800   -1.662842   -0.273654
     75          1           0       -2.380165    0.115848   -0.588867
     76          1           0       -0.416228    0.606657    0.740990
     77          1           0       -0.207620   -0.861681    1.430032
     78          1           0       -5.569097    6.780514    0.465205
     79          1           0       -5.320697    6.215515    2.045447
     80          1           0       -4.324378    5.676979    1.017353
     81          1           0       -9.228135    5.865487   -0.608266
     82          1           0       -8.903824    8.084461    0.624142
     83          1           0       -7.572508    7.375732    1.554134
     84          1           0      -12.149197    3.438646   -2.231095
     85          1           0      -12.968403    2.139166   -1.449453
     86          1           0      -12.604960    3.263389   -0.364024
     87          1           0      -12.363700   -1.525868   -1.085733
     88          1           0      -13.354086   -0.151206   -1.590142
     89          1           0      -12.994372   -1.859032   -3.533816
     90          1           0      -12.134714   -0.227027   -3.909275
     91          1           0      -11.354047   -1.937013   -3.433250
     92          1           0       -9.144475   -4.572527   -1.754454
     93          1           0       -8.042177   -5.626276   -0.831745
     94          1           0       -9.444610   -5.226270   -0.071467
     95          1           0       -3.418147   -3.221577   -0.133509
     96          1           0       -1.483939   -4.426163    3.375809
     97          1           0       -3.144481   -5.438636    3.644980
     98          1           0       -1.819633   -6.248940    2.963103
     99          1           0        2.719105   -1.593765   -1.606581
    100          1           0        2.401284   -0.107474   -2.245993
    101          1           0        4.531075   -1.224859    0.062718
    102          1           0        4.018901    1.663727   -2.557919
    103          1           0        5.526520    2.246797   -2.003275
    104          1           0        5.544629    0.965943   -3.067468
    105          1           0        6.834381    1.419209    0.013328
    106          1           0        6.298158   -0.455270    0.669116
    107          1           0        7.548908   -1.022702   -1.559935
    108          1           0        7.631748    0.975269   -1.905613
    109          1           0        9.184241    0.928047    0.077519
    110          1           0        8.663315   -0.448637    0.720129
    111          1           0       10.114214    0.123777   -1.918223
    112          1           0        9.076960   -1.997782   -1.920211
    113          1           0       10.922585   -2.295847   -2.216328
    114          1           0       10.313297   -2.916639   -0.712630
    115          1           0       11.604330    0.769981    0.319082
    116          1           0       11.211526   -1.077430    0.552108
    117          1           0       12.713285   -1.759280   -1.107437
    118          1           0       12.829266   -0.105124   -1.802631
    119          1           0       13.794949    0.720936    0.627305
    120          1           0       13.755508   -0.864971    0.933856
    121          1           0       15.317031    0.273585   -1.239678
    122          1           0       15.973343   -2.432175   -0.132123
    123          1           0       14.910654   -2.154018   -1.707989
    124          1           0       16.675783   -1.859433   -1.408058
    125          1           0       15.911691    1.410943    0.541493
    126          1           0       16.380778   -0.120585    1.388798
    127          1           0       18.262705   -0.563729   -0.230439
    128          1           0       17.698047    1.023212   -1.135668
    129          1           0       18.276766    2.370270    0.989194
    130          1           0       18.697027    0.777456    1.873120
    131          1           0       20.566468    0.391277    0.218686
    132          1           0       19.835032    3.142455   -0.796640
    133          1           0       21.275272    2.526015   -1.338327
    134          1           0       19.657037    1.527559   -1.678562
    135          1           0       21.045599    1.363434    2.372172
    136          1           0       22.226712    2.017497    1.245364
    137          1           0       21.011937    2.914715    1.885822
 ---------------------------------------------------------------------

 SCF Done:  E(RCAM-B3LYP) =  -2933.44968398     A.U. after   16 cycles

 Excitation energies and oscillator strengths:

 Excited State   1:      Singlet-A      1.9257 eV  643.84 nm  f=0.2792  <S**2>=0.000
     240 -> 243       -0.20194
     241 -> 242        0.67116
 This state for optimization and/or second-order correction.
 Total Energy, E(TD-HF/TD-DFT) =  -2933.37891627
 Copying the excited state density for this state as the 1-particle RhoCI density.

 The electronic state is 1-A.
 Alpha  occ. eigenvalues --  -46.78958 -19.21116 -19.21084 -19.16581 -19.15884
 Alpha  occ. eigenvalues --  -19.15073 -14.37833 -14.36291 -14.35604 -14.34630
 Alpha  occ. eigenvalues --  -10.34625 -10.33703 -10.30760 -10.28055 -10.27471
 Alpha  occ. eigenvalues --  -10.26802 -10.26105 -10.26003 -10.25192 -10.25053
 Alpha  occ. eigenvalues --  -10.24758 -10.24600 -10.24478 -10.24453 -10.24011
 Alpha  occ. eigenvalues --  -10.24002 -10.23991 -10.23951 -10.23702 -10.23331
 Alpha  occ. eigenvalues --  -10.23241 -10.23015 -10.22892 -10.22880 -10.22844
 Alpha  occ. eigenvalues --  -10.22828 -10.22636 -10.22505 -10.22492 -10.22484
 Alpha  occ. eigenvalues --  -10.22252 -10.22231 -10.22198 -10.22193 -10.22146
 Alpha  occ. eigenvalues --  -10.22017 -10.21927 -10.21880 -10.21831 -10.21808
 Alpha  occ. eigenvalues --  -10.21672 -10.21641 -10.21581 -10.21560 -10.21275
 Alpha  occ. eigenvalues --  -10.21201 -10.21101 -10.20970 -10.20884 -10.20642
 Alpha  occ. eigenvalues --  -10.20458 -10.20405 -10.20045 -10.20017 -10.18938
 Alpha  occ. eigenvalues --   -3.07867  -1.82784  -1.82362  -1.82281  -1.13634
 Alpha  occ. eigenvalues --   -1.10930  -1.04406  -1.03197  -1.02245  -1.00249
 Alpha  occ. eigenvalues --   -0.98791  -0.96881  -0.95677  -0.87668  -0.87390
 Alpha  occ. eigenvalues --   -0.86795  -0.85291  -0.84831  -0.84244  -0.84212
 Alpha  occ. eigenvalues --   -0.83678  -0.83224  -0.82908  -0.81967  -0.81215
 Alpha  occ. eigenvalues --   -0.80593  -0.79300  -0.79028  -0.78618  -0.77933
 Alpha  occ. eigenvalues --   -0.76717  -0.76208  -0.75424  -0.75199  -0.73487
 Alpha  occ. eigenvalues --   -0.73091  -0.72398  -0.71762  -0.71514  -0.71405
 Alpha  occ. eigenvalues --   -0.71137  -0.70272  -0.69631  -0.68869  -0.68521
 Alpha  occ. eigenvalues --   -0.67422  -0.66380  -0.65117  -0.64729  -0.64327
 Alpha  occ. eigenvalues --   -0.63184  -0.61929  -0.61049  -0.60561  -0.60261
 Alpha  occ. eigenvalues --   -0.59480  -0.59435  -0.58982  -0.58757  -0.58212
 Alpha  occ. eigenvalues --   -0.57514  -0.56531  -0.55959  -0.55563  -0.55061
 Alpha  occ. eigenvalues --   -0.54700  -0.54436  -0.53839  -0.53298  -0.52739
 Alpha  occ. eigenvalues --   -0.52381  -0.51934  -0.51762  -0.51089  -0.50848
 Alpha  occ. eigenvalues --   -0.50581  -0.50030  -0.49553  -0.49517  -0.49232
 Alpha  occ. eigenvalues --   -0.48967  -0.48610  -0.48415  -0.48149  -0.48000
 Alpha  occ. eigenvalues --   -0.47842  -0.47450  -0.47283  -0.47103  -0.47066
 Alpha  occ. eigenvalues --   -0.46869  -0.46479  -0.46285  -0.46251  -0.46027
 Alpha  occ. eigenvalues --   -0.45489  -0.45191  -0.45000  -0.44762  -0.44501
 Alpha  occ. eigenvalues --   -0.44396  -0.44074  -0.43933  -0.43704  -0.43648
 Alpha  occ. eigenvalues --   -0.43483  -0.42950  -0.42850  -0.42711  -0.42626
 Alpha  occ. eigenvalues --   -0.42482  -0.42137  -0.41652  -0.41436  -0.41127
 Alpha  occ. eigenvalues --   -0.41099  -0.40915  -0.40852  -0.40688  -0.40433
 Alpha  occ. eigenvalues --   -0.40352  -0.40068  -0.39738  -0.39483  -0.39438
 Alpha  occ. eigenvalues --   -0.39254  -0.39080  -0.39022  -0.38895  -0.38758
 Alpha  occ. eigenvalues --   -0.38484  -0.38324  -0.38239  -0.38001  -0.37704
 Alpha  occ. eigenvalues --   -0.37487  -0.37332  -0.37198  -0.37186  -0.36862
 Alpha  occ. eigenvalues --   -0.36641  -0.36334  -0.36184  -0.36033  -0.35826
 Alpha  occ. eigenvalues --   -0.35640  -0.35336  -0.35164  -0.35054  -0.34949
 Alpha  occ. eigenvalues --   -0.34655  -0.34379  -0.34119  -0.33903  -0.33799
 Alpha  occ. eigenvalues --   -0.33540  -0.32948  -0.32554  -0.32201  -0.32042
 Alpha  occ. eigenvalues --   -0.31841  -0.31592  -0.31420  -0.30468  -0.30240
 Alpha  occ. eigenvalues --   -0.30034  -0.29793  -0.28913  -0.28522  -0.28441
 Alpha  occ. eigenvalues --   -0.27292  -0.26965  -0.26545  -0.23657  -0.21452
 Alpha  occ. eigenvalues --   -0.20211
 Alpha virt. eigenvalues --   -0.07886  -0.04110  -0.00359   0.02029   0.04162
 Alpha virt. eigenvalues --    0.04316   0.04501   0.04856   0.05242   0.05444
 Alpha virt. eigenvalues --    0.06736   0.08365   0.08962   0.09129   0.09832

 Mulliken charges:
               1
     1  Mg   0.808748
     2  C    0.019827
     3  C   -0.214212
     4  C   -0.161875
     5  C   -0.150728
     6  N   -0.620683
     7  C    0.297184
     8  C   -0.141445
     9  C   -0.123979
    10  C    0.330960
    11  C   -0.303894
    12  C   -0.141703
    13  C   -0.265300
    14  C    0.595595
    15  O   -0.466408
    16  O   -0.492716
    17  N   -0.700948
    18  C    0.319715
    19  C    0.033790
    20  C    0.042736
    21  C    0.276927
    22  C   -0.403343
    23  C   -0.084189
    24  C   -0.268599
    25  N   -0.661673
    26  C    0.286668
    27  C    0.010075
    28  C    0.033395
    29  C    0.242698
    30  C   -0.319502
    31  C   -0.250061
    32  C   -0.299925
    33  N   -0.696699
    34  C    0.305676
    35  C   -0.011076
    36  C    0.064798
    37  C    0.288636
    38  C   -0.406116
    39  C    0.356243
    40  O   -0.481422
    41  C   -0.302373
    42  C    0.602544
    43  O   -0.495177
    44  O   -0.415830
    45  C   -0.070473
    46  C    0.015664
    47  C   -0.161203
    48  C    0.221348
    49  C   -0.396578
    50  C   -0.229867
    51  C   -0.160473
    52  C   -0.187769
    53  C   -0.063522
    54  C   -0.301759
    55  C   -0.184121
    56  C   -0.168442
    57  C   -0.171490
    58  C   -0.040444
    59  C   -0.309100
    60  C   -0.177218
    61  C   -0.175638
    62  C   -0.166976
    63  C   -0.037485
    64  C   -0.294521
    65  C   -0.328844
    66  H    0.054571
    67  H    0.090050
    68  H    0.109068
    69  H    0.115067
    70  H    0.102915
    71  H    0.094196
    72  H    0.111425
    73  H    0.135301
    74  H    0.086272
    75  H    0.118803
    76  H    0.142112
    77  H    0.144684
    78  H    0.131841
    79  H    0.125593
    80  H    0.111654
    81  H    0.092824
    82  H    0.105798
    83  H    0.097232
    84  H    0.077288
    85  H    0.106331
    86  H    0.092762
    87  H    0.117734
    88  H    0.111752
    89  H    0.115604
    90  H    0.099170
    91  H    0.103685
    92  H    0.112174
    93  H    0.145428
    94  H    0.123437
    95  H    0.170091
    96  H    0.121548
    97  H    0.140380
    98  H    0.107485
    99  H    0.129566
   100  H    0.112270
   101  H    0.076044
   102  H    0.114168
   103  H    0.108051
   104  H    0.123554
   105  H    0.105824
   106  H    0.087306
   107  H    0.088580
   108  H    0.082461
   109  H    0.086597
   110  H    0.090934
   111  H    0.087759
   112  H    0.104685
   113  H    0.075004
   114  H    0.098755
   115  H    0.065749
   116  H    0.088389
   117  H    0.088992
   118  H    0.107689
   119  H    0.061489
   120  H    0.103201
   121  H    0.096563
   122  H    0.093510
   123  H    0.073695
   124  H    0.110550
   125  H    0.082301
   126  H    0.088642
   127  H    0.096904
   128  H    0.066342
   129  H    0.099264
   130  H    0.082389
   131  H    0.092870
   132  H    0.097351
   133  H    0.090697
   134  H    0.084397
   135  H    0.100487
   136  H    0.091999
   137  H    0.103266
 Sum of Mulliken charges =  -0.00000

 Dipole moment (field-independent basis, Debye):
    X=              0.9826    Y=              3.8558    Z=              0.0375  Tot=              3.9792
 Quadrupole moment (field-independent basis, Debye-Ang):
   XX=           -328.8135   YY=           -392.4982   ZZ=           -399.1519
   XY=            -10.4808   XZ=             18.1279   YZ=             -1.2612

 Normal termination of Gaussian 16 at Tue Sep  3 14:35:02 2019.
