 Gaussian 16, Revision A.03,
 Gaussian 16:  ES64L-G16RevA.03 25-Dec-2016

 ----------------------------------------------------------------------
 # td=(NStates=1) iop(3/107=0140000000,3/108=0140000000) CAM-B3LYP/6-31
 G(d,p)
 ----------------------------------------------------------------------

 --
 TD
 --
 Symbolic Z-matrix:
 Charge =  0 Multiplicity = 1

                         Standard orientation:
 ---------------------------------------------------------------------
 Center     Atomic      Atomic             Coordinates (Angstroms)
 Number     Number       Type             X           Y           Z
 ---------------------------------------------------------------------
      1         12           0       -7.131988    0.602089    0.031053
      2          6           0       -4.859261   -1.896440    0.416585
      3          6           0       -4.786726    2.844722    1.317672
      4          6           0       -9.480832    3.075520   -0.299955
      5          6           0       -9.522828   -1.746863   -1.077701
      6          7           0       -5.101124    0.450267    0.670312
      7          6           0       -4.292309   -0.689324    0.699033
      8          6           0       -2.945066   -0.388639    1.202365
      9          6           0       -3.060937    1.121858    1.733297
     10          6           0       -4.368541    1.563046    1.173457
     11          6           0       -3.017770    1.250896    3.165072
     12          6           0       -1.940487   -0.544255    0.097031
     13          6           0       -0.510644   -0.420505    0.618547
     14          6           0        0.574293   -0.754959   -0.486623
     15          8           0        0.269260   -1.158815   -1.562592
     16          8           0        1.836692   -0.511497   -0.104822
     17          7           0       -7.176078    2.571961    0.475583
     18          6           0       -6.107271    3.291986    0.780427
     19          6           0       -6.413738    4.713094    0.816835
     20          6           0       -7.702967    4.850860    0.261029
     21          6           0       -8.158112    3.499450    0.051686
     22          6           0       -5.550097    5.976974    1.226391
     23          6           0       -8.581601    5.970946    0.122376
     24          6           0       -8.519682    7.224370    0.722333
     25          7           0       -9.136428    0.673334   -0.658300
     26          6           0       -9.883891    1.806536   -0.718643
     27          6           0      -11.241772    1.401975   -1.220990
     28          6           0      -11.274121    0.083413   -1.390944
     29          6           0       -9.947877   -0.401550   -0.969713
     30          6           0      -12.392133    2.466932   -1.320222
     31          6           0      -12.397934   -0.828700   -1.783670
     32          6           0      -12.240135   -1.075560   -3.315699
     33          7           0       -7.276136   -1.395086   -0.181292
     34          6           0       -8.174641   -2.187005   -0.608636
     35          6           0       -7.812503   -3.572089   -0.522100
     36          6           0       -6.509822   -3.546565   -0.136698
     37          6           0       -6.073801   -2.155615    0.006776
     38          6           0       -8.581639   -4.776019   -0.878230
     39          6           0       -5.320041   -4.315227    0.263731
     40          8           0       -5.190725   -5.504064    0.235835
     41          6           0       -4.251918   -3.215671    0.648704
     42          6           0       -3.518136   -3.665589    1.982905
     43          8           0       -3.744933   -3.139518    3.030315
     44          8           0       -2.781998   -4.785805    1.719496
     45          6           0       -2.194960   -5.340692    2.971607
     46          6           0        2.916461   -0.679843   -1.151172
     47          6           0        4.182272   -0.423812   -0.512232
     48          6           0        5.122511    0.312765   -0.971561
     49          6           0        5.155846    1.239974   -2.144982
     50          6           0        6.386612    0.396247   -0.155744
     51          6           0        7.643631   -0.251363   -0.954352
     52          6           0        8.903180   -0.187664   -0.140979
     53          6           0       10.245990   -0.621599   -0.885627
     54          6           0       10.180386   -2.075463   -1.321187
     55          6           0       11.453592   -0.311854   -0.061264
     56          6           0       12.854647   -0.355165   -0.769912
     57          6           0       13.911717   -0.007145    0.220990
     58          6           0       15.287943   -0.228716   -0.441396
     59          6           0       15.617720   -1.710019   -0.786699
     60          6           0       16.444236    0.426833    0.450627
     61          6           0       17.859328    0.447532   -0.125828
     62          6           0       18.734975    1.461471    0.676260
     63          6           0       20.156374    1.433488    0.136440
     64          6           0       20.339591    2.223169   -1.215343
     65          6           0       21.206822    1.826831    1.239999
     66          1           0       -4.166237    3.498603    1.810946
     67          1           0      -10.128903    4.016508   -0.451788
     68          1           0      -10.203386   -2.405500   -1.344060
     69          1           0       -2.648288   -0.947136    1.877441
     70          1           0       -1.920631    1.568377    1.497025
     71          1           0       -1.961380    1.040294    3.661866
     72          1           0       -3.307475    2.194922    3.656282
     73          1           0       -3.839047    0.511661    3.628158
     74          1           0       -2.024743   -1.486520   -0.177850
     75          1           0       -1.941232    0.215274   -0.760834
     76          1           0       -0.417088    0.421786    0.975984
     77          1           0       -0.322290   -1.065169    1.602501
     78          1           0       -5.776261    6.856620    0.706760
     79          1           0       -5.453587    6.202476    2.386480
     80          1           0       -4.374586    5.696481    0.958909
     81          1           0       -9.109291    5.993809   -0.962660
     82          1           0       -9.224862    8.088943    0.386009
     83          1           0       -7.824169    7.601719    1.615358
     84          1           0      -12.130020    3.436592   -2.016243
     85          1           0      -13.099249    2.007842   -1.959878
     86          1           0      -12.472939    2.836833   -0.308425
     87          1           0      -12.365442   -1.686792   -1.133782
     88          1           0      -13.504557   -0.352029   -1.566674
     89          1           0      -13.142121   -1.726136   -3.290185
     90          1           0      -12.371755   -0.134037   -3.768055
     91          1           0      -11.407198   -1.641681   -3.635404
     92          1           0       -8.942576   -4.956527   -1.877457
     93          1           0       -7.886005   -5.524277   -0.675328
     94          1           0       -9.416854   -4.988503   -0.050889
     95          1           0       -3.345124   -3.511676   -0.187453
     96          1           0       -1.838813   -4.507674    3.650221
     97          1           0       -3.029624   -6.009994    3.721417
     98          1           0       -1.463086   -5.965755    2.450876
     99          1           0        2.777195   -1.735378   -1.404737
    100          1           0        2.735033   -0.065315   -2.037251
    101          1           0        4.301130   -1.049468    0.291989
    102          1           0        4.164247    1.279639   -2.643554
    103          1           0        5.668119    2.180706   -2.258970
    104          1           0        5.656361    0.558929   -3.009614
    105          1           0        6.552408    1.442188    0.231821
    106          1           0        6.126548   -0.006420    0.837321
    107          1           0        7.340898   -1.366924   -1.217858
    108          1           0        7.811238    0.338486   -1.724056
    109          1           0        9.225514    0.779912    0.160243
    110          1           0        8.688612   -0.697095    0.802859
    111          1           0       10.328788    0.126999   -1.708003
    112          1           0        9.327141   -2.226662   -1.990767
    113          1           0       11.026527   -2.318264   -2.007825
    114          1           0       10.185141   -2.761814   -0.440934
    115          1           0       11.203259    0.669070    0.334044
    116          1           0       11.513143   -1.006789    0.781789
    117          1           0       12.893793   -1.416464   -0.967531
    118          1           0       12.907574    0.011674   -1.676810
    119          1           0       13.828099    1.095151    0.604995
    120          1           0       13.832757   -0.626109    1.049015
    121          1           0       15.508399    0.352242   -1.533430
    122          1           0       15.732028   -2.162188    0.072824
    123          1           0       14.805479   -1.833555   -1.513809
    124          1           0       16.751600   -1.781178   -1.249888
    125          1           0       16.147229    1.436206    0.736917
    126          1           0       16.426606   -0.169270    1.378531
    127          1           0       18.116530   -0.648208    0.037686
    128          1           0       17.859297    0.981614   -1.260827
    129          1           0       18.397380    2.633478    0.748042
    130          1           0       18.605084    1.061890    1.651087
    131          1           0       20.625023    0.378070   -0.048688
    132          1           0       20.225565    3.421012   -1.112823
    133          1           0       21.431580    2.127925   -1.621690
    134          1           0       19.637760    1.924103   -1.994729
    135          1           0       21.277155    1.336483    2.021206
    136          1           0       22.387541    1.773441    0.940841
    137          1           0       21.073285    2.929858    1.456269
 ---------------------------------------------------------------------

 SCF Done:  E(RCAM-B3LYP) =  -2933.39046285     A.U. after   16 cycles

 Excitation energies and oscillator strengths:

 Excited State   1:      Singlet-A      1.8762 eV  660.84 nm  f=0.3500  <S**2>=0.000
     240 -> 243        0.18940
     241 -> 242        0.68309
 This state for optimization and/or second-order correction.
 Total Energy, E(TD-HF/TD-DFT) =  -2933.32151546
 Copying the excited state density for this state as the 1-particle RhoCI density.

 The electronic state is 1-A.
 Alpha  occ. eigenvalues --  -46.79976 -19.22978 -19.21164 -19.17615 -19.16056
 Alpha  occ. eigenvalues --  -19.15982 -14.37911 -14.35654 -14.34985 -14.34870
 Alpha  occ. eigenvalues --  -10.35179 -10.34005 -10.30166 -10.29277 -10.27080
 Alpha  occ. eigenvalues --  -10.26128 -10.25661 -10.25442 -10.25183 -10.24878
 Alpha  occ. eigenvalues --  -10.24755 -10.24610 -10.24606 -10.24089 -10.24022
 Alpha  occ. eigenvalues --  -10.23996 -10.23872 -10.23587 -10.23300 -10.23270
 Alpha  occ. eigenvalues --  -10.23073 -10.22946 -10.22911 -10.22789 -10.22703
 Alpha  occ. eigenvalues --  -10.22660 -10.22655 -10.22386 -10.22234 -10.22035
 Alpha  occ. eigenvalues --  -10.22026 -10.21996 -10.21972 -10.21935 -10.21916
 Alpha  occ. eigenvalues --  -10.21835 -10.21826 -10.21719 -10.21599 -10.21574
 Alpha  occ. eigenvalues --  -10.21189 -10.21130 -10.21125 -10.21063 -10.20906
 Alpha  occ. eigenvalues --  -10.20619 -10.20587 -10.20528 -10.20378 -10.20326
 Alpha  occ. eigenvalues --  -10.20230 -10.20125 -10.20033 -10.19645 -10.19542
 Alpha  occ. eigenvalues --   -3.08530  -1.83476  -1.82996  -1.82937  -1.12839
 Alpha  occ. eigenvalues --   -1.12348  -1.06993  -1.05469  -1.04029  -0.99736
 Alpha  occ. eigenvalues --   -0.98353  -0.97354  -0.96840  -0.89034  -0.87354
 Alpha  occ. eigenvalues --   -0.85969  -0.85840  -0.84172  -0.83949  -0.83574
 Alpha  occ. eigenvalues --   -0.83090  -0.82847  -0.82183  -0.81574  -0.80657
 Alpha  occ. eigenvalues --   -0.79918  -0.78834  -0.78210  -0.77692  -0.76943
 Alpha  occ. eigenvalues --   -0.76585  -0.75910  -0.75566  -0.75294  -0.74180
 Alpha  occ. eigenvalues --   -0.72679  -0.72328  -0.71571  -0.70983  -0.70906
 Alpha  occ. eigenvalues --   -0.70880  -0.69911  -0.69696  -0.68621  -0.67981
 Alpha  occ. eigenvalues --   -0.66394  -0.66239  -0.65316  -0.65108  -0.63384
 Alpha  occ. eigenvalues --   -0.62784  -0.62492  -0.61365  -0.61061  -0.60594
 Alpha  occ. eigenvalues --   -0.59720  -0.58947  -0.58898  -0.57791  -0.57696
 Alpha  occ. eigenvalues --   -0.57641  -0.56658  -0.55815  -0.55645  -0.55119
 Alpha  occ. eigenvalues --   -0.54523  -0.54194  -0.53377  -0.52835  -0.52431
 Alpha  occ. eigenvalues --   -0.52106  -0.51778  -0.51470  -0.51101  -0.50465
 Alpha  occ. eigenvalues --   -0.50199  -0.50008  -0.49779  -0.49690  -0.49420
 Alpha  occ. eigenvalues --   -0.48990  -0.48781  -0.48457  -0.48288  -0.48084
 Alpha  occ. eigenvalues --   -0.47871  -0.47468  -0.47400  -0.47202  -0.47051
 Alpha  occ. eigenvalues --   -0.46926  -0.46609  -0.46415  -0.46126  -0.45843
 Alpha  occ. eigenvalues --   -0.45629  -0.45284  -0.45256  -0.44949  -0.44896
 Alpha  occ. eigenvalues --   -0.44659  -0.44487  -0.44123  -0.43834  -0.43646
 Alpha  occ. eigenvalues --   -0.43374  -0.42956  -0.42899  -0.42605  -0.42499
 Alpha  occ. eigenvalues --   -0.42486  -0.41991  -0.41858  -0.41825  -0.41655
 Alpha  occ. eigenvalues --   -0.41406  -0.41024  -0.40863  -0.40737  -0.40632
 Alpha  occ. eigenvalues --   -0.40528  -0.40319  -0.40113  -0.40053  -0.39976
 Alpha  occ. eigenvalues --   -0.39724  -0.39534  -0.39389  -0.39108  -0.38907
 Alpha  occ. eigenvalues --   -0.38631  -0.38554  -0.38390  -0.38137  -0.38082
 Alpha  occ. eigenvalues --   -0.38010  -0.37890  -0.37644  -0.37300  -0.37108
 Alpha  occ. eigenvalues --   -0.36670  -0.36633  -0.36283  -0.36199  -0.35995
 Alpha  occ. eigenvalues --   -0.35890  -0.35546  -0.35028  -0.34992  -0.34395
 Alpha  occ. eigenvalues --   -0.34300  -0.34119  -0.33691  -0.33300  -0.33263
 Alpha  occ. eigenvalues --   -0.33185  -0.32854  -0.32809  -0.32593  -0.32302
 Alpha  occ. eigenvalues --   -0.32244  -0.31576  -0.31455  -0.30696  -0.30157
 Alpha  occ. eigenvalues --   -0.29901  -0.29608  -0.28833  -0.28438  -0.27750
 Alpha  occ. eigenvalues --   -0.26934  -0.26457  -0.25859  -0.24801  -0.21919
 Alpha  occ. eigenvalues --   -0.19259
 Alpha virt. eigenvalues --   -0.07416  -0.03167  -0.00217   0.01626   0.03731
 Alpha virt. eigenvalues --    0.03944   0.04301   0.05279   0.05357   0.05898
 Alpha virt. eigenvalues --    0.06125   0.08930   0.09182   0.09664   0.09876

 Mulliken charges:
               1
     1  Mg   0.815332
     2  C    0.168409
     3  C   -0.153837
     4  C   -0.177609
     5  C   -0.139513
     6  N   -0.657106
     7  C    0.300080
     8  C   -0.099427
     9  C   -0.143387
    10  C    0.345408
    11  C   -0.298835
    12  C   -0.157136
    13  C   -0.263359
    14  C    0.594699
    15  O   -0.454951
    16  O   -0.488189
    17  N   -0.667512
    18  C    0.289787
    19  C    0.008478
    20  C    0.051455
    21  C    0.245353
    22  C   -0.363807
    23  C   -0.117144
    24  C   -0.246467
    25  N   -0.674816
    26  C    0.321004
    27  C   -0.024836
    28  C    0.068234
    29  C    0.275714
    30  C   -0.355751
    31  C   -0.267700
    32  C   -0.300070
    33  N   -0.705036
    34  C    0.302815
    35  C   -0.001105
    36  C    0.054229
    37  C    0.180948
    38  C   -0.394955
    39  C    0.371132
    40  O   -0.442122
    41  C   -0.360187
    42  C    0.615650
    43  O   -0.450374
    44  O   -0.441389
    45  C   -0.085849
    46  C   -0.002960
    47  C   -0.110218
    48  C    0.163101
    49  C   -0.378177
    50  C   -0.254867
    51  C   -0.156658
    52  C   -0.178637
    53  C   -0.068633
    54  C   -0.308100
    55  C   -0.174107
    56  C   -0.183473
    57  C   -0.149187
    58  C   -0.068779
    59  C   -0.293418
    60  C   -0.190168
    61  C   -0.158069
    62  C   -0.155960
    63  C   -0.042841
    64  C   -0.304831
    65  C   -0.298154
    66  H    0.084921
    67  H    0.088054
    68  H    0.062258
    69  H    0.091082
    70  H    0.076933
    71  H    0.085346
    72  H    0.115559
    73  H    0.101807
    74  H    0.122654
    75  H    0.111438
    76  H    0.126275
    77  H    0.097532
    78  H    0.136134
    79  H    0.107469
    80  H    0.080227
    81  H    0.093130
    82  H    0.098078
    83  H    0.100921
    84  H    0.087824
    85  H    0.118333
    86  H    0.141399
    87  H    0.116383
    88  H    0.085680
    89  H    0.103949
    90  H    0.123547
    91  H    0.124310
    92  H    0.130544
    93  H    0.153375
    94  H    0.103920
    95  H    0.128000
    96  H    0.144079
    97  H    0.102728
    98  H    0.139596
    99  H    0.130253
   100  H    0.119043
   101  H    0.091015
   102  H    0.109172
   103  H    0.136440
   104  H    0.104761
   105  H    0.095207
   106  H    0.093310
   107  H    0.091489
   108  H    0.109145
   109  H    0.088712
   110  H    0.086289
   111  H    0.075409
   112  H    0.100145
   113  H    0.093573
   114  H    0.102370
   115  H    0.078730
   116  H    0.082903
   117  H    0.103222
   118  H    0.099204
   119  H    0.083413
   120  H    0.101195
   121  H    0.042891
   122  H    0.112895
   123  H    0.112194
   124  H    0.079877
   125  H    0.085682
   126  H    0.076426
   127  H    0.098668
   128  H    0.066783
   129  H    0.077318
   130  H    0.099086
   131  H    0.081318
   132  H    0.077183
   133  H    0.095786
   134  H    0.111137
   135  H    0.116210
   136  H    0.059726
   137  H    0.086213
 Sum of Mulliken charges =  -0.00000

 Dipole moment (field-independent basis, Debye):
    X=              2.4993    Y=              2.8819    Z=              0.1889  Tot=              3.8194
 Quadrupole moment (field-independent basis, Debye-Ang):
   XX=           -366.4443   YY=           -394.4784   ZZ=           -394.6015
   XY=            -18.1675   XZ=             17.8859   YZ=             -5.0412

 Normal termination of Gaussian 16 at Sun Sep  8 01:59:32 2019.
