 Gaussian 16, Revision A.03,
 Gaussian 16:  ES64L-G16RevA.03 25-Dec-2016

 ----------------------------------------------------------------------
 # td=(NStates=1) iop(3/107=0140000000,3/108=0140000000) CAM-B3LYP/6-31
 G(d,p)
 ----------------------------------------------------------------------

 --
 TD
 --
 Symbolic Z-matrix:
 Charge =  0 Multiplicity = 1

                         Standard orientation:
 ---------------------------------------------------------------------
 Center     Atomic      Atomic             Coordinates (Angstroms)
 Number     Number       Type             X           Y           Z
 ---------------------------------------------------------------------
      1         12           0       -7.136752    0.559113    0.208635
      2          6           0       -4.857785   -1.972976    0.518843
      3          6           0       -4.793517    2.910367    1.226431
      4          6           0       -9.327625    3.048723   -0.428258
      5          6           0       -9.604735   -1.626929   -0.826328
      6          7           0       -5.153601    0.346455    0.797245
      7          6           0       -4.366704   -0.716091    0.862214
      8          6           0       -2.877802   -0.403719    1.260074
      9          6           0       -2.989399    1.059159    1.712279
     10          6           0       -4.398831    1.494950    1.102521
     11          6           0       -2.988957    1.131925    3.270760
     12          6           0       -1.978473   -0.693235   -0.004602
     13          6           0       -0.482178   -0.400894    0.399565
     14          6           0        0.436024   -0.529187   -0.778377
     15          8           0        0.048291   -0.955152   -1.919070
     16          8           0        1.738563   -0.235756   -0.433771
     17          7           0       -7.024311    2.590961    0.346757
     18          6           0       -5.995344    3.402612    0.812447
     19          6           0       -6.291486    4.809049    0.769390
     20          6           0       -7.635921    4.891126    0.276717
     21          6           0       -8.105932    3.516451   -0.005152
     22          6           0       -5.482124    5.834254    1.243299
     23          6           0       -8.475501    6.106511    0.169621
     24          6           0       -8.289430    7.273870    0.726553
     25          7           0       -9.102341    0.702580   -0.445054
     26          6           0       -9.828458    1.768306   -0.646185
     27          6           0      -11.186472    1.491071   -1.184781
     28          6           0      -11.227260    0.135621   -1.281468
     29          6           0       -9.863886   -0.345411   -0.734591
     30          6           0      -12.168482    2.527350   -1.372019
     31          6           0      -12.327270   -0.717164   -1.698617
     32          6           0      -12.238521   -1.165261   -3.150371
     33          7           0       -7.212442   -1.403275   -0.190589
     34          6           0       -8.254400   -2.208573   -0.563110
     35          6           0       -7.885101   -3.623371   -0.496957
     36          6           0       -6.494770   -3.556522   -0.112679
     37          6           0       -6.142142   -2.187443    0.147208
     38          6           0       -8.726758   -4.854913   -0.733776
     39          6           0       -5.383103   -4.472215    0.083240
     40          8           0       -5.170742   -5.641943    0.103581
     41          6           0       -4.183077   -3.356468    0.604057
     42          6           0       -3.557161   -3.720839    1.890259
     43          8           0       -3.911579   -3.161659    2.963349
     44          8           0       -2.791134   -4.710260    1.800731
     45          6           0       -2.168586   -5.199913    3.003118
     46          6           0        2.786650   -0.497905   -1.502936
     47          6           0        4.107025   -0.339189   -0.825512
     48          6           0        5.146254    0.418418   -1.065189
     49          6           0        5.164017    1.387331   -2.430056
     50          6           0        6.405668    0.303915   -0.247177
     51          6           0        7.656503   -0.130191   -1.030337
     52          6           0        8.894801   -0.157500   -0.226460
     53          6           0       10.149461   -0.616365   -0.874564
     54          6           0       10.047866   -2.130330   -1.217971
     55          6           0       11.361359   -0.220023   -0.036436
     56          6           0       12.753184   -0.672413   -0.617813
     57          6           0       14.007034   -0.084784    0.189971
     58          6           0       15.304702   -0.402780   -0.515248
     59          6           0       15.656441   -1.872974   -0.780370
     60          6           0       16.369901    0.380958    0.408995
     61          6           0       17.852043    0.487615   -0.172582
     62          6           0       18.735981    1.320754    0.785203
     63          6           0       20.178845    1.436734    0.313364
     64          6           0       20.541420    2.221963   -0.968520
     65          6           0       20.982720    1.931772    1.454175
     66          1           0       -4.092334    3.562280    1.671471
     67          1           0       -9.943915    3.981080   -0.912825
     68          1           0      -10.527958   -2.359688   -0.720464
     69          1           0       -2.716945   -1.158080    2.049668
     70          1           0       -2.145029    1.601069    1.392314
     71          1           0       -1.925297    1.053311    3.595732
     72          1           0       -3.430734    1.940507    3.890653
     73          1           0       -3.601142    0.295771    3.611909
     74          1           0       -2.030921   -1.695195   -0.398474
     75          1           0       -2.199251   -0.069608   -0.811375
     76          1           0       -0.452196    0.595326    0.807570
     77          1           0       -0.275773   -1.036288    1.219638
     78          1           0       -5.738616    6.727754    0.563654
     79          1           0       -5.849510    6.251652    2.263107
     80          1           0       -4.372041    5.497135    1.349950
     81          1           0       -9.315894    6.054514   -0.401649
     82          1           0       -8.905686    8.017048    0.637558
     83          1           0       -7.847617    7.549391    1.852001
     84          1           0      -11.740485    3.216831   -2.282427
     85          1           0      -13.232885    2.106258   -1.767035
     86          1           0      -12.301344    3.239677   -0.463132
     87          1           0      -12.413072   -1.593617   -1.208269
     88          1           0      -13.495253   -0.409304   -1.562668
     89          1           0      -13.267516   -1.600627   -3.345628
     90          1           0      -12.283568   -0.239093   -3.742608
     91          1           0      -11.463610   -1.899563   -3.225831
     92          1           0       -8.741085   -5.035346   -1.946312
     93          1           0       -8.208437   -5.756447   -0.157866
     94          1           0       -9.595167   -4.894958   -0.194085
     95          1           0       -3.313611   -3.570061   -0.000111
     96          1           0       -1.794834   -4.387741    3.724493
     97          1           0       -2.977124   -5.589240    3.712075
     98          1           0       -1.276089   -5.881939    2.717134
     99          1           0        2.865628   -1.541733   -1.957348
    100          1           0        2.594828    0.179555   -2.234094
    101          1           0        4.379704   -1.051780    0.002453
    102          1           0        4.103685    1.291171   -2.963084
    103          1           0        5.624252    2.336507   -2.147507
    104          1           0        5.916103    1.047590   -2.988006
    105          1           0        6.612639    1.293181    0.029278
    106          1           0        6.307507   -0.512010    0.440107
    107          1           0        7.602778   -1.191993   -1.309906
    108          1           0        7.935115    0.477711   -1.901615
    109          1           0        9.141360    0.928024    0.128880
    110          1           0        8.878172   -0.743606    0.770167
    111          1           0       10.131750   -0.085307   -1.866454
    112          1           0        9.190533   -2.235236   -1.842069
    113          1           0       10.918550   -2.442705   -1.879984
    114          1           0       10.131464   -2.791163   -0.387300
    115          1           0       11.205554    0.649391    0.396289
    116          1           0       11.487342   -0.792807    0.931567
    117          1           0       12.803916   -1.713981   -0.569923
    118          1           0       12.809465   -0.302326   -1.688195
    119          1           0       14.006642    0.923219    0.292509
    120          1           0       14.272865   -0.555366    1.238397
    121          1           0       15.276058    0.198047   -1.442515
    122          1           0       15.600779   -2.414327    0.279746
    123          1           0       15.122302   -2.339276   -1.677937
    124          1           0       16.813594   -1.988444   -0.972159
    125          1           0       16.143481    1.336721    0.713172
    126          1           0       16.432143   -0.196565    1.244643
    127          1           0       18.396488   -0.390536   -0.315060
    128          1           0       17.801270    0.999031   -1.272992
    129          1           0       18.464476    2.525169    0.766562
    130          1           0       18.731163    0.914069    1.993609
    131          1           0       20.570658    0.424945    0.240006
    132          1           0       20.214973    3.323349   -0.870581
    133          1           0       21.546618    2.436389   -1.094052
    134          1           0       19.975296    1.716575   -1.788997
    135          1           0       20.843521    1.506940    2.479574
    136          1           0       22.020596    1.913809    1.264907
    137          1           0       20.620139    3.135356    1.647879
 ---------------------------------------------------------------------

 SCF Done:  E(RCAM-B3LYP) =  -2933.48954233     A.U. after   16 cycles

 Excitation energies and oscillator strengths:

 Excited State   1:      Singlet-A      1.9866 eV  624.09 nm  f=0.3121  <S**2>=0.000
     240 -> 243       -0.22041
     241 -> 242        0.66988
 This state for optimization and/or second-order correction.
 Total Energy, E(TD-HF/TD-DFT) =  -2933.41653467
 Copying the excited state density for this state as the 1-particle RhoCI density.

 The electronic state is 1-A.
 Alpha  occ. eigenvalues --  -46.79673 -19.23460 -19.22421 -19.16565 -19.16464
 Alpha  occ. eigenvalues --  -19.13687 -14.38366 -14.35549 -14.35041 -14.35021
 Alpha  occ. eigenvalues --  -10.34920 -10.32715 -10.30489 -10.28788 -10.27940
 Alpha  occ. eigenvalues --  -10.27665 -10.25810 -10.25495 -10.25074 -10.25040
 Alpha  occ. eigenvalues --  -10.24641 -10.24216 -10.24186 -10.23649 -10.23596
 Alpha  occ. eigenvalues --  -10.23532 -10.23418 -10.23378 -10.23140 -10.23024
 Alpha  occ. eigenvalues --  -10.22979 -10.22892 -10.22866 -10.22797 -10.22776
 Alpha  occ. eigenvalues --  -10.22691 -10.22588 -10.22475 -10.22270 -10.22183
 Alpha  occ. eigenvalues --  -10.22086 -10.22054 -10.22040 -10.21909 -10.21670
 Alpha  occ. eigenvalues --  -10.21669 -10.21644 -10.21639 -10.21553 -10.21440
 Alpha  occ. eigenvalues --  -10.21392 -10.21345 -10.21326 -10.21297 -10.21170
 Alpha  occ. eigenvalues --  -10.21139 -10.21094 -10.20972 -10.20735 -10.20696
 Alpha  occ. eigenvalues --  -10.20669 -10.20615 -10.20103 -10.19814 -10.19729
 Alpha  occ. eigenvalues --   -3.08359  -1.83290  -1.82853  -1.82757  -1.15971
 Alpha  occ. eigenvalues --   -1.09903  -1.07365  -1.01281  -1.00830  -1.00678
 Alpha  occ. eigenvalues --   -0.98895  -0.97263  -0.95512  -0.86805  -0.86247
 Alpha  occ. eigenvalues --   -0.85088  -0.84854  -0.84665  -0.84364  -0.84253
 Alpha  occ. eigenvalues --   -0.83792  -0.83588  -0.82369  -0.81301  -0.80814
 Alpha  occ. eigenvalues --   -0.80162  -0.79454  -0.79412  -0.78854  -0.78043
 Alpha  occ. eigenvalues --   -0.76919  -0.76320  -0.75514  -0.74651  -0.72949
 Alpha  occ. eigenvalues --   -0.72810  -0.72207  -0.72074  -0.71204  -0.71058
 Alpha  occ. eigenvalues --   -0.70996  -0.70112  -0.69865  -0.68898  -0.67317
 Alpha  occ. eigenvalues --   -0.66972  -0.66218  -0.65326  -0.64960  -0.63843
 Alpha  occ. eigenvalues --   -0.63050  -0.62260  -0.61227  -0.60880  -0.60675
 Alpha  occ. eigenvalues --   -0.59633  -0.59131  -0.58612  -0.58446  -0.57925
 Alpha  occ. eigenvalues --   -0.57191  -0.56922  -0.56248  -0.55562  -0.54683
 Alpha  occ. eigenvalues --   -0.54537  -0.53806  -0.53384  -0.52862  -0.52339
 Alpha  occ. eigenvalues --   -0.52041  -0.51815  -0.51271  -0.51231  -0.51160
 Alpha  occ. eigenvalues --   -0.50678  -0.50087  -0.49866  -0.49337  -0.48979
 Alpha  occ. eigenvalues --   -0.48898  -0.48700  -0.48467  -0.48385  -0.48025
 Alpha  occ. eigenvalues --   -0.47809  -0.47671  -0.47328  -0.47236  -0.47043
 Alpha  occ. eigenvalues --   -0.46581  -0.46437  -0.45863  -0.45846  -0.45664
 Alpha  occ. eigenvalues --   -0.45458  -0.45280  -0.45041  -0.44938  -0.44708
 Alpha  occ. eigenvalues --   -0.44317  -0.43989  -0.43855  -0.43652  -0.43445
 Alpha  occ. eigenvalues --   -0.43177  -0.42920  -0.42728  -0.42533  -0.42307
 Alpha  occ. eigenvalues --   -0.42178  -0.41735  -0.41601  -0.41464  -0.41373
 Alpha  occ. eigenvalues --   -0.41291  -0.41007  -0.40771  -0.40593  -0.40478
 Alpha  occ. eigenvalues --   -0.40283  -0.40107  -0.40036  -0.39787  -0.39506
 Alpha  occ. eigenvalues --   -0.39379  -0.39017  -0.38938  -0.38731  -0.38619
 Alpha  occ. eigenvalues --   -0.38548  -0.38460  -0.38321  -0.38279  -0.38192
 Alpha  occ. eigenvalues --   -0.37773  -0.37679  -0.37663  -0.37368  -0.36975
 Alpha  occ. eigenvalues --   -0.36895  -0.36697  -0.36607  -0.36355  -0.36111
 Alpha  occ. eigenvalues --   -0.35989  -0.35572  -0.35355  -0.35150  -0.34965
 Alpha  occ. eigenvalues --   -0.34527  -0.34059  -0.33979  -0.33581  -0.33335
 Alpha  occ. eigenvalues --   -0.33144  -0.33037  -0.32888  -0.32565  -0.32510
 Alpha  occ. eigenvalues --   -0.32335  -0.32278  -0.31724  -0.30342  -0.29966
 Alpha  occ. eigenvalues --   -0.29751  -0.29570  -0.28194  -0.27628  -0.27598
 Alpha  occ. eigenvalues --   -0.26635  -0.26091  -0.25760  -0.24482  -0.21594
 Alpha  occ. eigenvalues --   -0.19466
 Alpha virt. eigenvalues --   -0.07067  -0.03386  -0.00241   0.02003   0.02730
 Alpha virt. eigenvalues --    0.04097   0.04679   0.05109   0.05286   0.06120
 Alpha virt. eigenvalues --    0.06785   0.08345   0.09385   0.09663   0.09846

 Mulliken charges:
               1
     1  Mg   0.814996
     2  C    0.111404
     3  C   -0.203148
     4  C   -0.219117
     5  C   -0.200317
     6  N   -0.617547
     7  C    0.303208
     8  C   -0.159058
     9  C   -0.133336
    10  C    0.283356
    11  C   -0.318960
    12  C   -0.175273
    13  C   -0.272581
    14  C    0.613646
    15  O   -0.497690
    16  O   -0.481997
    17  N   -0.719256
    18  C    0.360066
    19  C    0.082144
    20  C    0.009257
    21  C    0.290725
    22  C   -0.401364
    23  C   -0.059597
    24  C   -0.246321
    25  N   -0.671527
    26  C    0.311983
    27  C    0.101089
    28  C    0.038079
    29  C    0.354550
    30  C   -0.385562
    31  C   -0.281213
    32  C   -0.300125
    33  N   -0.728203
    34  C    0.239118
    35  C    0.023374
    36  C   -0.009611
    37  C    0.304308
    38  C   -0.372574
    39  C    0.363829
    40  O   -0.432257
    41  C   -0.361591
    42  C    0.605513
    43  O   -0.538332
    44  O   -0.377783
    45  C   -0.105735
    46  C    0.023162
    47  C   -0.145117
    48  C    0.128425
    49  C   -0.369504
    50  C   -0.212358
    51  C   -0.188123
    52  C   -0.161791
    53  C   -0.047050
    54  C   -0.320640
    55  C   -0.168313
    56  C   -0.191692
    57  C   -0.155389
    58  C   -0.061962
    59  C   -0.307995
    60  C   -0.188131
    61  C   -0.179881
    62  C   -0.139621
    63  C   -0.049021
    64  C   -0.305102
    65  C   -0.290434
    66  H    0.080442
    67  H    0.068026
    68  H    0.098390
    69  H    0.126917
    70  H    0.098947
    71  H    0.102724
    72  H    0.108646
    73  H    0.135786
    74  H    0.129052
    75  H    0.126521
    76  H    0.130067
    77  H    0.143264
    78  H    0.129788
    79  H    0.125811
    80  H    0.102437
    81  H    0.090038
    82  H    0.101769
    83  H    0.075842
    84  H    0.101276
    85  H    0.099970
    86  H    0.125782
    87  H    0.116272
    88  H    0.081174
    89  H    0.090597
    90  H    0.114175
    91  H    0.122392
    92  H    0.118744
    93  H    0.124692
    94  H    0.133920
    95  H    0.131784
    96  H    0.131129
    97  H    0.141265
    98  H    0.127578
    99  H    0.135170
   100  H    0.125877
   101  H    0.072463
   102  H    0.103414
   103  H    0.111186
   104  H    0.139097
   105  H    0.112697
   106  H    0.107546
   107  H    0.098406
   108  H    0.090152
   109  H    0.061202
   110  H    0.073999
   111  H    0.070748
   112  H    0.106187
   113  H    0.091139
   114  H    0.110031
   115  H    0.092219
   116  H    0.078022
   117  H    0.114932
   118  H    0.082381
   119  H    0.104103
   120  H    0.064712
   121  H    0.079619
   122  H    0.085146
   123  H    0.111507
   124  H    0.095254
   125  H    0.104713
   126  H    0.099315
   127  H    0.102261
   128  H    0.069050
   129  H    0.061540
   130  H    0.063390
   131  H    0.087070
   132  H    0.086460
   133  H    0.118964
   134  H    0.103963
   135  H    0.095660
   136  H    0.100495
   137  H    0.044662
 Sum of Mulliken charges =  -0.00000

 Dipole moment (field-independent basis, Debye):
    X=              2.2988    Y=              3.5447    Z=              0.9888  Tot=              4.3390
 Quadrupole moment (field-independent basis, Debye-Ang):
   XX=           -324.6575   YY=           -393.3877   ZZ=           -398.6378
   XY=            -29.7148   XZ=             -0.1280   YZ=             -2.4818

 Normal termination of Gaussian 16 at Mon Sep 23 17:09:11 2019.
