 Gaussian 16, Revision A.03,
 Gaussian 16:  ES64L-G16RevA.03 25-Dec-2016

 ----------------------------------------------------------------------
 # td=(NStates=1) iop(3/107=0140000000,3/108=0140000000) CAM-B3LYP/6-31
 G(d,p)
 ----------------------------------------------------------------------

 --
 TD
 --
 Symbolic Z-matrix:
 Charge =  0 Multiplicity = 1

                         Standard orientation:
 ---------------------------------------------------------------------
 Center     Atomic      Atomic             Coordinates (Angstroms)
 Number     Number       Type             X           Y           Z
 ---------------------------------------------------------------------
      1         12           0       -7.092470    0.578774   -0.020061
      2          6           0       -4.837912   -1.988484    0.406482
      3          6           0       -4.806545    2.786787    1.206417
      4          6           0       -9.448219    3.068990   -0.268502
      5          6           0       -9.476609   -1.722166   -0.851076
      6          7           0       -5.134598    0.430808    0.797620
      7          6           0       -4.367078   -0.713784    0.737377
      8          6           0       -2.916931   -0.398206    1.187364
      9          6           0       -2.927515    1.101113    1.637722
     10          6           0       -4.363775    1.493420    1.119583
     11          6           0       -2.907096    1.214209    3.076185
     12          6           0       -1.915946   -0.617834    0.017739
     13          6           0       -0.484458   -0.443567    0.527867
     14          6           0        0.548597   -0.730198   -0.570311
     15          8           0        0.321357   -1.019620   -1.768390
     16          8           0        1.820137   -0.500772   -0.130593
     17          7           0       -7.150763    2.616352    0.344930
     18          6           0       -6.131120    3.372633    0.858335
     19          6           0       -6.451414    4.794528    0.782004
     20          6           0       -7.665984    4.814389    0.310003
     21          6           0       -8.158175    3.480857    0.101949
     22          6           0       -5.470799    5.832937    1.190986
     23          6           0       -8.563182    6.021621    0.082691
     24          6           0       -8.544976    7.117244    0.576489
     25          7           0       -9.173528    0.735224   -0.689383
     26          6           0       -9.978020    1.841539   -0.713032
     27          6           0      -11.330834    1.386798   -1.042471
     28          6           0      -11.281295    0.066033   -1.279699
     29          6           0       -9.935448   -0.403703   -0.898448
     30          6           0      -12.387522    2.310337   -1.236601
     31          6           0      -12.429285   -0.834684   -1.707374
     32          6           0      -12.281697   -1.196755   -3.293838
     33          7           0       -7.205684   -1.391120   -0.148398
     34          6           0       -8.269885   -2.294338   -0.416070
     35          6           0       -7.838600   -3.669996   -0.432916
     36          6           0       -6.470603   -3.579421   -0.180322
     37          6           0       -6.195693   -2.194805    0.143209
     38          6           0       -8.785870   -4.865098   -0.713282
     39          6           0       -5.322919   -4.350480    0.193200
     40          8           0       -5.234597   -5.567230    0.089641
     41          6           0       -4.171710   -3.355499    0.530668
     42          6           0       -3.408986   -3.624044    1.802569
     43          8           0       -3.594836   -3.016610    2.895046
     44          8           0       -2.718322   -4.668079    1.739881
     45          6           0       -2.114403   -5.236938    2.882317
     46          6           0        2.827280   -0.620068   -1.090577
     47          6           0        4.088087   -0.361512   -0.369402
     48          6           0        5.091483    0.395489   -0.836689
     49          6           0        5.092451    1.261825   -2.085761
     50          6           0        6.390158    0.538501   -0.057530
     51          6           0        7.677974   -0.014711   -0.853135
     52          6           0        8.961174    0.087016   -0.032489
     53          6           0       10.247477   -0.331203   -0.886845
     54          6           0       10.148252   -1.870336   -1.200970
     55          6           0       11.522564   -0.072132    0.090027
     56          6           0       12.784241   -0.311219   -0.794889
     57          6           0       13.951464   -0.106032    0.153590
     58          6           0       15.340196   -0.256137   -0.554354
     59          6           0       15.691060   -1.620632   -1.044209
     60          6           0       16.374937    0.331550    0.388261
     61          6           0       17.745242    0.413275   -0.209576
     62          6           0       18.816854    1.141075    0.645312
     63          6           0       20.298829    1.183005    0.204001
     64          6           0       20.427130    1.990388   -1.085901
     65          6           0       21.072029    1.762243    1.317402
     66          1           0       -3.926238    3.468310    1.449567
     67          1           0      -10.196538    4.040261   -0.443186
     68          1           0      -10.278040   -2.326243   -1.012330
     69          1           0       -2.702647   -1.038731    2.139004
     70          1           0       -2.169816    1.660198    0.926639
     71          1           0       -1.959116    1.021974    3.629370
     72          1           0       -3.097328    2.277684    3.345377
     73          1           0       -3.685000    0.651046    3.657762
     74          1           0       -1.860135   -1.671960   -0.190099
     75          1           0       -1.978547    0.077519   -1.014408
     76          1           0       -0.358641    0.407703    0.930801
     77          1           0       -0.208857   -1.295977    1.279550
     78          1           0       -5.848742    6.874342    0.653455
     79          1           0       -5.650505    6.211040    2.193933
     80          1           0       -4.402118    5.577520    0.811225
     81          1           0       -9.443212    5.837889   -0.683262
     82          1           0       -9.237432    8.020511    0.325290
     83          1           0       -7.834552    7.298844    1.484520
     84          1           0      -12.225903    2.959162   -2.036500
     85          1           0      -13.350400    1.841595   -1.475319
     86          1           0      -12.487131    3.279891   -0.503324
     87          1           0      -12.609359   -1.680986   -1.111851
     88          1           0      -13.223357   -0.112660   -1.636089
     89          1           0      -13.149923   -1.798608   -3.571115
     90          1           0      -12.205384   -0.167851   -3.854907
     91          1           0      -11.343665   -1.692085   -3.527063
     92          1           0       -9.379765   -5.001052   -1.724263
     93          1           0       -8.181859   -5.836315   -0.674942
     94          1           0       -9.569629   -4.867961    0.021330
     95          1           0       -3.441769   -3.437631   -0.376404
     96          1           0       -1.544318   -4.576333    3.154620
     97          1           0       -2.813329   -5.328009    3.832906
     98          1           0       -1.510407   -6.262661    2.537919
     99          1           0        2.964769   -1.707864   -1.434771
    100          1           0        2.716191    0.161859   -1.828553
    101          1           0        4.259161   -0.858934    0.599656
    102          1           0        4.113499    1.374870   -2.620541
    103          1           0        5.384880    2.214181   -1.793221
    104          1           0        5.527419    0.964423   -2.905411
    105          1           0        6.167649    1.592543    0.407488
    106          1           0        6.256192   -0.213697    0.840909
    107          1           0        7.431774   -1.058938   -0.947471
    108          1           0        7.859138    0.403609   -1.874459
    109          1           0        9.251151    1.024160    0.362391
    110          1           0        8.733742   -0.528372    0.800981
    111          1           0       10.276109    0.263041   -1.735069
    112          1           0        9.155313   -2.228498   -1.919334
    113          1           0       11.138750   -2.109846   -1.891924
    114          1           0       10.059576   -2.490049   -0.305115
    115          1           0       11.354233    0.961948    0.376690
    116          1           0       11.306700   -0.629791    0.979036
    117          1           0       12.997583   -1.345607   -1.112759
    118          1           0       12.694267    0.349439   -1.662623
    119          1           0       14.016949    0.918440    0.710783
    120          1           0       13.968621   -0.662541    1.088386
    121          1           0       15.065932    0.357700   -1.501889
    122          1           0       16.100035   -2.268372   -0.270747
    123          1           0       14.864069   -2.052539   -1.429938
    124          1           0       16.744887   -1.446973   -1.441981
    125          1           0       16.015157    1.395635    0.550386
    126          1           0       16.361572   -0.446958    1.264902
    127          1           0       18.067196   -0.612198   -0.620377
    128          1           0       17.790066    0.956608   -1.252423
    129          1           0       18.435002    2.266025    0.845776
    130          1           0       18.727823    0.647937    1.744119
    131          1           0       20.730963    0.214829   -0.152122
    132          1           0       19.957108    3.041557   -0.961378
    133          1           0       21.485204    2.445903   -1.361392
    134          1           0       20.157369    1.414476   -2.063648
    135          1           0       21.243433    1.033334    2.115099
    136          1           0       22.048125    1.801448    0.895475
    137          1           0       20.715941    2.798254    1.688650
 ---------------------------------------------------------------------

 SCF Done:  E(RCAM-B3LYP) =  -2933.47676113     A.U. after   15 cycles

 Excitation energies and oscillator strengths:

 Excited State   1:      Singlet-A      2.0640 eV  600.71 nm  f=0.2578  <S**2>=0.000
     240 -> 243       -0.24932
     241 -> 242        0.65524
 This state for optimization and/or second-order correction.
 Total Energy, E(TD-HF/TD-DFT) =  -2933.40091209
 Copying the excited state density for this state as the 1-particle RhoCI density.

 The electronic state is 1-A.
 Alpha  occ. eigenvalues --  -46.80647 -19.23694 -19.21882 -19.16520 -19.15459
 Alpha  occ. eigenvalues --  -19.15263 -14.37346 -14.35382 -14.35353 -14.34757
 Alpha  occ. eigenvalues --  -10.34679 -10.34676 -10.29946 -10.28083 -10.26778
 Alpha  occ. eigenvalues --  -10.26186 -10.25899 -10.25699 -10.24949 -10.24942
 Alpha  occ. eigenvalues --  -10.24683 -10.24677 -10.24572 -10.24181 -10.24071
 Alpha  occ. eigenvalues --  -10.24044 -10.23838 -10.23557 -10.23311 -10.23099
 Alpha  occ. eigenvalues --  -10.23077 -10.23015 -10.23012 -10.22703 -10.22667
 Alpha  occ. eigenvalues --  -10.22179 -10.22168 -10.22101 -10.22076 -10.22065
 Alpha  occ. eigenvalues --  -10.22059 -10.21949 -10.21943 -10.21924 -10.21921
 Alpha  occ. eigenvalues --  -10.21917 -10.21868 -10.21694 -10.21683 -10.21649
 Alpha  occ. eigenvalues --  -10.21557 -10.21518 -10.21501 -10.21394 -10.21298
 Alpha  occ. eigenvalues --  -10.21293 -10.21120 -10.20905 -10.20903 -10.20421
 Alpha  occ. eigenvalues --  -10.20402 -10.20008 -10.19846 -10.19714 -10.19198
 Alpha  occ. eigenvalues --   -3.09088  -1.84036  -1.83527  -1.83516  -1.17165
 Alpha  occ. eigenvalues --   -1.12839  -1.05219  -1.02751  -1.01927  -0.99454
 Alpha  occ. eigenvalues --   -0.98933  -0.97770  -0.96900  -0.87419  -0.85715
 Alpha  occ. eigenvalues --   -0.85489  -0.85110  -0.84872  -0.84116  -0.83711
 Alpha  occ. eigenvalues --   -0.83288  -0.83189  -0.82434  -0.81871  -0.81297
 Alpha  occ. eigenvalues --   -0.80741  -0.80151  -0.79820  -0.78284  -0.77835
 Alpha  occ. eigenvalues --   -0.77290  -0.76669  -0.75366  -0.74843  -0.73342
 Alpha  occ. eigenvalues --   -0.73212  -0.72654  -0.71885  -0.71724  -0.70852
 Alpha  occ. eigenvalues --   -0.70465  -0.70232  -0.68877  -0.68406  -0.67789
 Alpha  occ. eigenvalues --   -0.66589  -0.65690  -0.65367  -0.64347  -0.63934
 Alpha  occ. eigenvalues --   -0.61963  -0.61794  -0.61064  -0.60720  -0.60607
 Alpha  occ. eigenvalues --   -0.59638  -0.59537  -0.58559  -0.58277  -0.57770
 Alpha  occ. eigenvalues --   -0.57382  -0.56482  -0.56330  -0.55529  -0.55064
 Alpha  occ. eigenvalues --   -0.54758  -0.54215  -0.53918  -0.53777  -0.53076
 Alpha  occ. eigenvalues --   -0.52463  -0.52325  -0.51551  -0.51247  -0.50788
 Alpha  occ. eigenvalues --   -0.50758  -0.50166  -0.49978  -0.49882  -0.49295
 Alpha  occ. eigenvalues --   -0.49274  -0.48853  -0.48223  -0.48150  -0.47702
 Alpha  occ. eigenvalues --   -0.47606  -0.47517  -0.47030  -0.46863  -0.46638
 Alpha  occ. eigenvalues --   -0.46530  -0.46462  -0.46014  -0.45701  -0.45450
 Alpha  occ. eigenvalues --   -0.45325  -0.45027  -0.44811  -0.44589  -0.44482
 Alpha  occ. eigenvalues --   -0.44291  -0.44066  -0.43886  -0.43695  -0.43493
 Alpha  occ. eigenvalues --   -0.43303  -0.42914  -0.42848  -0.42700  -0.42433
 Alpha  occ. eigenvalues --   -0.42387  -0.41854  -0.41628  -0.41276  -0.41067
 Alpha  occ. eigenvalues --   -0.40966  -0.40769  -0.40638  -0.40543  -0.40490
 Alpha  occ. eigenvalues --   -0.40317  -0.40231  -0.39846  -0.39622  -0.39589
 Alpha  occ. eigenvalues --   -0.39428  -0.39123  -0.39035  -0.38833  -0.38677
 Alpha  occ. eigenvalues --   -0.38531  -0.38473  -0.38283  -0.38121  -0.38068
 Alpha  occ. eigenvalues --   -0.37984  -0.37645  -0.37610  -0.37368  -0.37019
 Alpha  occ. eigenvalues --   -0.36870  -0.36645  -0.36385  -0.36056  -0.35966
 Alpha  occ. eigenvalues --   -0.35339  -0.35197  -0.35021  -0.34570  -0.34416
 Alpha  occ. eigenvalues --   -0.34217  -0.33956  -0.33887  -0.33560  -0.33520
 Alpha  occ. eigenvalues --   -0.33095  -0.32900  -0.32667  -0.32416  -0.32240
 Alpha  occ. eigenvalues --   -0.31928  -0.31653  -0.31370  -0.30365  -0.29835
 Alpha  occ. eigenvalues --   -0.29563  -0.29155  -0.28675  -0.28652  -0.27456
 Alpha  occ. eigenvalues --   -0.26754  -0.26501  -0.26306  -0.25251  -0.21313
 Alpha  occ. eigenvalues --   -0.20033
 Alpha virt. eigenvalues --   -0.07002  -0.03409   0.00270   0.03018   0.03479
 Alpha virt. eigenvalues --    0.03921   0.04322   0.05720   0.05938   0.06108
 Alpha virt. eigenvalues --    0.06893   0.08952   0.09432   0.09761   0.09806

 Mulliken charges:
               1
     1  Mg   0.825281
     2  C    0.045154
     3  C   -0.201613
     4  C   -0.172446
     5  C   -0.158296
     6  N   -0.626693
     7  C    0.309967
     8  C   -0.181104
     9  C   -0.118269
    10  C    0.315966
    11  C   -0.316225
    12  C   -0.166337
    13  C   -0.240826
    14  C    0.582769
    15  O   -0.486728
    16  O   -0.456572
    17  N   -0.685137
    18  C    0.262618
    19  C    0.061772
    20  C    0.008464
    21  C    0.324304
    22  C   -0.386025
    23  C    0.005744
    24  C   -0.272546
    25  N   -0.673419
    26  C    0.286588
    27  C    0.081015
    28  C    0.020969
    29  C    0.278035
    30  C   -0.414700
    31  C   -0.246575
    32  C   -0.317097
    33  N   -0.715227
    34  C    0.256992
    35  C    0.050221
    36  C   -0.021048
    37  C    0.323587
    38  C   -0.385755
    39  C    0.370951
    40  O   -0.468637
    41  C   -0.299527
    42  C    0.586678
    43  O   -0.525529
    44  O   -0.367072
    45  C   -0.072034
    46  C    0.040139
    47  C   -0.140589
    48  C    0.106160
    49  C   -0.362709
    50  C   -0.233479
    51  C   -0.178821
    52  C   -0.170652
    53  C   -0.074595
    54  C   -0.282480
    55  C   -0.180749
    56  C   -0.175987
    57  C   -0.178464
    58  C   -0.050945
    59  C   -0.306484
    60  C   -0.155295
    61  C   -0.184044
    62  C   -0.138733
    63  C   -0.046178
    64  C   -0.305372
    65  C   -0.298637
    66  H    0.070114
    67  H    0.057805
    68  H    0.066215
    69  H    0.137342
    70  H    0.096482
    71  H    0.106696
    72  H    0.102846
    73  H    0.137033
    74  H    0.112152
    75  H    0.107972
    76  H    0.135813
    77  H    0.120420
    78  H    0.094769
    79  H    0.140955
    80  H    0.120553
    81  H    0.070163
    82  H    0.098831
    83  H    0.076972
    84  H    0.139631
    85  H    0.111556
    86  H    0.096625
    87  H    0.115598
    88  H    0.102630
    89  H    0.109221
    90  H    0.098080
    91  H    0.120874
    92  H    0.113331
    93  H    0.141856
    94  H    0.135365
    95  H    0.157212
    96  H    0.138744
    97  H    0.130216
    98  H    0.117649
    99  H    0.118371
   100  H    0.114209
   101  H    0.080777
   102  H    0.090468
   103  H    0.119286
   104  H    0.135007
   105  H    0.099361
   106  H    0.075912
   107  H    0.114613
   108  H    0.091755
   109  H    0.089060
   110  H    0.089865
   111  H    0.091640
   112  H    0.061860
   113  H    0.075407
   114  H    0.111575
   115  H    0.098779
   116  H    0.102590
   117  H    0.105609
   118  H    0.102420
   119  H    0.063555
   120  H    0.088227
   121  H    0.066445
   122  H    0.093140
   123  H    0.103629
   124  H    0.101644
   125  H    0.092290
   126  H    0.086034
   127  H    0.076031
   128  H    0.082256
   129  H    0.070324
   130  H    0.061781
   131  H    0.089805
   132  H    0.089271
   133  H    0.079537
   134  H    0.098851
   135  H    0.105515
   136  H    0.100817
   137  H    0.096843
 Sum of Mulliken charges =  -0.00000

 Dipole moment (field-independent basis, Debye):
    X=              2.3061    Y=              3.3413    Z=              0.7243  Tot=              4.1240
 Quadrupole moment (field-independent basis, Debye-Ang):
   XX=           -340.7138   YY=           -389.8497   ZZ=           -399.4519
   XY=            -19.0312   XZ=             12.9362   YZ=             -6.4942

 Normal termination of Gaussian 16 at Mon Sep 23 03:08:18 2019.
