 Gaussian 09, Revision D.01,
 Gaussian 09:  ES64L-G09RevD.01 24-Apr-2013

 -------------------------------------
 # td=(NStates=1) CAM-B3LYP/6-31G(d,p)
 -------------------------------------

 --
 TD
 --
 Symbolic Z-matrix:
 Charge =  0 Multiplicity = 1

                         Standard orientation:
 ---------------------------------------------------------------------
 Center     Atomic      Atomic             Coordinates (Angstroms)
 Number     Number       Type             X           Y           Z
 ---------------------------------------------------------------------
      1         12           0       -7.094277    0.643643    0.002070
      2          6           0       -4.995368   -1.915358    0.562676
      3          6           0       -4.843592    2.886124    1.123303
      4          6           0       -9.383995    3.081183   -0.334421
      5          6           0       -9.450056   -1.819622   -0.957807
      6          7           0       -5.092363    0.500942    0.674441
      7          6           0       -4.339355   -0.732585    0.807179
      8          6           0       -2.936347   -0.376874    1.331883
      9          6           0       -3.016058    1.119459    1.734329
     10          6           0       -4.401311    1.535615    1.163580
     11          6           0       -3.084950    1.352528    3.247515
     12          6           0       -1.958365   -0.542041    0.219452
     13          6           0       -0.495873   -0.549270    0.710704
     14          6           0        0.597907   -0.628594   -0.415654
     15          8           0        0.206042   -0.993056   -1.498621
     16          8           0        1.852529   -0.425788    0.094236
     17          7           0       -7.114566    2.666570    0.313804
     18          6           0       -6.126066    3.462513    0.768172
     19          6           0       -6.449221    4.789767    0.756185
     20          6           0       -7.828849    4.873693    0.352884
     21          6           0       -8.212065    3.490735    0.048637
     22          6           0       -5.634236    5.953113    1.142277
     23          6           0       -8.606135    5.999371    0.116966
     24          6           0       -8.701326    7.290096    0.728285
     25          7           0       -9.114109    0.689630   -0.578898
     26          6           0       -9.929214    1.813595   -0.701677
     27          6           0      -11.195614    1.413223   -1.208922
     28          6           0      -11.126497   -0.053355   -1.371868
     29          6           0       -9.872550   -0.506563   -1.025183
     30          6           0      -12.311452    2.329645   -1.439794
     31          6           0      -12.262459   -0.841962   -1.920488
     32          6           0      -12.119291   -1.164596   -3.484168
     33          7           0       -7.234534   -1.389797   -0.146455
     34          6           0       -8.312757   -2.248173   -0.594490
     35          6           0       -7.771082   -3.646966   -0.450531
     36          6           0       -6.395745   -3.517598   -0.126251
     37          6           0       -6.142993   -2.110599    0.054031
     38          6           0       -8.521819   -4.924047   -0.679026
     39          6           0       -5.270932   -4.349805    0.215563
     40          8           0       -5.036930   -5.519955    0.340465
     41          6           0       -4.189420   -3.275864    0.574528
     42          6           0       -3.629273   -3.623827    1.860540
     43          8           0       -3.889307   -3.113498    2.954379
     44          8           0       -2.792607   -4.692200    1.782904
     45          6           0       -2.251726   -5.254269    3.100980
     46          6           0        2.875174   -0.735203   -1.064596
     47          6           0        4.228369   -0.532598   -0.473375
     48          6           0        5.130468    0.253221   -1.009223
     49          6           0        4.889883    1.187556   -2.228782
     50          6           0        6.441046    0.309716   -0.358015
     51          6           0        7.647159   -0.257817   -1.082584
     52          6           0        8.959138   -0.208488   -0.310975
     53          6           0       10.175830   -0.539011   -1.095550
     54          6           0       10.310817   -2.065956   -1.576517
     55          6           0       11.470913   -0.306011   -0.177737
     56          6           0       12.908936   -0.623649   -0.680648
     57          6           0       14.023309   -0.139755    0.230125
     58          6           0       15.387645   -0.142147   -0.521175
     59          6           0       15.842600   -1.634379   -0.925783
     60          6           0       16.442126    0.556208    0.471452
     61          6           0       17.855856    0.588798   -0.155903
     62          6           0       18.826654    1.311645    0.779190
     63          6           0       20.228330    1.393215    0.244489
     64          6           0       20.242073    2.172124   -1.038154
     65          6           0       21.060767    2.144669    1.314602
     66          1           0       -4.167010    3.679988    1.602901
     67          1           0      -10.042996    3.842711   -0.487900
     68          1           0      -10.317621   -2.506749   -1.387220
     69          1           0       -2.783183   -1.000111    2.270429
     70          1           0       -2.290098    1.614162    1.288178
     71          1           0       -2.176545    1.077605    3.729827
     72          1           0       -3.224496    2.510494    3.506137
     73          1           0       -3.933916    0.979594    3.766851
     74          1           0       -2.191137   -1.481505   -0.163017
     75          1           0       -2.044518    0.183273   -0.487229
     76          1           0       -0.252703    0.433765    1.052283
     77          1           0       -0.284195   -1.338817    1.479114
     78          1           0       -6.194792    6.830415    0.652829
     79          1           0       -5.597236    6.228378    2.156819
     80          1           0       -4.613206    5.904223    0.596288
     81          1           0       -9.514699    6.189833   -0.560463
     82          1           0       -9.484311    8.039902    0.635587
     83          1           0       -7.866362    7.185368    1.425608
     84          1           0      -11.942982    3.178218   -2.027677
     85          1           0      -12.996611    1.988123   -2.025938
     86          1           0      -12.599147    2.725624   -0.403709
     87          1           0      -12.414922   -1.866268   -1.472605
     88          1           0      -13.116887   -0.340079   -1.480592
     89          1           0      -13.107905   -1.609766   -3.905768
     90          1           0      -11.913965   -0.227289   -3.950013
     91          1           0      -11.181972   -1.783032   -3.572935
     92          1           0       -8.851715   -5.082667   -1.790148
     93          1           0       -7.936102   -5.686664   -0.230749
     94          1           0       -9.378842   -4.982666    0.093798
     95          1           0       -3.306090   -3.359475   -0.200167
     96          1           0       -1.528759   -4.734945    3.726421
     97          1           0       -3.127791   -5.444448    3.742314
     98          1           0       -2.029675   -6.359498    2.799079
     99          1           0        2.646639   -1.873941   -0.935717
    100          1           0        2.680665   -0.191250   -1.912056
    101          1           0        4.454425   -1.126828    0.380562
    102          1           0        3.863471    0.921625   -2.835264
    103          1           0        4.891709    2.365880   -1.926730
    104          1           0        5.523684    0.873697   -3.046147
    105          1           0        6.679923    1.355123   -0.003821
    106          1           0        6.223296   -0.325790    0.635840
    107          1           0        7.402207   -1.238804   -1.308335
    108          1           0        7.594125    0.379647   -2.070096
    109          1           0        9.261706    0.812595    0.005282
    110          1           0        8.741118   -0.773854    0.606082
    111          1           0       10.151483    0.158123   -2.033564
    112          1           0        9.349602   -2.492489   -2.043411
    113          1           0       11.179226   -2.374006   -2.193448
    114          1           0       10.098244   -2.646852   -0.710584
    115          1           0       11.237814    0.753173    0.153651
    116          1           0       11.369950   -0.818690    0.679186
    117          1           0       13.111024   -1.761046   -0.930264
    118          1           0       12.968594   -0.196203   -1.784512
    119          1           0       13.916503    1.055516    0.333421
    120          1           0       14.159657   -0.413387    1.419580
    121          1           0       15.197218    0.374868   -1.361013
    122          1           0       16.140336   -2.122118    0.125660
    123          1           0       15.185303   -2.238913   -1.588538
    124          1           0       16.847448   -1.739989   -1.080091
    125          1           0       16.094167    1.581598    0.789465
    126          1           0       16.573104   -0.179355    1.427557
    127          1           0       18.330513   -0.390394   -0.271004
    128          1           0       17.718407    0.825005   -1.321463
    129          1           0       18.528882    2.263029    1.120120
    130          1           0       18.694249    0.632061    1.758256
    131          1           0       20.625351    0.320020    0.049990
    132          1           0       19.750637    3.228827   -0.939578
    133          1           0       21.129815    2.194722   -1.526000
    134          1           0       19.505576    1.720058   -1.690987
    135          1           0       21.345493    1.464392    2.248081
    136          1           0       22.161711    2.476771    1.038111
    137          1           0       20.707559    3.075335    1.610081
 ---------------------------------------------------------------------

 SCF Done:  E(RCAM-B3LYP) =  -2932.62702062     A.U. after   16 cycles

 Excitation energies and oscillator strengths:

 Excited State   1:      Singlet-A      2.2092 eV  561.22 nm  f=0.1194  <S**2>=0.000
     240 -> 243       -0.34127
     241 -> 242        0.60522
 This state for optimization and/or second-order correction.
 Total Energy, E(TD-HF/TD-KS) =  -2932.54583384
 Copying the excited state density for this state as the 1-particle RhoCI density.

 The electronic state is 1-A.
 Alpha  occ. eigenvalues --  -46.83397 -19.26281 -19.25446 -19.20839 -19.20728
 Alpha  occ. eigenvalues --  -19.19531 -14.41236 -14.39170 -14.38509 -14.37495
 Alpha  occ. eigenvalues --  -10.38737 -10.38163 -10.35253 -10.32586 -10.32035
 Alpha  occ. eigenvalues --  -10.31552 -10.30890 -10.30068 -10.29264 -10.29205
 Alpha  occ. eigenvalues --  -10.28747 -10.28486 -10.28323 -10.28223 -10.28169
 Alpha  occ. eigenvalues --  -10.28020 -10.27961 -10.27633 -10.27624 -10.27479
 Alpha  occ. eigenvalues --  -10.27398 -10.27285 -10.27268 -10.27237 -10.27167
 Alpha  occ. eigenvalues --  -10.27146 -10.27079 -10.26978 -10.26738 -10.26645
 Alpha  occ. eigenvalues --  -10.26625 -10.26516 -10.26322 -10.26161 -10.26098
 Alpha  occ. eigenvalues --  -10.26046 -10.26022 -10.25949 -10.25924 -10.25922
 Alpha  occ. eigenvalues --  -10.25908 -10.25811 -10.25679 -10.25633 -10.25464
 Alpha  occ. eigenvalues --  -10.25412 -10.25319 -10.25238 -10.25083 -10.25010
 Alpha  occ. eigenvalues --  -10.24984 -10.24954 -10.24806 -10.24205 -10.23697
 Alpha  occ. eigenvalues --   -3.12344  -1.87064  -1.86576  -1.86511  -1.15959
 Alpha  occ. eigenvalues --   -1.15679  -1.12277  -1.08733  -1.06265  -1.03811
 Alpha  occ. eigenvalues --   -1.03316  -1.01879  -0.98689  -0.93616  -0.92615
 Alpha  occ. eigenvalues --   -0.90463  -0.90403  -0.89910  -0.89443  -0.89190
 Alpha  occ. eigenvalues --   -0.88206  -0.87760  -0.87316  -0.86329  -0.85575
 Alpha  occ. eigenvalues --   -0.85160  -0.83743  -0.83609  -0.82974  -0.82638
 Alpha  occ. eigenvalues --   -0.81534  -0.80929  -0.79966  -0.79387  -0.78418
 Alpha  occ. eigenvalues --   -0.77550  -0.76775  -0.76645  -0.76045  -0.75831
 Alpha  occ. eigenvalues --   -0.75355  -0.74771  -0.74339  -0.73237  -0.72374
 Alpha  occ. eigenvalues --   -0.72251  -0.71145  -0.69541  -0.69272  -0.68928
 Alpha  occ. eigenvalues --   -0.67415  -0.66652  -0.65648  -0.65344  -0.64237
 Alpha  occ. eigenvalues --   -0.63248  -0.63234  -0.63069  -0.62646  -0.62576
 Alpha  occ. eigenvalues --   -0.61004  -0.60278  -0.60082  -0.59691  -0.58942
 Alpha  occ. eigenvalues --   -0.58590  -0.57521  -0.56965  -0.56793  -0.56558
 Alpha  occ. eigenvalues --   -0.55703  -0.55343  -0.54903  -0.54785  -0.54270
 Alpha  occ. eigenvalues --   -0.54194  -0.53890  -0.53277  -0.52904  -0.52776
 Alpha  occ. eigenvalues --   -0.52574  -0.52319  -0.52015  -0.51650  -0.51489
 Alpha  occ. eigenvalues --   -0.51347  -0.51315  -0.50958  -0.50648  -0.50599
 Alpha  occ. eigenvalues --   -0.50503  -0.50460  -0.50286  -0.49613  -0.49596
 Alpha  occ. eigenvalues --   -0.49340  -0.49200  -0.48801  -0.48330  -0.48214
 Alpha  occ. eigenvalues --   -0.48081  -0.47860  -0.47685  -0.47453  -0.47290
 Alpha  occ. eigenvalues --   -0.47053  -0.46828  -0.46520  -0.46279  -0.45812
 Alpha  occ. eigenvalues --   -0.45799  -0.45448  -0.45247  -0.44861  -0.44740
 Alpha  occ. eigenvalues --   -0.44541  -0.44331  -0.44298  -0.43990  -0.43726
 Alpha  occ. eigenvalues --   -0.43567  -0.43464  -0.43253  -0.43048  -0.42934
 Alpha  occ. eigenvalues --   -0.42772  -0.42681  -0.42522  -0.42278  -0.41933
 Alpha  occ. eigenvalues --   -0.41866  -0.41808  -0.41548  -0.41472  -0.41155
 Alpha  occ. eigenvalues --   -0.40818  -0.40580  -0.40469  -0.40283  -0.40244
 Alpha  occ. eigenvalues --   -0.39833  -0.39770  -0.39521  -0.39203  -0.38928
 Alpha  occ. eigenvalues --   -0.38494  -0.38366  -0.37941  -0.37832  -0.37664
 Alpha  occ. eigenvalues --   -0.37409  -0.37338  -0.37271  -0.37065  -0.36565
 Alpha  occ. eigenvalues --   -0.36344  -0.35952  -0.35845  -0.35510  -0.35286
 Alpha  occ. eigenvalues --   -0.35135  -0.34835  -0.34429  -0.33426  -0.33022
 Alpha  occ. eigenvalues --   -0.32749  -0.32447  -0.32137  -0.30921  -0.30565
 Alpha  occ. eigenvalues --   -0.30132  -0.29625  -0.26533  -0.25139  -0.22972
 Alpha  occ. eigenvalues --   -0.21760
 Alpha virt. eigenvalues --   -0.05799  -0.04336   0.00698   0.03699   0.04572
 Alpha virt. eigenvalues --    0.05942   0.06363   0.07411   0.07845   0.08115
 Alpha virt. eigenvalues --    0.08682   0.11120   0.11431   0.11472   0.11649

 Mulliken charges:
               1
     1  Mg   0.799320
     2  C    0.065443
     3  C   -0.227266
     4  C   -0.162025
     5  C   -0.192431
     6  N   -0.631181
     7  C    0.260601
     8  C   -0.167555
     9  C   -0.105132
    10  C    0.336881
    11  C   -0.316176
    12  C   -0.152044
    13  C   -0.269352
    14  C    0.597723
    15  O   -0.464501
    16  O   -0.508663
    17  N   -0.734375
    18  C    0.345433
    19  C    0.031746
    20  C    0.070873
    21  C    0.338604
    22  C   -0.387028
    23  C   -0.171325
    24  C   -0.248123
    25  N   -0.709013
    26  C    0.312623
    27  C   -0.007885
    28  C   -0.002956
    29  C    0.270849
    30  C   -0.356734
    31  C   -0.257511
    32  C   -0.301084
    33  N   -0.751749
    34  C    0.310596
    35  C    0.026314
    36  C   -0.012879
    37  C    0.375406
    38  C   -0.380157
    39  C    0.377916
    40  O   -0.446270
    41  C   -0.345795
    42  C    0.647477
    43  O   -0.503889
    44  O   -0.476074
    45  C   -0.095520
    46  C    0.004100
    47  C   -0.116168
    48  C    0.149779
    49  C   -0.362145
    50  C   -0.238788
    51  C   -0.162216
    52  C   -0.165571
    53  C   -0.063831
    54  C   -0.320756
    55  C   -0.166638
    56  C   -0.187875
    57  C   -0.153515
    58  C   -0.045482
    59  C   -0.324867
    60  C   -0.179985
    61  C   -0.182731
    62  C   -0.152249
    63  C   -0.054412
    64  C   -0.295763
    65  C   -0.305996
    66  H    0.068607
    67  H    0.070235
    68  H    0.105308
    69  H    0.140471
    70  H    0.107926
    71  H    0.113280
    72  H    0.085156
    73  H    0.136785
    74  H    0.116771
    75  H    0.121590
    76  H    0.121227
    77  H    0.127460
    78  H    0.111786
    79  H    0.139227
    80  H    0.112101
    81  H    0.098429
    82  H    0.131222
    83  H    0.093797
    84  H    0.112816
    85  H    0.116493
    86  H    0.117687
    87  H    0.090263
    88  H    0.106147
    89  H    0.098221
    90  H    0.120056
    91  H    0.106975
    92  H    0.131599
    93  H    0.154776
    94  H    0.121700
    95  H    0.164723
    96  H    0.139577
    97  H    0.142398
    98  H    0.127238
    99  H    0.134686
   100  H    0.135739
   101  H    0.099885
   102  H    0.086329
   103  H    0.120435
   104  H    0.137016
   105  H    0.097808
   106  H    0.071768
   107  H    0.109565
   108  H    0.076926
   109  H    0.092092
   110  H    0.096042
   111  H    0.076078
   112  H    0.074450
   113  H    0.111148
   114  H    0.106296
   115  H    0.075686
   116  H    0.110099
   117  H    0.091203
   118  H    0.081194
   119  H    0.065629
   120  H    0.081421
   121  H    0.101447
   122  H    0.069159
   123  H    0.110393
   124  H    0.112762
   125  H    0.098115
   126  H    0.072955
   127  H    0.098612
   128  H    0.079230
   129  H    0.096980
   130  H    0.073145
   131  H    0.078081
   132  H    0.082271
   133  H    0.112524
   134  H    0.101604
   135  H    0.082881
   136  H    0.073468
   137  H    0.114829
 Sum of Mulliken charges =   0.00000

 Dipole moment (field-independent basis, Debye):
    X=              3.3888    Y=              3.0832    Z=             -0.3704  Tot=              4.5964
 Quadrupole moment (field-independent basis, Debye-Ang):
   XX=           -353.4193   YY=           -386.0101   ZZ=           -395.7970
   XY=            -16.4238   XZ=              8.5041   YZ=             -1.9255

 Normal termination of Gaussian 09 at Tue Jul  2 11:13:46 2019.
