 Gaussian 16, Revision A.03,
 Gaussian 16:  ES64L-G16RevA.03 25-Dec-2016

 ----------------------------------------------------------------------
 # td=(NStates=1) iop(3/107=0140000000,3/108=0140000000) CAM-B3LYP/6-31
 G(d,p)
 ----------------------------------------------------------------------

 --
 TD
 --
 Symbolic Z-matrix:
 Charge =  0 Multiplicity = 1

                         Standard orientation:
 ---------------------------------------------------------------------
 Center     Atomic      Atomic             Coordinates (Angstroms)
 Number     Number       Type             X           Y           Z
 ---------------------------------------------------------------------
      1         12           0       -7.148905    0.592838    0.111316
      2          6           0       -4.883673   -1.915576    0.467178
      3          6           0       -4.787974    2.830696    1.134483
      4          6           0       -9.306108    3.127617   -0.433622
      5          6           0       -9.679172   -1.773208   -0.722983
      6          7           0       -5.101606    0.397799    0.830626
      7          6           0       -4.392482   -0.689085    0.833525
      8          6           0       -2.874084   -0.351548    1.193427
      9          6           0       -2.994565    1.016588    1.681820
     10          6           0       -4.397671    1.503808    1.182784
     11          6           0       -2.947982    1.342541    3.299345
     12          6           0       -1.943884   -0.662417   -0.023087
     13          6           0       -0.476508   -0.548795    0.494205
     14          6           0        0.593875   -0.726592   -0.642520
     15          8           0        0.250727   -1.037482   -1.741286
     16          8           0        1.816773   -0.464873   -0.211600
     17          7           0       -7.057638    2.647109    0.297037
     18          6           0       -5.965294    3.403821    0.824408
     19          6           0       -6.430207    4.764363    0.831697
     20          6           0       -7.721563    4.814899    0.373911
     21          6           0       -8.104499    3.481155    0.007656
     22          6           0       -5.499443    5.903491    1.250230
     23          6           0       -8.595003    6.038910    0.068166
     24          6           0       -8.367389    7.262128    0.603939
     25          7           0       -9.083975    0.641499   -0.489354
     26          6           0       -9.884807    1.785044   -0.620074
     27          6           0      -11.082203    1.527444   -1.185502
     28          6           0      -11.171582    0.095178   -1.226140
     29          6           0       -9.902682   -0.340712   -0.825716
     30          6           0      -12.202198    2.533244   -1.575434
     31          6           0      -12.313445   -0.765094   -1.785535
     32          6           0      -12.143054   -1.177509   -3.203535
     33          7           0       -7.277912   -1.351586   -0.230494
     34          6           0       -8.380196   -2.223783   -0.534371
     35          6           0       -7.918019   -3.558662   -0.486958
     36          6           0       -6.550885   -3.502607   -0.152609
     37          6           0       -6.171660   -2.137117    0.067107
     38          6           0       -8.681436   -4.760975   -0.798589
     39          6           0       -5.453827   -4.391465    0.195744
     40          8           0       -5.169985   -5.588679    0.211224
     41          6           0       -4.197898   -3.298392    0.524043
     42          6           0       -3.806824   -3.686516    1.981515
     43          8           0       -3.968911   -3.064290    2.938590
     44          8           0       -2.844539   -4.620448    1.826161
     45          6           0       -2.420925   -5.178133    3.059652
     46          6           0        2.776213   -0.745588   -1.241624
     47          6           0        4.118192   -0.493134   -0.670187
     48          6           0        5.133090    0.308635   -0.971419
     49          6           0        5.125155    1.105461   -2.176776
     50          6           0        6.418962    0.345583   -0.105220
     51          6           0        7.602948   -0.189825   -0.806921
     52          6           0        8.989066   -0.120781   -0.085290
     53          6           0       10.247303   -0.491948   -0.849940
     54          6           0       10.130484   -1.948443   -1.454037
     55          6           0       11.435278   -0.330521   -0.015276
     56          6           0       12.737402   -0.556922   -0.659943
     57          6           0       13.994994   -0.135239    0.213139
     58          6           0       15.347147   -0.163667   -0.430001
     59          6           0       15.657431   -1.618764   -0.775439
     60          6           0       16.493595    0.574739    0.349264
     61          6           0       17.870455    0.574510   -0.255724
     62          6           0       18.850372    1.221927    0.669887
     63          6           0       20.268170    1.200762    0.232320
     64          6           0       20.494026    1.855115   -1.134770
     65          6           0       21.221553    2.076268    1.267802
     66          1           0       -3.972006    3.551881    1.434642
     67          1           0       -9.929713    3.958987   -0.743951
     68          1           0      -10.238408   -2.508854   -1.223571
     69          1           0       -2.545565   -1.161834    1.915436
     70          1           0       -2.124192    1.661412    1.389679
     71          1           0       -1.947945    0.999308    3.752411
     72          1           0       -2.985122    2.463266    3.405007
     73          1           0       -3.767349    0.740305    3.792133
     74          1           0       -2.181982   -1.751799   -0.378291
     75          1           0       -2.291685   -0.045845   -0.743193
     76          1           0       -0.227308    0.398760    0.970928
     77          1           0       -0.244817   -1.448482    1.198811
     78          1           0       -5.418062    6.928214    0.534732
     79          1           0       -5.990685    6.323670    2.378079
     80          1           0       -4.484201    5.678104    1.332960
     81          1           0       -9.318284    5.918341   -0.612585
     82          1           0       -9.029835    8.017765    0.199032
     83          1           0       -7.567923    7.517376    1.545945
     84          1           0      -11.963303    3.020560   -2.508155
     85          1           0      -13.131701    2.091448   -1.874315
     86          1           0      -12.282754    3.355442   -0.908158
     87          1           0      -12.368691   -1.780357   -1.404856
     88          1           0      -13.388768   -0.286535   -1.808243
     89          1           0      -13.024546   -1.708220   -3.369457
     90          1           0      -12.170438   -0.251501   -3.852312
     91          1           0      -11.417381   -1.976166   -3.380543
     92          1           0       -9.264001   -4.677588   -1.820132
     93          1           0       -8.285548   -5.906050   -0.873846
     94          1           0       -9.481371   -4.861599   -0.290465
     95          1           0       -3.326620   -3.337361   -0.190340
     96          1           0       -2.140022   -4.144433    3.755924
     97          1           0       -3.300117   -5.652754    3.575690
     98          1           0       -1.624503   -5.902662    2.743699
     99          1           0        2.708317   -1.663184   -1.605576
    100          1           0        2.294646   -0.221395   -2.055618
    101          1           0        4.149683   -0.882703    0.335509
    102          1           0        4.023731    1.403719   -2.683443
    103          1           0        5.532331    2.138558   -2.026679
    104          1           0        6.018356    0.691253   -2.791090
    105          1           0        6.659325    1.459545    0.039163
    106          1           0        6.390581   -0.341138    0.814647
    107          1           0        7.624250   -1.243983   -1.076341
    108          1           0        7.758275    0.270644   -1.872404
    109          1           0        9.266822    0.891929    0.554819
    110          1           0        8.856729   -0.677396    0.783379
    111          1           0       10.138115    0.238193   -1.745480
    112          1           0        9.291022   -1.903795   -2.329725
    113          1           0       10.995068   -2.237391   -1.957482
    114          1           0        9.624285   -2.837352   -0.581890
    115          1           0       11.574083    0.651602    0.388710
    116          1           0       11.274089   -1.066587    0.929280
    117          1           0       12.617110   -1.574768   -1.083370
    118          1           0       12.814718    0.010208   -1.461038
    119          1           0       13.858034    0.885097    0.634205
    120          1           0       13.745341   -0.723971    1.151973
    121          1           0       15.304029    0.308768   -1.445635
    122          1           0       15.794146   -2.119666    0.132188
    123          1           0       14.941404   -2.248290   -1.351585
    124          1           0       16.589226   -1.661045   -1.282468
    125          1           0       16.155371    1.612378    0.630162
    126          1           0       16.708291    0.219483    1.450003
    127          1           0       18.201797   -0.329700   -0.457837
    128          1           0       17.867674    1.338660   -1.218069
    129          1           0       18.494800    2.280616    0.835563
    130          1           0       18.897076    0.695660    1.716287
    131          1           0       20.694015    0.065271    0.316990
    132          1           0       20.233381    2.962796   -1.153109
    133          1           0       21.515969    1.867885   -1.472747
    134          1           0       19.923130    1.347834   -1.897238
    135          1           0       21.158899    1.568332    2.279680
    136          1           0       22.230791    1.998164    1.135167
    137          1           0       21.132799    3.085864    1.355143
 ---------------------------------------------------------------------

 SCF Done:  E(RCAM-B3LYP) =  -2933.47117560     A.U. after   15 cycles

 Excitation energies and oscillator strengths:

 Excited State   1:      Singlet-A      2.1533 eV  575.79 nm  f=0.1424  <S**2>=0.000
     240 -> 243        0.32161
     241 -> 242        0.62321
 This state for optimization and/or second-order correction.
 Total Energy, E(TD-HF/TD-DFT) =  -2933.39204372
 Copying the excited state density for this state as the 1-particle RhoCI density.

 The electronic state is 1-A.
 Alpha  occ. eigenvalues --  -46.79087 -19.22638 -19.20709 -19.17124 -19.16558
 Alpha  occ. eigenvalues --  -19.16340 -14.37557 -14.34779 -14.34558 -14.34045
 Alpha  occ. eigenvalues --  -10.34023 -10.33432 -10.30770 -10.27711 -10.27005
 Alpha  occ. eigenvalues --  -10.26021 -10.25929 -10.25439 -10.24802 -10.24646
 Alpha  occ. eigenvalues --  -10.24626 -10.24398 -10.23941 -10.23909 -10.23862
 Alpha  occ. eigenvalues --  -10.23756 -10.23739 -10.23633 -10.23468 -10.23427
 Alpha  occ. eigenvalues --  -10.23349 -10.23204 -10.23157 -10.23115 -10.22997
 Alpha  occ. eigenvalues --  -10.22983 -10.22936 -10.22936 -10.22761 -10.22665
 Alpha  occ. eigenvalues --  -10.22632 -10.22523 -10.22475 -10.22343 -10.22236
 Alpha  occ. eigenvalues --  -10.22192 -10.22151 -10.22003 -10.21962 -10.21772
 Alpha  occ. eigenvalues --  -10.21640 -10.21415 -10.21354 -10.21288 -10.21179
 Alpha  occ. eigenvalues --  -10.21112 -10.21064 -10.20879 -10.20772 -10.20767
 Alpha  occ. eigenvalues --  -10.19984 -10.19962 -10.19414 -10.19058 -10.18846
 Alpha  occ. eigenvalues --   -3.07747  -1.82687  -1.82245  -1.82129  -1.14882
 Alpha  occ. eigenvalues --   -1.14586  -1.06300  -1.05836  -1.04987  -1.00573
 Alpha  occ. eigenvalues --   -0.98606  -0.97119  -0.96587  -0.86860  -0.86785
 Alpha  occ. eigenvalues --   -0.86040  -0.85259  -0.84511  -0.84232  -0.83197
 Alpha  occ. eigenvalues --   -0.83172  -0.82758  -0.82616  -0.82247  -0.81422
 Alpha  occ. eigenvalues --   -0.80002  -0.79382  -0.78712  -0.78227  -0.77494
 Alpha  occ. eigenvalues --   -0.77278  -0.76305  -0.75849  -0.75663  -0.73611
 Alpha  occ. eigenvalues --   -0.72915  -0.72129  -0.71331  -0.70991  -0.70828
 Alpha  occ. eigenvalues --   -0.70517  -0.70196  -0.70038  -0.69374  -0.68221
 Alpha  occ. eigenvalues --   -0.67615  -0.66559  -0.65651  -0.64124  -0.63068
 Alpha  occ. eigenvalues --   -0.62965  -0.62042  -0.61310  -0.60782  -0.60602
 Alpha  occ. eigenvalues --   -0.59926  -0.59353  -0.59192  -0.58246  -0.57412
 Alpha  occ. eigenvalues --   -0.57304  -0.56764  -0.56566  -0.55927  -0.55454
 Alpha  occ. eigenvalues --   -0.54675  -0.53988  -0.53750  -0.53306  -0.53072
 Alpha  occ. eigenvalues --   -0.52680  -0.51878  -0.51425  -0.50996  -0.50946
 Alpha  occ. eigenvalues --   -0.50568  -0.50417  -0.50037  -0.49937  -0.49235
 Alpha  occ. eigenvalues --   -0.49050  -0.48813  -0.48539  -0.48397  -0.47905
 Alpha  occ. eigenvalues --   -0.47681  -0.47379  -0.47140  -0.46944  -0.46700
 Alpha  occ. eigenvalues --   -0.46630  -0.46264  -0.46077  -0.46010  -0.45876
 Alpha  occ. eigenvalues --   -0.45654  -0.45401  -0.45104  -0.44866  -0.44783
 Alpha  occ. eigenvalues --   -0.44634  -0.44219  -0.43999  -0.43725  -0.43504
 Alpha  occ. eigenvalues --   -0.43235  -0.43037  -0.42861  -0.42747  -0.42474
 Alpha  occ. eigenvalues --   -0.42224  -0.41946  -0.41848  -0.41724  -0.41612
 Alpha  occ. eigenvalues --   -0.41149  -0.41031  -0.40914  -0.40684  -0.40521
 Alpha  occ. eigenvalues --   -0.40423  -0.40177  -0.39957  -0.39685  -0.39590
 Alpha  occ. eigenvalues --   -0.39413  -0.39394  -0.39131  -0.39021  -0.38999
 Alpha  occ. eigenvalues --   -0.38804  -0.38420  -0.38409  -0.38152  -0.37993
 Alpha  occ. eigenvalues --   -0.37836  -0.37741  -0.37551  -0.37342  -0.37126
 Alpha  occ. eigenvalues --   -0.37045  -0.36692  -0.36575  -0.36364  -0.36022
 Alpha  occ. eigenvalues --   -0.35769  -0.35675  -0.35559  -0.35241  -0.34676
 Alpha  occ. eigenvalues --   -0.34527  -0.34197  -0.33824  -0.33583  -0.33529
 Alpha  occ. eigenvalues --   -0.33494  -0.32960  -0.32836  -0.32664  -0.32517
 Alpha  occ. eigenvalues --   -0.32406  -0.32054  -0.31577  -0.31289  -0.30823
 Alpha  occ. eigenvalues --   -0.30287  -0.29935  -0.29500  -0.28432  -0.27014
 Alpha  occ. eigenvalues --   -0.26681  -0.25917  -0.25200  -0.24542  -0.21697
 Alpha  occ. eigenvalues --   -0.20657
 Alpha virt. eigenvalues --   -0.06823  -0.05108  -0.00314   0.02658   0.04351
 Alpha virt. eigenvalues --    0.04609   0.05210   0.05432   0.05621   0.05894
 Alpha virt. eigenvalues --    0.06938   0.08423   0.08766   0.09190   0.09470

 Mulliken charges:
               1
     1  Mg   0.803065
     2  C    0.054147
     3  C   -0.215452
     4  C   -0.174026
     5  C   -0.130587
     6  N   -0.641842
     7  C    0.329003
     8  C   -0.142478
     9  C   -0.146895
    10  C    0.348801
    11  C   -0.310229
    12  C   -0.150374
    13  C   -0.266696
    14  C    0.595580
    15  O   -0.464180
    16  O   -0.450391
    17  N   -0.749737
    18  C    0.341858
    19  C    0.027934
    20  C    0.003151
    21  C    0.358173
    22  C   -0.354813
    23  C   -0.049393
    24  C   -0.234044
    25  N   -0.687317
    26  C    0.258906
    27  C    0.033958
    28  C    0.023566
    29  C    0.309220
    30  C   -0.382550
    31  C   -0.253784
    32  C   -0.301203
    33  N   -0.764866
    34  C    0.261385
    35  C    0.062082
    36  C    0.011655
    37  C    0.329167
    38  C   -0.397087
    39  C    0.346738
    40  O   -0.467017
    41  C   -0.351575
    42  C    0.611960
    43  O   -0.421867
    44  O   -0.429669
    45  C   -0.087921
    46  C    0.010352
    47  C   -0.160836
    48  C    0.164784
    49  C   -0.375737
    50  C   -0.214627
    51  C   -0.182405
    52  C   -0.166799
    53  C   -0.040386
    54  C   -0.292989
    55  C   -0.157596
    56  C   -0.178287
    57  C   -0.181053
    58  C   -0.052452
    59  C   -0.318822
    60  C   -0.181234
    61  C   -0.148225
    62  C   -0.147651
    63  C   -0.047972
    64  C   -0.310824
    65  C   -0.333110
    66  H    0.077434
    67  H    0.075012
    68  H    0.086281
    69  H    0.110487
    70  H    0.095715
    71  H    0.101251
    72  H    0.110866
    73  H    0.128691
    74  H    0.104705
    75  H    0.122412
    76  H    0.128174
    77  H    0.126172
    78  H    0.100522
    79  H    0.083411
    80  H    0.120615
    81  H    0.091530
    82  H    0.097899
    83  H    0.095691
    84  H    0.119841
    85  H    0.114892
    86  H    0.124208
    87  H    0.102042
    88  H    0.092047
    89  H    0.108082
    90  H    0.101147
    91  H    0.104029
    92  H    0.102470
    93  H    0.136962
    94  H    0.145882
    95  H    0.150284
    96  H    0.098174
    97  H    0.127961
    98  H    0.124899
    99  H    0.138155
   100  H    0.122209
   101  H    0.086611
   102  H    0.104221
   103  H    0.111097
   104  H    0.117825
   105  H    0.103420
   106  H    0.099832
   107  H    0.112281
   108  H    0.065462
   109  H    0.048517
   110  H    0.096280
   111  H    0.081459
   112  H    0.082997
   113  H    0.120453
   114  H    0.061549
   115  H    0.093637
   116  H    0.064874
   117  H    0.085409
   118  H    0.103995
   119  H    0.078724
   120  H    0.086484
   121  H    0.084225
   122  H    0.108382
   123  H    0.101813
   124  H    0.096520
   125  H    0.087964
   126  H    0.073389
   127  H    0.106618
   128  H    0.071863
   129  H    0.086079
   130  H    0.073236
   131  H    0.065104
   132  H    0.093093
   133  H    0.104353
   134  H    0.102677
   135  H    0.081737
   136  H    0.107568
   137  H    0.111616
 Sum of Mulliken charges =  -0.00000

 Dipole moment (field-independent basis, Debye):
    X=              2.1006    Y=              3.8857    Z=             -0.2669  Tot=              4.4252
 Quadrupole moment (field-independent basis, Debye-Ang):
   XX=           -330.9317   YY=           -390.1720   ZZ=           -399.9908
   XY=             -8.9460   XZ=             11.7294   YZ=             -2.2331

 Normal termination of Gaussian 16 at Tue Sep 10 11:24:29 2019.
