 Gaussian 16, Revision A.03,
 Gaussian 16:  ES64L-G16RevA.03 25-Dec-2016

 ----------------------------------------------------------------------
 # td=(NStates=1) iop(3/107=0140000000,3/108=0140000000) CAM-B3LYP/6-31
 G(d,p)
 ----------------------------------------------------------------------

 --
 TD
 --
 Symbolic Z-matrix:
 Charge =  0 Multiplicity = 1

                         Standard orientation:
 ---------------------------------------------------------------------
 Center     Atomic      Atomic             Coordinates (Angstroms)
 Number     Number       Type             X           Y           Z
 ---------------------------------------------------------------------
      1         12           0       -7.137724    0.559630    0.085192
      2          6           0       -4.962460   -1.870810    0.554354
      3          6           0       -4.689748    2.837360    1.025150
      4          6           0       -9.379039    3.164050   -0.236995
      5          6           0       -9.510229   -1.645885   -0.931378
      6          7           0       -5.117627    0.466048    0.754220
      7          6           0       -4.304826   -0.614934    0.671936
      8          6           0       -2.953940   -0.388982    1.140452
      9          6           0       -2.926878    1.109909    1.447703
     10          6           0       -4.330717    1.489835    0.993982
     11          6           0       -2.893092    1.398889    3.016373
     12          6           0       -1.864714   -0.738090    0.001215
     13          6           0       -0.437690   -0.583923    0.512430
     14          6           0        0.522975   -0.770883   -0.745167
     15          8           0        0.245721   -1.044312   -1.866172
     16          8           0        1.792380   -0.554126   -0.325567
     17          7           0       -7.098060    2.609699    0.373525
     18          6           0       -5.997612    3.356218    0.643573
     19          6           0       -6.393661    4.748626    0.761833
     20          6           0       -7.842683    4.820447    0.500867
     21          6           0       -8.108785    3.453011    0.160025
     22          6           0       -5.239944    5.831246    0.938214
     23          6           0       -8.652486    6.032571    0.182526
     24          6           0       -8.456620    7.178345    0.720079
     25          7           0       -9.051112    0.721427   -0.488353
     26          6           0       -9.872242    1.895855   -0.515359
     27          6           0      -11.218995    1.520879   -1.015688
     28          6           0      -11.249700    0.109477   -1.193020
     29          6           0       -9.935271   -0.324514   -0.861928
     30          6           0      -12.358098    2.408447   -1.118681
     31          6           0      -12.431915   -0.697450   -1.685212
     32          6           0      -12.220901   -1.049858   -3.183400
     33          7           0       -7.307479   -1.343917   -0.057259
     34          6           0       -8.326806   -2.221106   -0.456365
     35          6           0       -7.884564   -3.576235   -0.533236
     36          6           0       -6.538834   -3.604787   -0.109621
     37          6           0       -6.256489   -2.229495    0.187766
     38          6           0       -8.702986   -4.763836   -0.783390
     39          6           0       -5.418150   -4.352298    0.209480
     40          8           0       -5.223262   -5.557117    0.298682
     41          6           0       -4.251894   -3.221236    0.616889
     42          6           0       -3.685770   -3.640942    1.952293
     43          8           0       -3.930987   -3.125351    3.036724
     44          8           0       -2.725664   -4.633513    1.731905
     45          6           0       -2.213704   -5.115664    2.961885
     46          6           0        2.863340   -0.668746   -1.284950
     47          6           0        4.138131   -0.507095   -0.667796
     48          6           0        5.135781    0.227177   -1.075031
     49          6           0        5.048375    0.882259   -2.435352
     50          6           0        6.393666    0.420703   -0.254625
     51          6           0        7.630830   -0.175842   -0.965101
     52          6           0        8.931848   -0.122718   -0.271056
     53          6           0       10.255247   -0.550349   -0.864861
     54          6           0       10.130320   -2.094991   -1.134565
     55          6           0       11.400276   -0.283622    0.095066
     56          6           0       12.805061   -0.663618   -0.552656
     57          6           0       13.948920    0.013163    0.160008
     58          6           0       15.362001   -0.188032   -0.387795
     59          6           0       15.761791   -1.621558   -0.759648
     60          6           0       16.432402    0.493546    0.494886
     61          6           0       17.779690    0.537641   -0.107817
     62          6           0       18.767895    1.393426    0.788047
     63          6           0       20.245473    1.324381    0.240661
     64          6           0       20.425612    2.148291   -1.029456
     65          6           0       21.276967    1.971502    1.282842
     66          1           0       -3.720931    3.458115    1.236150
     67          1           0      -10.134827    3.979494   -0.259783
     68          1           0      -10.093323   -2.312363   -1.514451
     69          1           0       -2.696970   -0.977789    1.939724
     70          1           0       -2.170298    1.496028    0.887353
     71          1           0       -1.931736    1.106534    3.620850
     72          1           0       -3.012601    2.377787    3.194076
     73          1           0       -3.434842    0.696986    3.403508
     74          1           0       -1.984864   -1.744892   -0.453924
     75          1           0       -2.113198   -0.108015   -0.954000
     76          1           0       -0.188174    0.459881    0.920712
     77          1           0       -0.265958   -1.410454    1.102078
     78          1           0       -5.632752    6.819969    0.548992
     79          1           0       -5.189126    6.046910    2.004094
     80          1           0       -4.313797    5.575860    0.519678
     81          1           0       -9.301540    5.884021   -0.579745
     82          1           0       -8.909817    8.202721    0.134394
     83          1           0       -7.832306    7.619801    1.509935
     84          1           0      -12.080281    3.069646   -1.962839
     85          1           0      -13.332974    1.827967   -1.334216
     86          1           0      -12.624463    3.162223   -0.171582
     87          1           0      -12.247835   -1.556923   -1.039532
     88          1           0      -13.488963   -0.337062   -1.568131
     89          1           0      -12.935665   -1.874846   -3.383739
     90          1           0      -12.508100   -0.302233   -4.019770
     91          1           0      -11.243626   -1.548739   -3.290737
     92          1           0       -9.213739   -5.016926   -1.912039
     93          1           0       -8.188378   -5.707373   -0.489591
     94          1           0       -9.432854   -4.849793   -0.210907
     95          1           0       -3.578868   -3.684540   -0.126120
     96          1           0       -1.687617   -4.271012    3.348647
     97          1           0       -3.036019   -5.558773    3.601072
     98          1           0       -1.446916   -5.719633    2.632967
     99          1           0        2.840339   -1.672206   -1.668455
    100          1           0        2.486847   -0.264087   -2.169331
    101          1           0        3.981141   -0.926569    0.363144
    102          1           0        4.123508    0.919171   -2.893588
    103          1           0        5.706740    1.865912   -2.260107
    104          1           0        5.782411    0.567976   -3.200653
    105          1           0        6.500000    1.503905   -0.148244
    106          1           0        6.020580    0.013043    0.779464
    107          1           0        7.529347   -1.171159   -1.117869
    108          1           0        7.696537    0.238044   -1.885053
    109          1           0        9.104509    0.928973    0.149604
    110          1           0        8.905736   -0.597315    0.751405
    111          1           0       10.222922   -0.105679   -1.828561
    112          1           0        9.093285   -2.391885   -1.688047
    113          1           0       10.800515   -2.420098   -1.816839
    114          1           0        9.992876   -2.811416   -0.217379
    115          1           0       11.441546    1.017372    0.225141
    116          1           0       11.457398   -0.857890    0.955602
    117          1           0       12.776078   -1.725213   -0.302901
    118          1           0       12.633866   -0.312932   -1.535410
    119          1           0       13.759830    1.106898    0.448757
    120          1           0       14.081493   -0.641435    0.999830
    121          1           0       15.292264    0.219906   -1.314382
    122          1           0       15.728038   -2.311742    0.085153
    123          1           0       15.177526   -2.072898   -1.495846
    124          1           0       16.789579   -1.741289   -1.344386
    125          1           0       16.091893    1.424332    0.800837
    126          1           0       16.563815   -0.173554    1.395601
    127          1           0       18.291469   -0.309947   -0.370523
    128          1           0       17.998177    0.970878   -1.151858
    129          1           0       18.297570    2.333798    0.719473
    130          1           0       18.805349    1.062266    1.696908
    131          1           0       20.404390    0.184014    0.025876
    132          1           0       19.856562    3.138594   -0.791097
    133          1           0       21.436103    2.421969   -1.289781
    134          1           0       19.840817    1.833060   -1.870855
    135          1           0       21.164916    1.556695    2.373863
    136          1           0       22.309768    1.868849    1.149498
    137          1           0       20.923770    3.077531    1.403776
 ---------------------------------------------------------------------

 SCF Done:  E(RCAM-B3LYP) =  -2933.47496651     A.U. after   16 cycles

 Excitation energies and oscillator strengths:

 Excited State   1:      Singlet-A      2.0227 eV  612.97 nm  f=0.2226  <S**2>=0.000
     240 -> 243        0.26894
     241 -> 242        0.65057
 This state for optimization and/or second-order correction.
 Total Energy, E(TD-HF/TD-DFT) =  -2933.40063415
 Copying the excited state density for this state as the 1-particle RhoCI density.

 The electronic state is 1-A.
 Alpha  occ. eigenvalues --  -46.79095 -19.21410 -19.20779 -19.17357 -19.16319
 Alpha  occ. eigenvalues --  -19.15908 -14.37846 -14.35216 -14.35203 -14.35163
 Alpha  occ. eigenvalues --  -10.34596 -10.33658 -10.30126 -10.26347 -10.25796
 Alpha  occ. eigenvalues --  -10.25792 -10.25747 -10.24983 -10.24944 -10.24923
 Alpha  occ. eigenvalues --  -10.24886 -10.24793 -10.24600 -10.24306 -10.23848
 Alpha  occ. eigenvalues --  -10.23516 -10.23231 -10.23216 -10.23177 -10.23071
 Alpha  occ. eigenvalues --  -10.23012 -10.22881 -10.22845 -10.22804 -10.22772
 Alpha  occ. eigenvalues --  -10.22712 -10.22664 -10.22531 -10.22471 -10.22444
 Alpha  occ. eigenvalues --  -10.22396 -10.22388 -10.22385 -10.22331 -10.22283
 Alpha  occ. eigenvalues --  -10.22086 -10.21995 -10.21940 -10.21824 -10.21568
 Alpha  occ. eigenvalues --  -10.21424 -10.21303 -10.21171 -10.20945 -10.20554
 Alpha  occ. eigenvalues --  -10.20443 -10.20438 -10.20436 -10.20387 -10.20245
 Alpha  occ. eigenvalues --  -10.20136 -10.19980 -10.19783 -10.19721 -10.18719
 Alpha  occ. eigenvalues --   -3.07990  -1.82897  -1.82468  -1.82426  -1.13524
 Alpha  occ. eigenvalues --   -1.11122  -1.05401  -1.05394  -1.03351  -1.01443
 Alpha  occ. eigenvalues --   -0.99122  -0.97938  -0.95248  -0.87174  -0.87053
 Alpha  occ. eigenvalues --   -0.85969  -0.85435  -0.84941  -0.84510  -0.83679
 Alpha  occ. eigenvalues --   -0.83390  -0.83003  -0.82625  -0.82345  -0.81606
 Alpha  occ. eigenvalues --   -0.80516  -0.79470  -0.78700  -0.78551  -0.78086
 Alpha  occ. eigenvalues --   -0.77129  -0.76712  -0.75623  -0.75492  -0.74452
 Alpha  occ. eigenvalues --   -0.73349  -0.72008  -0.71880  -0.71197  -0.70828
 Alpha  occ. eigenvalues --   -0.70246  -0.70110  -0.69910  -0.69455  -0.68572
 Alpha  occ. eigenvalues --   -0.67515  -0.66595  -0.65555  -0.65036  -0.64517
 Alpha  occ. eigenvalues --   -0.63485  -0.62889  -0.62310  -0.60985  -0.60968
 Alpha  occ. eigenvalues --   -0.60370  -0.59535  -0.59006  -0.58950  -0.58278
 Alpha  occ. eigenvalues --   -0.57609  -0.57147  -0.56628  -0.56175  -0.55537
 Alpha  occ. eigenvalues --   -0.54808  -0.54221  -0.53391  -0.53021  -0.52464
 Alpha  occ. eigenvalues --   -0.52269  -0.52082  -0.51757  -0.51494  -0.51004
 Alpha  occ. eigenvalues --   -0.50929  -0.50718  -0.50216  -0.49907  -0.49553
 Alpha  occ. eigenvalues --   -0.49410  -0.49003  -0.48848  -0.48612  -0.48419
 Alpha  occ. eigenvalues --   -0.48272  -0.48236  -0.47616  -0.47311  -0.47146
 Alpha  occ. eigenvalues --   -0.46880  -0.46621  -0.46362  -0.46308  -0.46003
 Alpha  occ. eigenvalues --   -0.45984  -0.45831  -0.45200  -0.45057  -0.44872
 Alpha  occ. eigenvalues --   -0.44593  -0.44149  -0.44132  -0.43736  -0.43701
 Alpha  occ. eigenvalues --   -0.43583  -0.43275  -0.42837  -0.42678  -0.42517
 Alpha  occ. eigenvalues --   -0.42375  -0.41989  -0.41810  -0.41593  -0.41451
 Alpha  occ. eigenvalues --   -0.41229  -0.41062  -0.40999  -0.40767  -0.40723
 Alpha  occ. eigenvalues --   -0.40690  -0.40232  -0.40103  -0.39878  -0.39673
 Alpha  occ. eigenvalues --   -0.39428  -0.39279  -0.39129  -0.38959  -0.38881
 Alpha  occ. eigenvalues --   -0.38744  -0.38646  -0.38303  -0.38203  -0.38141
 Alpha  occ. eigenvalues --   -0.38068  -0.37832  -0.37666  -0.37323  -0.37239
 Alpha  occ. eigenvalues --   -0.37061  -0.37056  -0.36624  -0.36316  -0.36065
 Alpha  occ. eigenvalues --   -0.36035  -0.35766  -0.35590  -0.35289  -0.34912
 Alpha  occ. eigenvalues --   -0.34850  -0.34713  -0.34246  -0.33794  -0.33638
 Alpha  occ. eigenvalues --   -0.33606  -0.32915  -0.32869  -0.32829  -0.32654
 Alpha  occ. eigenvalues --   -0.32274  -0.31814  -0.31775  -0.31108  -0.30585
 Alpha  occ. eigenvalues --   -0.30470  -0.30156  -0.29348  -0.28506  -0.27446
 Alpha  occ. eigenvalues --   -0.26882  -0.26322  -0.25229  -0.24612  -0.21378
 Alpha  occ. eigenvalues --   -0.20500
 Alpha virt. eigenvalues --   -0.07576  -0.04108  -0.01034   0.02915   0.03759
 Alpha virt. eigenvalues --    0.04639   0.04996   0.05155   0.05336   0.05423
 Alpha virt. eigenvalues --    0.06537   0.09013   0.09271   0.09494   0.09547

 Mulliken charges:
               1
     1  Mg   0.823288
     2  C    0.058021
     3  C   -0.185203
     4  C   -0.182640
     5  C   -0.206302
     6  N   -0.586341
     7  C    0.317037
     8  C   -0.162530
     9  C   -0.141729
    10  C    0.331443
    11  C   -0.296521
    12  C   -0.206955
    13  C   -0.257872
    14  C    0.586835
    15  O   -0.450730
    16  O   -0.483530
    17  N   -0.683717
    18  C    0.302761
    19  C   -0.031815
    20  C   -0.018816
    21  C    0.342500
    22  C   -0.371474
    23  C   -0.025907
    24  C   -0.243088
    25  N   -0.690785
    26  C    0.290214
    27  C    0.020333
    28  C    0.050736
    29  C    0.307710
    30  C   -0.379554
    31  C   -0.236716
    32  C   -0.313347
    33  N   -0.725707
    34  C    0.287086
    35  C    0.015512
    36  C    0.146816
    37  C    0.232797
    38  C   -0.384964
    39  C    0.274510
    40  O   -0.462588
    41  C   -0.350895
    42  C    0.639156
    43  O   -0.488217
    44  O   -0.466441
    45  C   -0.070794
    46  C    0.016018
    47  C   -0.146540
    48  C    0.149274
    49  C   -0.364631
    50  C   -0.235677
    51  C   -0.154065
    52  C   -0.174576
    53  C   -0.044759
    54  C   -0.322256
    55  C   -0.155825
    56  C   -0.192664
    57  C   -0.166840
    58  C   -0.056569
    59  C   -0.331475
    60  C   -0.154698
    61  C   -0.190833
    62  C   -0.162475
    63  C   -0.062512
    64  C   -0.300663
    65  C   -0.313452
    66  H    0.082595
    67  H    0.089580
    68  H    0.082430
    69  H    0.125319
    70  H    0.105493
    71  H    0.079442
    72  H    0.123027
    73  H    0.143692
    74  H    0.125254
    75  H    0.102512
    76  H    0.134072
    77  H    0.150456
    78  H    0.109547
    79  H    0.128263
    80  H    0.125982
    81  H    0.103713
    82  H    0.059022
    83  H    0.114182
    84  H    0.125794
    85  H    0.105517
    86  H    0.098889
    87  H    0.116518
    88  H    0.108128
    89  H    0.100181
    90  H    0.111039
    91  H    0.114929
    92  H    0.087549
    93  H    0.139463
    94  H    0.147763
    95  H    0.157158
    96  H    0.116128
    97  H    0.130975
    98  H    0.120142
    99  H    0.120310
   100  H    0.121860
   101  H    0.091664
   102  H    0.121242
   103  H    0.086580
   104  H    0.120473
   105  H    0.104883
   106  H    0.091290
   107  H    0.113805
   108  H    0.095590
   109  H    0.061286
   110  H    0.077587
   111  H    0.090761
   112  H    0.069740
   113  H    0.118537
   114  H    0.094012
   115  H    0.042547
   116  H    0.107330
   117  H    0.106147
   118  H    0.095965
   119  H    0.082268
   120  H    0.087573
   121  H    0.092405
   122  H    0.094555
   123  H    0.111631
   124  H    0.086361
   125  H    0.094381
   126  H    0.088623
   127  H    0.100952
   128  H    0.067686
   129  H    0.093898
   130  H    0.097485
   131  H    0.072335
   132  H    0.082896
   133  H    0.106767
   134  H    0.103129
   135  H    0.076212
   136  H    0.114511
   137  H    0.093614
 Sum of Mulliken charges =  -0.00000

 Dipole moment (field-independent basis, Debye):
    X=              1.2400    Y=              3.7277    Z=             -1.2135  Tot=              4.1117
 Quadrupole moment (field-independent basis, Debye-Ang):
   XX=           -345.1133   YY=           -398.1557   ZZ=           -397.8645
   XY=            -20.2513   XZ=             14.1358   YZ=             -0.4195

 Normal termination of Gaussian 16 at Mon Sep 23 04:25:11 2019.
