 Gaussian 16, Revision A.03,
 Gaussian 16:  ES64L-G16RevA.03 25-Dec-2016

 ----------------------------------------------------------------------
 # td=(NStates=1) iop(3/107=0140000000,3/108=0140000000) CAM-B3LYP/6-31
 G(d,p)
 ----------------------------------------------------------------------

 --
 TD
 --
 Symbolic Z-matrix:
 Charge =  0 Multiplicity = 1

                         Standard orientation:
 ---------------------------------------------------------------------
 Center     Atomic      Atomic             Coordinates (Angstroms)
 Number     Number       Type             X           Y           Z
 ---------------------------------------------------------------------
      1         12           0       -7.064798    0.580277    0.050794
      2          6           0       -4.869548   -2.023574    0.559340
      3          6           0       -4.734278    2.884495    1.075594
      4          6           0       -9.276930    3.086299   -0.356444
      5          6           0       -9.459945   -1.690677   -0.989620
      6          7           0       -5.053796    0.422722    0.727888
      7          6           0       -4.356373   -0.746914    0.860501
      8          6           0       -2.955510   -0.439434    1.194825
      9          6           0       -2.967061    1.098138    1.685177
     10          6           0       -4.317900    1.516338    1.102029
     11          6           0       -3.017160    1.275265    3.245197
     12          6           0       -1.857219   -0.581871    0.107689
     13          6           0       -0.428091   -0.477576    0.459401
     14          6           0        0.493080   -0.723300   -0.715799
     15          8           0        0.132236   -1.095189   -1.789542
     16          8           0        1.820155   -0.406995   -0.251160
     17          7           0       -6.948708    2.618258    0.391805
     18          6           0       -5.992477    3.457773    0.801028
     19          6           0       -6.359938    4.816138    0.868107
     20          6           0       -7.658908    4.820826    0.413796
     21          6           0       -8.062852    3.457027    0.135849
     22          6           0       -5.432223    6.002764    1.152231
     23          6           0       -8.489612    5.984963    0.086302
     24          6           0       -8.486949    7.127672    0.888788
     25          7           0       -9.051299    0.651968   -0.468246
     26          6           0       -9.825668    1.836948   -0.582395
     27          6           0      -11.171990    1.469961   -1.096892
     28          6           0      -11.184723    0.109256   -1.278966
     29          6           0       -9.839223   -0.328462   -0.993912
     30          6           0      -12.243162    2.483120   -1.546168
     31          6           0      -12.270374   -0.693637   -1.813759
     32          6           0      -12.229789   -1.110832   -3.310156
     33          7           0       -7.235292   -1.452274   -0.196072
     34          6           0       -8.225419   -2.204587   -0.553141
     35          6           0       -7.814370   -3.652031   -0.539694
     36          6           0       -6.521593   -3.651451   -0.147558
     37          6           0       -6.186134   -2.244389    0.172621
     38          6           0       -8.590172   -4.774264   -0.943995
     39          6           0       -5.397196   -4.511753    0.294177
     40          8           0       -5.214808   -5.619033    0.247736
     41          6           0       -4.242142   -3.380889    0.635436
     42          6           0       -3.506112   -3.653907    1.999991
     43          8           0       -3.705063   -3.078645    3.047568
     44          8           0       -2.771614   -4.742021    1.854319
     45          6           0       -2.376333   -5.267570    3.086547
     46          6           0        2.820293   -0.712933   -1.210327
     47          6           0        4.131443   -0.414270   -0.583603
     48          6           0        5.114438    0.458023   -0.929697
     49          6           0        5.004270    1.464372   -2.100564
     50          6           0        6.331708    0.395075   -0.045453
     51          6           0        7.589708   -0.086907   -0.786392
     52          6           0        8.883006    0.059523   -0.132594
     53          6           0       10.103287   -0.483086   -0.934067
     54          6           0       10.029351   -1.895897   -1.501927
     55          6           0       11.302646   -0.455449    0.003250
     56          6           0       12.722029   -0.627501   -0.686193
     57          6           0       13.958959   -0.142257    0.214774
     58          6           0       15.252280   -0.090549   -0.628536
     59          6           0       15.705737   -1.530376   -1.177145
     60          6           0       16.259555    0.420748    0.397675
     61          6           0       17.759601    0.580524   -0.068594
     62          6           0       18.724874    1.195071    0.826716
     63          6           0       20.159141    1.199239    0.229571
     64          6           0       20.289555    1.938574   -1.081180
     65          6           0       21.061871    1.858261    1.317691
     66          1           0       -3.937246    3.500077    1.163413
     67          1           0       -9.962872    3.896076   -0.471798
     68          1           0      -10.346237   -2.277369   -1.405789
     69          1           0       -2.787161   -1.065592    2.016519
     70          1           0       -2.051375    1.743036    1.420993
     71          1           0       -1.985494    1.144267    3.707808
     72          1           0       -3.090556    2.478677    3.602511
     73          1           0       -3.644002    0.801985    3.826824
     74          1           0       -1.928476   -1.709098   -0.412999
     75          1           0       -2.065634    0.203973   -0.699050
     76          1           0       -0.240766    0.512517    0.888787
     77          1           0       -0.280971   -1.277499    1.237996
     78          1           0       -5.736875    6.832919    0.625627
     79          1           0       -5.272520    6.089693    2.138758
     80          1           0       -4.408766    5.835761    0.749062
     81          1           0       -9.214360    5.814292   -0.708117
     82          1           0       -9.028650    7.957604    0.607157
     83          1           0       -7.780988    7.441703    1.608355
     84          1           0      -11.791174    2.895377   -2.647197
     85          1           0      -13.103701    1.965608   -1.908602
     86          1           0      -12.217749    3.251579   -0.795142
     87          1           0      -12.521093   -1.640411   -1.024854
     88          1           0      -13.282297   -0.168324   -1.606088
     89          1           0      -13.000133   -1.877553   -3.487476
     90          1           0      -12.352014   -0.210377   -4.037973
     91          1           0      -11.139970   -1.345377   -3.517030
     92          1           0       -8.903875   -4.703760   -1.998752
     93          1           0       -8.255489   -5.822192   -1.166678
     94          1           0       -9.560197   -5.075805   -0.232150
     95          1           0       -3.414642   -3.667139   -0.121165
     96          1           0       -1.304791   -4.859045    3.605737
     97          1           0       -3.216288   -5.297230    3.693318
     98          1           0       -1.998164   -6.356286    2.920164
     99          1           0        2.773836   -1.750292   -1.563838
    100          1           0        2.706727   -0.177036   -2.074080
    101          1           0        4.429465   -0.790536    0.290730
    102          1           0        3.977499    1.580474   -2.477147
    103          1           0        5.425520    2.511776   -1.681652
    104          1           0        5.475990    0.944727   -2.957672
    105          1           0        6.530719    1.514932    0.171982
    106          1           0        6.394338   -0.018494    0.873898
    107          1           0        7.383535   -1.358379   -1.134507
    108          1           0        7.556974    0.712752   -1.592416
    109          1           0        9.110757    1.058929    0.239505
    110          1           0        8.951460   -0.538295    0.716584
    111          1           0       10.333723    0.315483   -1.765888
    112          1           0        9.250706   -2.119071   -2.289227
    113          1           0       11.051529   -2.066957   -2.109127
    114          1           0        9.781708   -2.484187   -0.657375
    115          1           0       11.284334    0.511457    0.518275
    116          1           0       11.367192   -0.926652    1.030408
    117          1           0       12.968555   -1.667513   -0.852283
    118          1           0       12.766523   -0.129813   -1.682350
    119          1           0       13.930300    0.828949    0.425215
    120          1           0       13.906565   -0.894459    1.126112
    121          1           0       15.087334    0.570400   -1.573399
    122          1           0       15.994941   -2.166188   -0.240398
    123          1           0       14.940356   -1.956825   -1.756156
    124          1           0       16.700184   -1.450507   -1.689409
    125          1           0       16.084063    1.364188    0.608553
    126          1           0       16.169542   -0.245241    1.455309
    127          1           0       18.167400   -0.370300   -0.214343
    128          1           0       17.538747    0.934491   -1.132105
    129          1           0       18.384899    2.130709    1.056071
    130          1           0       18.696211    0.411489    1.702634
    131          1           0       20.417374    0.211990   -0.010505
    132          1           0       19.737114    2.948187   -1.090366
    133          1           0       21.276307    2.233700   -1.063640
    134          1           0       19.800261    1.508115   -1.963095
    135          1           0       21.027034    1.371625    2.216596
    136          1           0       22.149601    1.950158    1.040142
    137          1           0       20.912429    2.970838    1.381076
 ---------------------------------------------------------------------

 SCF Done:  E(RCAM-B3LYP) =  -2933.49505685     A.U. after   16 cycles

 Excitation energies and oscillator strengths:

 Excited State   1:      Singlet-A      2.0603 eV  601.79 nm  f=0.2185  <S**2>=0.000
     240 -> 243        0.27167
     241 -> 242        0.65052
 This state for optimization and/or second-order correction.
 Total Energy, E(TD-HF/TD-DFT) =  -2933.41934364
 Copying the excited state density for this state as the 1-particle RhoCI density.

 The electronic state is 1-A.
 Alpha  occ. eigenvalues --  -46.80192 -19.23311 -19.21565 -19.18821 -19.17876
 Alpha  occ. eigenvalues --  -19.16748 -14.37482 -14.35362 -14.34817 -14.34493
 Alpha  occ. eigenvalues --  -10.35272 -10.34492 -10.31187 -10.28014 -10.26187
 Alpha  occ. eigenvalues --  -10.26134 -10.26036 -10.24969 -10.24565 -10.24508
 Alpha  occ. eigenvalues --  -10.24316 -10.24250 -10.23993 -10.23912 -10.23908
 Alpha  occ. eigenvalues --  -10.23840 -10.23619 -10.23460 -10.23408 -10.23147
 Alpha  occ. eigenvalues --  -10.23049 -10.23048 -10.23009 -10.22801 -10.22721
 Alpha  occ. eigenvalues --  -10.22559 -10.22531 -10.22478 -10.22476 -10.22445
 Alpha  occ. eigenvalues --  -10.22402 -10.22309 -10.21865 -10.21725 -10.21682
 Alpha  occ. eigenvalues --  -10.21658 -10.21239 -10.21192 -10.21178 -10.21059
 Alpha  occ. eigenvalues --  -10.21030 -10.20909 -10.20797 -10.20767 -10.20536
 Alpha  occ. eigenvalues --  -10.20512 -10.20448 -10.20430 -10.20387 -10.20061
 Alpha  occ. eigenvalues --  -10.20001 -10.19958 -10.19583 -10.19535 -10.19413
 Alpha  occ. eigenvalues --   -3.08663  -1.83617  -1.83157  -1.83037  -1.15497
 Alpha  occ. eigenvalues --   -1.12801  -1.12177  -1.05895  -1.05140  -1.00192
 Alpha  occ. eigenvalues --   -0.98391  -0.97645  -0.96348  -0.87122  -0.86196
 Alpha  occ. eigenvalues --   -0.85418  -0.84730  -0.84247  -0.83949  -0.83471
 Alpha  occ. eigenvalues --   -0.83208  -0.83047  -0.82701  -0.81251  -0.80549
 Alpha  occ. eigenvalues --   -0.79702  -0.78981  -0.78218  -0.78152  -0.77395
 Alpha  occ. eigenvalues --   -0.76396  -0.76068  -0.75504  -0.74484  -0.73424
 Alpha  occ. eigenvalues --   -0.73178  -0.72432  -0.72088  -0.71208  -0.71010
 Alpha  occ. eigenvalues --   -0.70599  -0.70373  -0.69912  -0.68841  -0.67668
 Alpha  occ. eigenvalues --   -0.66843  -0.65546  -0.65121  -0.64525  -0.64366
 Alpha  occ. eigenvalues --   -0.63461  -0.61425  -0.61243  -0.60650  -0.59862
 Alpha  occ. eigenvalues --   -0.59834  -0.59382  -0.58724  -0.58458  -0.58331
 Alpha  occ. eigenvalues --   -0.57121  -0.56318  -0.55972  -0.55375  -0.55356
 Alpha  occ. eigenvalues --   -0.54641  -0.54055  -0.53906  -0.52794  -0.52751
 Alpha  occ. eigenvalues --   -0.52314  -0.52039  -0.51799  -0.51295  -0.51092
 Alpha  occ. eigenvalues --   -0.50957  -0.50737  -0.50365  -0.50044  -0.49484
 Alpha  occ. eigenvalues --   -0.49449  -0.48866  -0.48678  -0.48283  -0.48019
 Alpha  occ. eigenvalues --   -0.47998  -0.47810  -0.47743  -0.47417  -0.46996
 Alpha  occ. eigenvalues --   -0.46865  -0.46745  -0.46476  -0.46173  -0.46011
 Alpha  occ. eigenvalues --   -0.45926  -0.45530  -0.45431  -0.44979  -0.44946
 Alpha  occ. eigenvalues --   -0.44850  -0.44582  -0.44194  -0.44023  -0.43880
 Alpha  occ. eigenvalues --   -0.43442  -0.42994  -0.42870  -0.42702  -0.42300
 Alpha  occ. eigenvalues --   -0.42037  -0.41961  -0.41848  -0.41685  -0.41635
 Alpha  occ. eigenvalues --   -0.41436  -0.41165  -0.40987  -0.40785  -0.40742
 Alpha  occ. eigenvalues --   -0.40574  -0.40237  -0.40046  -0.39956  -0.39780
 Alpha  occ. eigenvalues --   -0.39608  -0.39360  -0.38976  -0.38845  -0.38751
 Alpha  occ. eigenvalues --   -0.38583  -0.38068  -0.37964  -0.37904  -0.37805
 Alpha  occ. eigenvalues --   -0.37754  -0.37605  -0.37210  -0.37088  -0.36991
 Alpha  occ. eigenvalues --   -0.36908  -0.36460  -0.36110  -0.35924  -0.35687
 Alpha  occ. eigenvalues --   -0.35437  -0.35217  -0.34843  -0.34684  -0.34548
 Alpha  occ. eigenvalues --   -0.33985  -0.33879  -0.33836  -0.33470  -0.33421
 Alpha  occ. eigenvalues --   -0.33363  -0.33030  -0.32971  -0.32618  -0.32267
 Alpha  occ. eigenvalues --   -0.32127  -0.31997  -0.31744  -0.31415  -0.30860
 Alpha  occ. eigenvalues --   -0.30220  -0.29658  -0.29386  -0.28263  -0.27361
 Alpha  occ. eigenvalues --   -0.27048  -0.26316  -0.25540  -0.24667  -0.21063
 Alpha  occ. eigenvalues --   -0.19442
 Alpha virt. eigenvalues --   -0.06275  -0.03660   0.00092   0.02099   0.03216
 Alpha virt. eigenvalues --    0.03743   0.04482   0.04609   0.05000   0.05891
 Alpha virt. eigenvalues --    0.06686   0.08959   0.09308   0.09673   0.09752

 Mulliken charges:
               1
     1  Mg   0.812753
     2  C    0.137177
     3  C   -0.200130
     4  C   -0.184106
     5  C   -0.187611
     6  N   -0.639397
     7  C    0.304835
     8  C   -0.157171
     9  C   -0.153731
    10  C    0.338497
    11  C   -0.299467
    12  C   -0.152809
    13  C   -0.256109
    14  C    0.621933
    15  O   -0.430501
    16  O   -0.491628
    17  N   -0.702984
    18  C    0.329444
    19  C    0.031907
    20  C    0.001016
    21  C    0.316551
    22  C   -0.364843
    23  C   -0.104496
    24  C   -0.239858
    25  N   -0.686178
    26  C    0.275892
    27  C    0.004498
    28  C    0.078344
    29  C    0.294177
    30  C   -0.346429
    31  C   -0.274642
    32  C   -0.299338
    33  N   -0.699396
    34  C    0.320498
    35  C    0.037455
    36  C   -0.007118
    37  C    0.229399
    38  C   -0.414732
    39  C    0.391048
    40  O   -0.360049
    41  C   -0.364698
    42  C    0.594205
    43  O   -0.476128
    44  O   -0.398642
    45  C   -0.083298
    46  C    0.026666
    47  C   -0.105663
    48  C    0.107467
    49  C   -0.365760
    50  C   -0.234857
    51  C   -0.139717
    52  C   -0.173970
    53  C   -0.052731
    54  C   -0.293059
    55  C   -0.178421
    56  C   -0.200292
    57  C   -0.153005
    58  C   -0.075348
    59  C   -0.310180
    60  C   -0.155843
    61  C   -0.195073
    62  C   -0.148513
    63  C   -0.047075
    64  C   -0.310440
    65  C   -0.325712
    66  H    0.057762
    67  H    0.067991
    68  H    0.089317
    69  H    0.124413
    70  H    0.095262
    71  H    0.096753
    72  H    0.068536
    73  H    0.141042
    74  H    0.081700
    75  H    0.101456
    76  H    0.129438
    77  H    0.136155
    78  H    0.127669
    79  H    0.135981
    80  H    0.107674
    81  H    0.099581
    82  H    0.099950
    83  H    0.108047
    84  H    0.092721
    85  H    0.125570
    86  H    0.130565
    87  H    0.078344
    88  H    0.094222
    89  H    0.117128
    90  H    0.099717
    91  H    0.111743
    92  H    0.125365
    93  H    0.136717
    94  H    0.101599
    95  H    0.144213
    96  H    0.090714
    97  H    0.144026
    98  H    0.110863
    99  H    0.116185
   100  H    0.108450
   101  H    0.073939
   102  H    0.121635
   103  H    0.103917
   104  H    0.134410
   105  H    0.071371
   106  H    0.108067
   107  H    0.049696
   108  H    0.088273
   109  H    0.095202
   110  H    0.094225
   111  H    0.070008
   112  H    0.093825
   113  H    0.093360
   114  H    0.109318
   115  H    0.082227
   116  H    0.079980
   117  H    0.105534
   118  H    0.079546
   119  H    0.102791
   120  H    0.080955
   121  H    0.078540
   122  H    0.086168
   123  H    0.108223
   124  H    0.099102
   125  H    0.102864
   126  H    0.053323
   127  H    0.093073
   128  H    0.072300
   129  H    0.092059
   130  H    0.076478
   131  H    0.094752
   132  H    0.079006
   133  H    0.110366
   134  H    0.108069
   135  H    0.113421
   136  H    0.084554
   137  H    0.099944
 Sum of Mulliken charges =  -0.00000

 Dipole moment (field-independent basis, Debye):
    X=              1.4279    Y=              3.0881    Z=             -0.4728  Tot=              3.4349
 Quadrupole moment (field-independent basis, Debye-Ang):
   XX=           -352.4302   YY=           -384.6837   ZZ=           -396.3972
   XY=             -3.9472   XZ=             20.9426   YZ=             -3.0487

 Normal termination of Gaussian 16 at Sun Sep 15 08:37:34 2019.
