 Gaussian 09, Revision D.01,
 Gaussian 09:  ES64L-G09RevD.01 24-Apr-2013

 -------------------------------------
 # td=(NStates=1) CAM-B3LYP/6-31G(d,p)
 -------------------------------------

 --
 TD
 --
 Symbolic Z-matrix:
 Charge =  0 Multiplicity = 1

                         Standard orientation:
 ---------------------------------------------------------------------
 Center     Atomic      Atomic             Coordinates (Angstroms)
 Number     Number       Type             X           Y           Z
 ---------------------------------------------------------------------
      1         12           0       -7.209293    0.622133    0.286846
      2          6           0       -4.804143   -1.954593    0.536601
      3          6           0       -4.838063    2.866951    1.165915
      4          6           0       -9.392700    3.138091   -0.409990
      5          6           0       -9.614241   -1.766400   -0.811841
      6          7           0       -5.165281    0.491432    0.737016
      7          6           0       -4.387710   -0.754422    0.870845
      8          6           0       -2.924840   -0.384183    1.177462
      9          6           0       -3.064466    1.090695    1.564867
     10          6           0       -4.376829    1.509804    1.057268
     11          6           0       -3.016908    1.415561    3.107124
     12          6           0       -1.897253   -0.692848    0.110196
     13          6           0       -0.461797   -0.378829    0.438030
     14          6           0        0.509421   -0.707157   -0.611707
     15          8           0        0.136669   -1.061575   -1.735872
     16          8           0        1.762765   -0.666405   -0.136368
     17          7           0       -7.041889    2.695129    0.336202
     18          6           0       -6.005732    3.350168    0.793282
     19          6           0       -6.295950    4.845282    0.700580
     20          6           0       -7.640808    4.827404    0.284467
     21          6           0       -8.142256    3.515753    0.111595
     22          6           0       -5.414844    5.940956    1.186392
     23          6           0       -8.526680    6.027144    0.140530
     24          6           0       -8.481346    7.279977    0.646424
     25          7           0       -9.144678    0.705994   -0.522504
     26          6           0       -9.924714    1.764169   -0.746794
     27          6           0      -11.272153    1.426172   -1.149961
     28          6           0      -11.274778    0.105480   -1.212783
     29          6           0       -9.962200   -0.368934   -0.761673
     30          6           0      -12.408121    2.429908   -1.472868
     31          6           0      -12.472952   -0.810593   -1.732850
     32          6           0      -12.361050   -1.009593   -3.291428
     33          7           0       -7.238693   -1.416922   -0.049339
     34          6           0       -8.342359   -2.240703   -0.521018
     35          6           0       -7.891602   -3.577767   -0.481836
     36          6           0       -6.480436   -3.524664   -0.052468
     37          6           0       -6.237933   -2.116832    0.170079
     38          6           0       -8.641867   -4.841877   -0.692126
     39          6           0       -5.302054   -4.367972    0.150394
     40          8           0       -5.194498   -5.566048    0.224224
     41          6           0       -4.103707   -3.230708    0.579808
     42          6           0       -3.592564   -3.713110    1.929193
     43          8           0       -3.636793   -3.098794    2.875290
     44          8           0       -2.895353   -4.949025    1.628718
     45          6           0       -2.149915   -5.199528    2.866017
     46          6           0        2.707463   -0.783391   -1.266417
     47          6           0        4.070238   -0.550390   -0.513221
     48          6           0        5.104475    0.136566   -1.079794
     49          6           0        5.165392    0.963026   -2.385152
     50          6           0        6.384605    0.347603   -0.203129
     51          6           0        7.726900   -0.222760   -0.979837
     52          6           0        8.998352   -0.000835   -0.058638
     53          6           0       10.286998   -0.588797   -0.795805
     54          6           0       10.167521   -2.030000   -1.213038
     55          6           0       11.494832   -0.276588    0.051193
     56          6           0       12.874825   -0.396832   -0.719481
     57          6           0       13.988200   -0.085222    0.190787
     58          6           0       15.385513   -0.205241   -0.494499
     59          6           0       15.744552   -1.564766   -1.050969
     60          6           0       16.431219    0.380243    0.498902
     61          6           0       17.786602    0.490108   -0.022859
     62          6           0       18.843913    1.230966    0.738810
     63          6           0       20.396591    1.445844    0.200994
     64          6           0       20.287252    2.394447   -1.022480
     65          6           0       21.281577    1.885888    1.292353
     66          1           0       -4.299811    3.474398    1.605397
     67          1           0      -10.068655    4.018476   -0.290655
     68          1           0      -10.346420   -2.588582   -1.098990
     69          1           0       -2.635019   -1.004327    2.105924
     70          1           0       -2.397013    1.629486    1.106620
     71          1           0       -1.970444    0.973748    3.448672
     72          1           0       -2.967120    2.499634    3.632089
     73          1           0       -3.907290    0.955330    3.656054
     74          1           0       -1.997229   -1.701370   -0.550700
     75          1           0       -2.032869    0.000053   -0.598668
     76          1           0       -0.559571    0.691508    0.881445
     77          1           0       -0.114386   -0.933942    1.327351
     78          1           0       -5.663484    6.941039    0.799441
     79          1           0       -5.269844    6.103928    2.071918
     80          1           0       -4.377081    5.791143    0.522093
     81          1           0       -9.593596    5.899434   -0.283404
     82          1           0       -9.293844    7.970397    0.459539
     83          1           0       -7.680571    7.505585    1.351582
     84          1           0      -12.244559    2.954468   -2.310424
     85          1           0      -13.203900    1.905624   -1.481311
     86          1           0      -12.500061    2.992549   -0.577750
     87          1           0      -12.468207   -1.733175   -1.360263
     88          1           0      -13.358928   -0.378426   -1.396514
     89          1           0      -13.122879   -1.690888   -3.629233
     90          1           0      -12.500883    0.069077   -3.908484
     91          1           0      -11.148221   -1.187420   -3.572605
     92          1           0       -9.213723   -4.560042   -1.760797
     93          1           0       -7.868550   -5.673349   -0.804133
     94          1           0       -9.347731   -5.015690    0.091511
     95          1           0       -3.386421   -3.246353   -0.269612
     96          1           0       -1.937780   -4.175182    3.476809
     97          1           0       -2.760598   -5.801120    3.643302
     98          1           0       -1.272071   -5.856389    2.577079
     99          1           0        2.684594   -1.870027   -1.541790
    100          1           0        2.539699   -0.039566   -2.001230
    101          1           0        4.127972   -0.974418    0.326548
    102          1           0        4.188823    1.218818   -2.920133
    103          1           0        5.446946    2.034205   -2.131044
    104          1           0        5.844121    0.435685   -2.949163
    105          1           0        6.453790    1.419314   -0.086535
    106          1           0        6.314422   -0.153346    0.709414
    107          1           0        7.746993   -1.296059   -1.265545
    108          1           0        7.608542    0.378767   -2.160225
    109          1           0        9.032159    0.957380    0.198622
    110          1           0        8.850009   -0.572803    0.933612
    111          1           0       10.296001   -0.057686   -1.772124
    112          1           0        9.327783   -2.475634   -1.782595
    113          1           0       11.030009   -2.167115   -1.756113
    114          1           0       10.279021   -2.911719   -0.401493
    115          1           0       11.351905    0.891571    0.259526
    116          1           0       11.207108   -0.796393    0.968765
    117          1           0       13.040767   -1.385873   -1.300869
    118          1           0       12.910732    0.171405   -1.564290
    119          1           0       13.938720    1.038447    0.599476
    120          1           0       14.049636   -0.721028    1.143390
    121          1           0       15.398128    0.321080   -1.527706
    122          1           0       15.843271   -2.299584   -0.261346
    123          1           0       15.067380   -1.921185   -1.678039
    124          1           0       16.620192   -1.543597   -1.508275
    125          1           0       16.139845    1.561816    0.580545
    126          1           0       16.431022   -0.084959    1.580092
    127          1           0       18.109127   -0.607388   -0.346845
    128          1           0       17.854516    0.976799   -1.123990
    129          1           0       18.409585    2.313372    1.066642
    130          1           0       19.053815    0.627120    1.725932
    131          1           0       20.631070    0.350391   -0.185217
    132          1           0       20.092691    3.277286   -0.601597
    133          1           0       21.342644    2.312968   -1.622673
    134          1           0       19.660966    2.027855   -1.845279
    135          1           0       21.020742    1.277452    2.256401
    136          1           0       22.264554    1.780114    0.937551
    137          1           0       20.973617    2.840621    1.551934
 ---------------------------------------------------------------------

 SCF Done:  E(RCAM-B3LYP) =  -2932.52806513     A.U. after   17 cycles

 Excitation energies and oscillator strengths:

 Excited State   1:      Singlet-A      2.1795 eV  568.88 nm  f=0.2329  <S**2>=0.000
     240 -> 243        0.21907
     241 -> 242        0.66392
 This state for optimization and/or second-order correction.
 Total Energy, E(TD-HF/TD-KS) =  -2932.44797154
 Copying the excited state density for this state as the 1-particle RhoCI density.

 The electronic state is 1-A.
 Alpha  occ. eigenvalues --  -46.84993 -19.26948 -19.25017 -19.23224 -19.20816
 Alpha  occ. eigenvalues --  -19.19783 -14.41620 -14.40130 -14.39477 -14.38118
 Alpha  occ. eigenvalues --  -10.39210 -10.39051 -10.34602 -10.32138 -10.31426
 Alpha  occ. eigenvalues --  -10.31423 -10.30101 -10.29798 -10.29561 -10.29501
 Alpha  occ. eigenvalues --  -10.29064 -10.28870 -10.28758 -10.28471 -10.28365
 Alpha  occ. eigenvalues --  -10.28218 -10.28128 -10.28079 -10.27840 -10.27828
 Alpha  occ. eigenvalues --  -10.27807 -10.27537 -10.27528 -10.27511 -10.27471
 Alpha  occ. eigenvalues --  -10.27430 -10.27142 -10.27103 -10.27062 -10.26772
 Alpha  occ. eigenvalues --  -10.26744 -10.26664 -10.26469 -10.26391 -10.26233
 Alpha  occ. eigenvalues --  -10.26212 -10.26208 -10.26140 -10.26093 -10.26085
 Alpha  occ. eigenvalues --  -10.26058 -10.25945 -10.25914 -10.25906 -10.25543
 Alpha  occ. eigenvalues --  -10.25394 -10.25364 -10.24848 -10.24827 -10.24759
 Alpha  occ. eigenvalues --  -10.24275 -10.24121 -10.23525 -10.22500 -10.21875
 Alpha  occ. eigenvalues --   -3.13862  -1.88584  -1.88104  -1.88013  -1.20140
 Alpha  occ. eigenvalues --   -1.18143  -1.10781  -1.09596  -1.08669  -1.04802
 Alpha  occ. eigenvalues --   -1.04034  -1.03840  -1.02610  -0.91975  -0.90868
 Alpha  occ. eigenvalues --   -0.90779  -0.89789  -0.89117  -0.88833  -0.88464
 Alpha  occ. eigenvalues --   -0.88168  -0.88019  -0.87680  -0.86700  -0.85832
 Alpha  occ. eigenvalues --   -0.84926  -0.84036  -0.83093  -0.83041  -0.82292
 Alpha  occ. eigenvalues --   -0.81739  -0.80970  -0.80075  -0.79208  -0.78407
 Alpha  occ. eigenvalues --   -0.78033  -0.77752  -0.76658  -0.76434  -0.76076
 Alpha  occ. eigenvalues --   -0.75413  -0.74545  -0.73712  -0.73077  -0.71979
 Alpha  occ. eigenvalues --   -0.71564  -0.70111  -0.69424  -0.69132  -0.67198
 Alpha  occ. eigenvalues --   -0.66429  -0.65484  -0.65334  -0.64247  -0.64235
 Alpha  occ. eigenvalues --   -0.64099  -0.63541  -0.63086  -0.61741  -0.61157
 Alpha  occ. eigenvalues --   -0.60984  -0.60844  -0.60784  -0.59693  -0.59498
 Alpha  occ. eigenvalues --   -0.58804  -0.58115  -0.57842  -0.57617  -0.56840
 Alpha  occ. eigenvalues --   -0.56413  -0.55519  -0.55209  -0.54845  -0.54522
 Alpha  occ. eigenvalues --   -0.54426  -0.54261  -0.53857  -0.53511  -0.53221
 Alpha  occ. eigenvalues --   -0.52710  -0.52612  -0.52375  -0.52099  -0.51922
 Alpha  occ. eigenvalues --   -0.51650  -0.51507  -0.51207  -0.51181  -0.50763
 Alpha  occ. eigenvalues --   -0.50636  -0.50167  -0.49949  -0.49876  -0.49781
 Alpha  occ. eigenvalues --   -0.49664  -0.49415  -0.48788  -0.48675  -0.48598
 Alpha  occ. eigenvalues --   -0.48262  -0.47791  -0.47573  -0.47443  -0.47093
 Alpha  occ. eigenvalues --   -0.46999  -0.46714  -0.46662  -0.46322  -0.46281
 Alpha  occ. eigenvalues --   -0.45950  -0.45743  -0.45546  -0.45403  -0.45200
 Alpha  occ. eigenvalues --   -0.45129  -0.44716  -0.44507  -0.44309  -0.44166
 Alpha  occ. eigenvalues --   -0.44013  -0.43756  -0.43594  -0.43334  -0.43105
 Alpha  occ. eigenvalues --   -0.42984  -0.42791  -0.42636  -0.42479  -0.42401
 Alpha  occ. eigenvalues --   -0.42320  -0.42220  -0.41995  -0.41695  -0.41650
 Alpha  occ. eigenvalues --   -0.41466  -0.41364  -0.41052  -0.40557  -0.40373
 Alpha  occ. eigenvalues --   -0.40152  -0.39547  -0.39404  -0.39249  -0.39146
 Alpha  occ. eigenvalues --   -0.38511  -0.38225  -0.38112  -0.37883  -0.37563
 Alpha  occ. eigenvalues --   -0.37254  -0.37238  -0.36744  -0.36662  -0.36580
 Alpha  occ. eigenvalues --   -0.36536  -0.36251  -0.35711  -0.35521  -0.35178
 Alpha  occ. eigenvalues --   -0.34529  -0.34399  -0.34041  -0.33754  -0.33664
 Alpha  occ. eigenvalues --   -0.32945  -0.32532  -0.32214  -0.30573  -0.29705
 Alpha  occ. eigenvalues --   -0.29308  -0.28457  -0.28147  -0.27090  -0.23712
 Alpha  occ. eigenvalues --   -0.21272
 Alpha virt. eigenvalues --   -0.05785  -0.02375   0.02169   0.04405   0.04669
 Alpha virt. eigenvalues --    0.05338   0.06825   0.06996   0.07423   0.07682
 Alpha virt. eigenvalues --    0.09219   0.10357   0.11470   0.11561   0.12027

 Mulliken charges:
               1
     1  Mg   0.825468
     2  C    0.086482
     3  C   -0.158429
     4  C   -0.187157
     5  C   -0.148489
     6  N   -0.640806
     7  C    0.267300
     8  C   -0.160969
     9  C   -0.131026
    10  C    0.355812
    11  C   -0.307388
    12  C   -0.169927
    13  C   -0.285633
    14  C    0.641270
    15  O   -0.490649
    16  O   -0.481575
    17  N   -0.746108
    18  C    0.364045
    19  C    0.017172
    20  C   -0.003106
    21  C    0.322536
    22  C   -0.363903
    23  C   -0.086784
    24  C   -0.247073
    25  N   -0.649508
    26  C    0.268562
    27  C   -0.016258
    28  C   -0.004868
    29  C    0.239758
    30  C   -0.322905
    31  C   -0.208106
    32  C   -0.296650
    33  N   -0.747276
    34  C    0.242707
    35  C    0.015121
    36  C   -0.046443
    37  C    0.382059
    38  C   -0.360589
    39  C    0.337085
    40  O   -0.444963
    41  C   -0.367099
    42  C    0.649453
    43  O   -0.393435
    44  O   -0.471562
    45  C   -0.103581
    46  C    0.014638
    47  C   -0.119612
    48  C    0.084242
    49  C   -0.358007
    50  C   -0.217648
    51  C   -0.175332
    52  C   -0.173967
    53  C   -0.071145
    54  C   -0.313844
    55  C   -0.162776
    56  C   -0.183345
    57  C   -0.149056
    58  C   -0.067665
    59  C   -0.307296
    60  C   -0.147098
    61  C   -0.160372
    62  C   -0.162220
    63  C   -0.068495
    64  C   -0.286403
    65  C   -0.290441
    66  H    0.027458
    67  H    0.085805
    68  H    0.115137
    69  H    0.119783
    70  H    0.109763
    71  H    0.095561
    72  H    0.105203
    73  H    0.127214
    74  H    0.114289
    75  H    0.127722
    76  H    0.121402
    77  H    0.128922
    78  H    0.124398
    79  H    0.138974
    80  H    0.092085
    81  H    0.078488
    82  H    0.107039
    83  H    0.093055
    84  H    0.134110
    85  H    0.115540
    86  H    0.119000
    87  H    0.111349
    88  H    0.110104
    89  H    0.116131
    90  H    0.078415
    91  H    0.098030
    92  H    0.088169
    93  H    0.151328
    94  H    0.140475
    95  H    0.165515
    96  H    0.121383
    97  H    0.111792
    98  H    0.118202
    99  H    0.139361
   100  H    0.133414
   101  H    0.079995
   102  H    0.103760
   103  H    0.113896
   104  H    0.143132
   105  H    0.108565
   106  H    0.105429
   107  H    0.105743
   108  H    0.037945
   109  H    0.104282
   110  H    0.079814
   111  H    0.087641
   112  H    0.108260
   113  H    0.113738
   114  H    0.069721
   115  H    0.077721
   116  H    0.102523
   117  H    0.083633
   118  H    0.111742
   119  H    0.077053
   120  H    0.086790
   121  H    0.071916
   122  H    0.090664
   123  H    0.104457
   124  H    0.113689
   125  H    0.068350
   126  H    0.087419
   127  H    0.070188
   128  H    0.065823
   129  H    0.057390
   130  H    0.064751
   131  H    0.068056
   132  H    0.113685
   133  H    0.066935
   134  H    0.113346
   135  H    0.093678
   136  H    0.115956
   137  H    0.110976
 Sum of Mulliken charges =   0.00000

 Dipole moment (field-independent basis, Debye):
    X=              1.6751    Y=              5.0977    Z=              1.3981  Tot=              5.5450
 Quadrupole moment (field-independent basis, Debye-Ang):
   XX=           -324.8560   YY=           -404.4677   ZZ=           -394.8787
   XY=            -20.0690   XZ=             -6.3759   YZ=              3.7980

 Normal termination of Gaussian 09 at Sat Jul  6 17:52:56 2019.
