 Gaussian 16, Revision A.03,
 Gaussian 16:  ES64L-G16RevA.03 25-Dec-2016

 ----------------------------------------------------------------------
 # td=(NStates=1) iop(3/107=0140000000,3/108=0140000000) CAM-B3LYP/6-31
 G(d,p)
 ----------------------------------------------------------------------

 --
 TD
 --
 Symbolic Z-matrix:
 Charge =  0 Multiplicity = 1

                         Standard orientation:
 ---------------------------------------------------------------------
 Center     Atomic      Atomic             Coordinates (Angstroms)
 Number     Number       Type             X           Y           Z
 ---------------------------------------------------------------------
      1         12           0       -7.150468    0.721591    0.068399
      2          6           0       -4.872224   -2.018931    0.620745
      3          6           0       -4.725210    2.768767    1.240069
      4          6           0       -9.367609    3.116543   -0.391222
      5          6           0       -9.539866   -1.650464   -0.952983
      6          7           0       -5.073432    0.385174    0.792251
      7          6           0       -4.302683   -0.731256    0.909330
      8          6           0       -2.860288   -0.503828    1.228775
      9          6           0       -3.072153    1.009762    1.743161
     10          6           0       -4.406325    1.520957    1.263776
     11          6           0       -2.939835    1.111190    3.322930
     12          6           0       -1.973116   -0.603817    0.152833
     13          6           0       -0.486732   -0.665899    0.514569
     14          6           0        0.545344   -0.739621   -0.729475
     15          8           0        0.275135   -1.120439   -1.843696
     16          8           0        1.748654   -0.570560   -0.264618
     17          7           0       -7.062565    2.717804    0.348939
     18          6           0       -6.008435    3.438608    0.778576
     19          6           0       -6.342960    4.824847    0.872459
     20          6           0       -7.644810    4.862676    0.427860
     21          6           0       -8.062359    3.503981    0.174603
     22          6           0       -5.459978    5.856034    1.337167
     23          6           0       -8.386712    6.070897    0.170166
     24          6           0       -8.346505    7.255169    0.825033
     25          7           0       -9.077842    0.684246   -0.564422
     26          6           0       -9.794576    1.891734   -0.742347
     27          6           0      -11.177522    1.483385   -1.213117
     28          6           0      -11.284793    0.169026   -1.222517
     29          6           0       -9.894762   -0.368185   -0.934629
     30          6           0      -12.192412    2.527732   -1.373815
     31          6           0      -12.395083   -0.626643   -1.833267
     32          6           0      -12.272111   -0.933734   -3.342145
     33          7           0       -7.275824   -1.429628   -0.148813
     34          6           0       -8.272055   -2.251686   -0.636864
     35          6           0       -7.828355   -3.657578   -0.596844
     36          6           0       -6.539412   -3.584663   -0.090074
     37          6           0       -6.209240   -2.166118    0.155121
     38          6           0       -8.762676   -4.778004   -0.824705
     39          6           0       -5.361213   -4.428242    0.167484
     40          8           0       -5.195719   -5.593294    0.069303
     41          6           0       -4.195207   -3.354022    0.651713
     42          6           0       -3.578258   -3.807356    1.879538
     43          8           0       -3.833545   -3.296762    2.951080
     44          8           0       -2.773121   -4.780843    1.779418
     45          6           0       -2.246585   -5.316131    3.022731
     46          6           0        2.765939   -0.657676   -1.295688
     47          6           0        4.148461   -0.343093   -0.642714
     48          6           0        5.047964    0.433454   -1.003093
     49          6           0        5.032102    1.320071   -2.243211
     50          6           0        6.423993    0.501122   -0.242457
     51          6           0        7.594806   -0.153137   -0.962950
     52          6           0        8.949783   -0.047902   -0.122150
     53          6           0       10.132582   -0.386976   -0.908285
     54          6           0       10.144688   -1.801326   -1.568358
     55          6           0       11.463260   -0.303095   -0.108238
     56          6           0       12.751522   -0.323582   -0.906056
     57          6           0       13.893204   -0.061243    0.154215
     58          6           0       15.383289   -0.360071   -0.347986
     59          6           0       15.616444   -1.810288   -0.653581
     60          6           0       16.437700    0.227227    0.562508
     61          6           0       17.747178    0.587731   -0.084595
     62          6           0       18.781404    1.212998    0.765190
     63          6           0       20.157944    1.353675    0.270672
     64          6           0       20.277072    2.238551   -1.082520
     65          6           0       21.225699    1.897216    1.305506
     66          1           0       -4.015636    3.616999    1.804197
     67          1           0      -10.151641    3.889655   -0.440775
     68          1           0      -10.262455   -2.264586   -1.124156
     69          1           0       -2.582801   -1.017601    2.056801
     70          1           0       -2.319051    1.784426    1.244357
     71          1           0       -1.906086    0.754506    3.580219
     72          1           0       -2.863258    2.136511    3.617626
     73          1           0       -3.621398    0.391852    3.540933
     74          1           0       -2.133517   -1.656870   -0.389102
     75          1           0       -2.212101    0.042562   -0.724470
     76          1           0       -0.027475    0.243380    1.078577
     77          1           0       -0.299384   -1.640287    1.017204
     78          1           0       -5.557520    6.470104    0.510806
     79          1           0       -5.651660    6.158515    2.298501
     80          1           0       -4.279898    5.368116    1.347840
     81          1           0       -9.236089    6.067547   -0.540883
     82          1           0       -9.015123    8.101115    0.376341
     83          1           0       -7.808624    7.532379    1.520343
     84          1           0      -11.857916    3.248998   -2.105872
     85          1           0      -13.202800    2.137385   -1.550497
     86          1           0      -12.158860    3.209295   -0.378745
     87          1           0      -12.450283   -1.732573   -1.433495
     88          1           0      -13.240111   -0.120326   -1.538552
     89          1           0      -13.030787   -1.611143   -3.629657
     90          1           0      -11.840445   -0.082252   -3.986458
     91          1           0      -11.474208   -1.557767   -3.314088
     92          1           0       -9.295734   -4.977495   -1.799380
     93          1           0       -8.103962   -5.765144   -0.866668
     94          1           0       -9.697103   -4.889828    0.103790
     95          1           0       -3.399611   -3.483172   -0.119508
     96          1           0       -1.558293   -4.837029    3.516574
     97          1           0       -3.084690   -5.704223    3.655127
     98          1           0       -1.817088   -6.207193    2.644822
     99          1           0        2.637765   -1.689112   -1.816501
    100          1           0        2.752851    0.115540   -2.055842
    101          1           0        4.305694   -1.032389    0.321405
    102          1           0        3.936099    1.561629   -2.423670
    103          1           0        5.459375    2.330405   -2.208716
    104          1           0        5.634328    0.814332   -3.132576
    105          1           0        6.746043    1.535052   -0.085657
    106          1           0        6.443843   -0.046636    0.652686
    107          1           0        7.516635   -1.180224   -1.031590
    108          1           0        7.722824    0.350236   -1.867627
    109          1           0        9.022614    0.840673    0.306826
    110          1           0        8.941781   -0.491056    0.823036
    111          1           0       10.380159    0.321927   -1.846402
    112          1           0        9.073677   -1.929216   -2.059468
    113          1           0       10.882554   -2.023821   -2.364238
    114          1           0       10.108961   -2.496081   -0.775358
    115          1           0       11.332912    0.676054    0.192047
    116          1           0       11.461445   -1.051186    0.742022
    117          1           0       12.930433   -1.302882   -1.073359
    118          1           0       12.751058    0.272591   -1.736079
    119          1           0       13.655813    1.029136    0.547195
    120          1           0       13.827409   -0.741081    0.901597
    121          1           0       15.499300    0.455955   -1.263968
    122          1           0       15.445128   -2.474965    0.031963
    123          1           0       14.926312   -2.114047   -1.541739
    124          1           0       16.706271   -1.904704   -1.161154
    125          1           0       16.062697    1.150997    1.074524
    126          1           0       16.727883   -0.229511    1.273827
    127          1           0       18.211394   -0.275533   -0.642042
    128          1           0       17.539525    1.175602   -1.030464
    129          1           0       18.283778    2.169618    1.110060
    130          1           0       18.945692    0.629320    1.844744
    131          1           0       20.360120    0.425963   -0.166567
    132          1           0       19.726614    2.989001   -0.901421
    133          1           0       21.195418    2.102074   -1.568314
    134          1           0       19.580011    1.811868   -1.743557
    135          1           0       21.302865    1.237873    2.122220
    136          1           0       22.269559    1.720198    1.045000
    137          1           0       21.000903    2.900737    1.421964
 ---------------------------------------------------------------------

 SCF Done:  E(RCAM-B3LYP) =  -2933.36772904     A.U. after   16 cycles

 Excitation energies and oscillator strengths:

 Excited State   1:      Singlet-A      1.8992 eV  652.84 nm  f=0.3855  <S**2>=0.000
     240 -> 243       -0.17365
     241 -> 242        0.68636
 This state for optimization and/or second-order correction.
 Total Energy, E(TD-HF/TD-DFT) =  -2933.29793619
 Copying the excited state density for this state as the 1-particle RhoCI density.

 The electronic state is 1-A.
 Alpha  occ. eigenvalues --  -46.81174 -19.23336 -19.22497 -19.17240 -19.16351
 Alpha  occ. eigenvalues --  -19.14017 -14.37788 -14.35342 -14.35295 -14.35214
 Alpha  occ. eigenvalues --  -10.34407 -10.32594 -10.31100 -10.28563 -10.26725
 Alpha  occ. eigenvalues --  -10.25994 -10.25499 -10.24850 -10.24831 -10.24692
 Alpha  occ. eigenvalues --  -10.24670 -10.24654 -10.24552 -10.24540 -10.24451
 Alpha  occ. eigenvalues --  -10.24259 -10.23448 -10.23412 -10.23336 -10.23126
 Alpha  occ. eigenvalues --  -10.22919 -10.22831 -10.22801 -10.22750 -10.22725
 Alpha  occ. eigenvalues --  -10.22508 -10.22371 -10.22145 -10.22131 -10.22023
 Alpha  occ. eigenvalues --  -10.22008 -10.21901 -10.21853 -10.21782 -10.21507
 Alpha  occ. eigenvalues --  -10.21424 -10.21245 -10.21053 -10.21032 -10.20989
 Alpha  occ. eigenvalues --  -10.20826 -10.20795 -10.20681 -10.20539 -10.20471
 Alpha  occ. eigenvalues --  -10.20351 -10.20298 -10.20235 -10.20026 -10.19756
 Alpha  occ. eigenvalues --  -10.19492 -10.19170 -10.19072 -10.18218 -10.17371
 Alpha  occ. eigenvalues --   -3.09524  -1.84482  -1.83990  -1.83914  -1.15602
 Alpha  occ. eigenvalues --   -1.15202  -1.08744  -1.04679  -1.03000  -1.00814
 Alpha  occ. eigenvalues --   -0.98797  -0.97835  -0.96349  -0.86987  -0.86794
 Alpha  occ. eigenvalues --   -0.85972  -0.85697  -0.85240  -0.84700  -0.84256
 Alpha  occ. eigenvalues --   -0.83647  -0.83317  -0.82777  -0.81869  -0.81285
 Alpha  occ. eigenvalues --   -0.80446  -0.79629  -0.79411  -0.78611  -0.78389
 Alpha  occ. eigenvalues --   -0.77734  -0.76980  -0.75974  -0.74926  -0.73400
 Alpha  occ. eigenvalues --   -0.73277  -0.72836  -0.72532  -0.72471  -0.71849
 Alpha  occ. eigenvalues --   -0.71592  -0.70866  -0.70540  -0.69699  -0.68288
 Alpha  occ. eigenvalues --   -0.66739  -0.66011  -0.65696  -0.65043  -0.64109
 Alpha  occ. eigenvalues --   -0.63404  -0.63220  -0.62350  -0.61143  -0.60920
 Alpha  occ. eigenvalues --   -0.60184  -0.59978  -0.59807  -0.58762  -0.58489
 Alpha  occ. eigenvalues --   -0.57845  -0.56491  -0.55748  -0.55619  -0.55113
 Alpha  occ. eigenvalues --   -0.54836  -0.54278  -0.53826  -0.53421  -0.53326
 Alpha  occ. eigenvalues --   -0.52643  -0.52083  -0.52016  -0.51518  -0.51270
 Alpha  occ. eigenvalues --   -0.50645  -0.50495  -0.50396  -0.50085  -0.49553
 Alpha  occ. eigenvalues --   -0.49525  -0.49362  -0.49306  -0.48977  -0.48672
 Alpha  occ. eigenvalues --   -0.48478  -0.47980  -0.47815  -0.47610  -0.47030
 Alpha  occ. eigenvalues --   -0.46817  -0.46605  -0.46509  -0.46343  -0.46098
 Alpha  occ. eigenvalues --   -0.45841  -0.45672  -0.45471  -0.45207  -0.45089
 Alpha  occ. eigenvalues --   -0.45043  -0.44451  -0.44335  -0.44290  -0.44209
 Alpha  occ. eigenvalues --   -0.43913  -0.43709  -0.43652  -0.43551  -0.42769
 Alpha  occ. eigenvalues --   -0.42508  -0.42114  -0.41989  -0.41827  -0.41660
 Alpha  occ. eigenvalues --   -0.41597  -0.41526  -0.41271  -0.41083  -0.40920
 Alpha  occ. eigenvalues --   -0.40746  -0.40568  -0.40463  -0.40327  -0.40072
 Alpha  occ. eigenvalues --   -0.39970  -0.39950  -0.39676  -0.39522  -0.39398
 Alpha  occ. eigenvalues --   -0.39117  -0.38880  -0.38662  -0.38463  -0.38170
 Alpha  occ. eigenvalues --   -0.38057  -0.37907  -0.37601  -0.37522  -0.36994
 Alpha  occ. eigenvalues --   -0.36949  -0.36708  -0.36589  -0.36454  -0.36164
 Alpha  occ. eigenvalues --   -0.35894  -0.35820  -0.35270  -0.35050  -0.33946
 Alpha  occ. eigenvalues --   -0.33712  -0.33599  -0.33457  -0.33316  -0.33300
 Alpha  occ. eigenvalues --   -0.32866  -0.32809  -0.32621  -0.32558  -0.32012
 Alpha  occ. eigenvalues --   -0.31678  -0.31524  -0.30527  -0.30413  -0.29795
 Alpha  occ. eigenvalues --   -0.29644  -0.29310  -0.29019  -0.28637  -0.28434
 Alpha  occ. eigenvalues --   -0.27388  -0.26811  -0.26415  -0.24619  -0.21627
 Alpha  occ. eigenvalues --   -0.19752
 Alpha virt. eigenvalues --   -0.08013  -0.02480   0.00134   0.02935   0.04213
 Alpha virt. eigenvalues --    0.04770   0.04985   0.05502   0.05566   0.06036
 Alpha virt. eigenvalues --    0.06413   0.08502   0.08670   0.09581   0.09791

 Mulliken charges:
               1
     1  Mg   0.827358
     2  C    0.115942
     3  C   -0.193505
     4  C   -0.182812
     5  C   -0.151774
     6  N   -0.649999
     7  C    0.286101
     8  C   -0.092478
     9  C   -0.208694
    10  C    0.404923
    11  C   -0.297474
    12  C   -0.160060
    13  C   -0.259585
    14  C    0.576589
    15  O   -0.470492
    16  O   -0.424057
    17  N   -0.706677
    18  C    0.251787
    19  C    0.028984
    20  C    0.006444
    21  C    0.322176
    22  C   -0.359083
    23  C   -0.110907
    24  C   -0.213497
    25  N   -0.719232
    26  C    0.325422
    27  C    0.072994
    28  C    0.004980
    29  C    0.317507
    30  C   -0.386737
    31  C   -0.235832
    32  C   -0.307809
    33  N   -0.721647
    34  C    0.260565
    35  C    0.061606
    36  C   -0.004481
    37  C    0.330262
    38  C   -0.385692
    39  C    0.360051
    40  O   -0.420512
    41  C   -0.370137
    42  C    0.619158
    43  O   -0.509288
    44  O   -0.417022
    45  C   -0.090716
    46  C   -0.001106
    47  C   -0.148658
    48  C    0.164549
    49  C   -0.379841
    50  C   -0.231271
    51  C   -0.178699
    52  C   -0.184980
    53  C   -0.056330
    54  C   -0.312051
    55  C   -0.171576
    56  C   -0.168937
    57  C   -0.183422
    58  C   -0.054041
    59  C   -0.312913
    60  C   -0.129141
    61  C   -0.186781
    62  C   -0.148338
    63  C   -0.076857
    64  C   -0.321546
    65  C   -0.308293
    66  H    0.071388
    67  H    0.079845
    68  H    0.046104
    69  H    0.118088
    70  H    0.074720
    71  H    0.097699
    72  H    0.115567
    73  H    0.138530
    74  H    0.094118
    75  H    0.119646
    76  H    0.116481
    77  H    0.136848
    78  H    0.141296
    79  H    0.140067
    80  H    0.068337
    81  H    0.081468
    82  H    0.077059
    83  H    0.079470
    84  H    0.131790
    85  H    0.114452
    86  H    0.107724
    87  H    0.083745
    88  H    0.105405
    89  H    0.113454
    90  H    0.106437
    91  H    0.123889
    92  H    0.127855
    93  H    0.126050
    94  H    0.095063
    95  H    0.147636
    96  H    0.140639
    97  H    0.134976
    98  H    0.126200
    99  H    0.133332
   100  H    0.118336
   101  H    0.073873
   102  H    0.109845
   103  H    0.120777
   104  H    0.118342
   105  H    0.096201
   106  H    0.098249
   107  H    0.117446
   108  H    0.099915
   109  H    0.097314
   110  H    0.090469
   111  H    0.052931
   112  H    0.071408
   113  H    0.108256
   114  H    0.102842
   115  H    0.091247
   116  H    0.077542
   117  H    0.105225
   118  H    0.096925
   119  H    0.071986
   120  H    0.098718
   121  H    0.053689
   122  H    0.122972
   123  H    0.093856
   124  H    0.092016
   125  H    0.075390
   126  H    0.092082
   127  H    0.075710
   128  H    0.080490
   129  H    0.077335
   130  H    0.055116
   131  H    0.089379
   132  H    0.106921
   133  H    0.111009
   134  H    0.093950
   135  H    0.101951
   136  H    0.096772
   137  H    0.115716
 Sum of Mulliken charges =  -0.00000

 Dipole moment (field-independent basis, Debye):
    X=              2.0071    Y=              2.0452    Z=              0.0325  Tot=              2.8657
 Quadrupole moment (field-independent basis, Debye-Ang):
   XX=           -351.5512   YY=           -394.5130   ZZ=           -398.3589
   XY=            -17.0277   XZ=             16.1641   YZ=             -4.1932

 Normal termination of Gaussian 16 at Tue Sep 10 20:03:57 2019.
