 Gaussian 16, Revision A.03,
 Gaussian 16:  ES64L-G16RevA.03 25-Dec-2016

 ----------------------------------------------------------------------
 # td=(NStates=1) iop(3/107=0140000000,3/108=0140000000) CAM-B3LYP/6-31
 G(d,p)
 ----------------------------------------------------------------------

 --
 TD
 --
 Symbolic Z-matrix:
 Charge =  0 Multiplicity = 1

                         Standard orientation:
 ---------------------------------------------------------------------
 Center     Atomic      Atomic             Coordinates (Angstroms)
 Number     Number       Type             X           Y           Z
 ---------------------------------------------------------------------
      1         12           0       -7.200810    0.657538    0.093449
      2          6           0       -4.861372   -1.887482    0.581241
      3          6           0       -4.849152    2.828864    1.211935
      4          6           0       -9.404877    3.056123   -0.450872
      5          6           0       -9.537071   -1.731316   -0.861935
      6          7           0       -5.099608    0.469614    0.796763
      7          6           0       -4.292141   -0.736661    0.841492
      8          6           0       -2.850986   -0.384205    1.307987
      9          6           0       -2.989295    1.156666    1.710328
     10          6           0       -4.395393    1.532111    1.136271
     11          6           0       -2.959980    1.426464    3.214855
     12          6           0       -1.910051   -0.580204    0.146473
     13          6           0       -0.444255   -0.454269    0.569963
     14          6           0        0.543078   -0.658029   -0.569974
     15          8           0        0.225907   -1.228666   -1.609772
     16          8           0        1.790530   -0.342805   -0.232295
     17          7           0       -7.089234    2.603214    0.353435
     18          6           0       -6.135543    3.277047    0.942896
     19          6           0       -6.541600    4.746565    0.879522
     20          6           0       -7.801320    4.818451    0.334314
     21          6           0       -8.169013    3.497590   -0.019861
     22          6           0       -5.613047    5.842116    1.329132
     23          6           0       -8.722283    5.855355    0.129651
     24          6           0       -8.548526    7.008475    0.785249
     25          7           0       -9.094488    0.599426   -0.567053
     26          6           0       -9.731317    1.770184   -0.850390
     27          6           0      -11.136631    1.444001   -1.354089
     28          6           0      -11.155874    0.073094   -1.381063
     29          6           0       -9.929985   -0.509748   -0.994570
     30          6           0      -12.212909    2.466204   -1.575938
     31          6           0      -12.244504   -0.746353   -1.975387
     32          6           0      -12.090375   -1.192474   -3.403741
     33          7           0       -7.281737   -1.433296   -0.069593
     34          6           0       -8.239731   -2.278405   -0.522801
     35          6           0       -7.693945   -3.592044   -0.481676
     36          6           0       -6.488234   -3.600198   -0.047945
     37          6           0       -6.191139   -2.218208    0.244457
     38          6           0       -8.460002   -4.733819   -0.801390
     39          6           0       -5.293138   -4.345109    0.209487
     40          8           0       -5.165592   -5.586968   -0.002745
     41          6           0       -4.222798   -3.286990    0.639733
     42          6           0       -3.506494   -3.652857    1.987254
     43          8           0       -3.600403   -3.035749    2.991338
     44          8           0       -2.901793   -4.833949    1.801007
     45          6           0       -2.158023   -5.229921    3.069757
     46          6           0        2.846722   -0.608299   -1.166439
     47          6           0        4.144849   -0.319023   -0.555100
     48          6           0        5.203320    0.519263   -0.986775
     49          6           0        5.178960    1.474540   -2.146659
     50          6           0        6.403270    0.532094   -0.164667
     51          6           0        7.654074   -0.127719   -0.854644
     52          6           0        8.931163   -0.186288    0.088932
     53          6           0       10.123377   -0.558131   -0.909182
     54          6           0       10.017604   -2.028284   -1.319889
     55          6           0       11.403215   -0.302386    0.002370
     56          6           0       12.669181   -0.517019   -0.852829
     57          6           0       13.871751   -0.213372    0.136827
     58          6           0       15.224504   -0.261920   -0.479198
     59          6           0       15.722342   -1.708924   -0.878344
     60          6           0       16.363846    0.417462    0.282193
     61          6           0       17.727778    0.501497   -0.272593
     62          6           0       18.809979    1.147673    0.666140
     63          6           0       20.191558    1.368152    0.166380
     64          6           0       20.335855    2.210576   -1.210553
     65          6           0       21.049257    1.991758    1.285326
     66          1           0       -3.919386    3.448960    1.816146
     67          1           0       -9.970574    3.844057   -0.723254
     68          1           0      -10.195413   -2.532680   -1.151176
     69          1           0       -2.552182   -0.895992    2.202283
     70          1           0       -2.063877    1.703553    1.489760
     71          1           0       -1.862934    1.088068    3.677860
     72          1           0       -3.144513    2.444882    3.538678
     73          1           0       -3.713720    0.692827    3.594787
     74          1           0       -1.940239   -1.655051   -0.326779
     75          1           0       -2.132019    0.132301   -0.635404
     76          1           0       -0.136663    0.608929    1.071202
     77          1           0        0.032377   -1.181904    1.446617
     78          1           0       -5.855799    6.673439    0.655096
     79          1           0       -5.625037    6.146514    2.408634
     80          1           0       -4.617802    5.587421    1.027723
     81          1           0       -9.284090    5.823668   -0.766615
     82          1           0       -9.115325    7.972864    0.485665
     83          1           0       -7.929828    7.203266    1.434860
     84          1           0      -12.019105    3.061624   -2.286212
     85          1           0      -13.155585    1.999016   -1.805347
     86          1           0      -12.210686    3.287720   -0.771151
     87          1           0      -12.104357   -1.757687   -1.367141
     88          1           0      -13.245523   -0.281960   -1.667327
     89          1           0      -12.924786   -1.912276   -3.651918
     90          1           0      -12.194708   -0.126312   -4.024950
     91          1           0      -11.076346   -1.455217   -3.466710
     92          1           0       -8.807913   -4.833752   -1.807973
     93          1           0       -7.917749   -5.727231   -0.703058
     94          1           0       -9.376996   -4.668420   -0.117412
     95          1           0       -3.570000   -3.357562   -0.290411
     96          1           0       -1.520458   -4.358642    3.283241
     97          1           0       -2.939423   -5.456971    3.833627
     98          1           0       -1.556771   -6.153215    2.826507
     99          1           0        2.727645   -1.702586   -1.523692
    100          1           0        2.590640   -0.020605   -2.163439
    101          1           0        4.170270   -0.832812    0.390534
    102          1           0        4.170821    1.589608   -2.683107
    103          1           0        5.151551    2.520769   -1.910018
    104          1           0        5.800700    0.976287   -2.846686
    105          1           0        6.743023    1.618174   -0.035209
    106          1           0        6.315094    0.070253    0.721654
    107          1           0        7.412071   -1.121046   -1.350109
    108          1           0        7.862888    0.528828   -1.759787
    109          1           0        8.978018    0.681329    0.596579
    110          1           0        8.940531   -0.875666    0.872075
    111          1           0       10.142628    0.140298   -1.672827
    112          1           0        9.017385   -2.239657   -1.906766
    113          1           0       10.793188   -2.362991   -1.952758
    114          1           0       10.103663   -2.683289   -0.491118
    115          1           0       11.644562    0.668728    0.410891
    116          1           0       11.206110   -0.952894    0.810751
    117          1           0       12.770490   -1.497275   -1.259550
    118          1           0       12.614795    0.119195   -1.784554
    119          1           0       13.757400    0.816905    0.625824
    120          1           0       13.718940   -0.804455    1.167635
    121          1           0       15.179349    0.198809   -1.623521
    122          1           0       15.781660   -2.297551   -0.056606
    123          1           0       14.913098   -2.366504   -1.525141
    124          1           0       16.713581   -1.893420   -1.412424
    125          1           0       16.131299    1.425888    0.956100
    126          1           0       16.494727   -0.144659    1.358281
    127          1           0       18.339175   -0.525556   -0.490300
    128          1           0       17.741808    1.235531   -1.153988
    129          1           0       18.472480    2.209351    1.151521
    130          1           0       18.771365    0.615007    1.777543
    131          1           0       20.513983    0.281803   -0.061652
    132          1           0       19.795291    3.350601   -1.209164
    133          1           0       21.431762    2.420467   -1.519533
    134          1           0       19.864144    1.613181   -1.996897
    135          1           0       21.083763    1.379011    2.229531
    136          1           0       22.114323    2.338770    1.181696
    137          1           0       20.441156    2.943875    1.741882
 ---------------------------------------------------------------------

 SCF Done:  E(RCAM-B3LYP) =  -2933.47747423     A.U. after   15 cycles

 Excitation energies and oscillator strengths:

 Excited State   1:      Singlet-A      2.0950 eV  591.81 nm  f=0.3021  <S**2>=0.000
     240 -> 243       -0.19284
     241 -> 242        0.67853
 This state for optimization and/or second-order correction.
 Total Energy, E(TD-HF/TD-DFT) =  -2933.40048444
 Copying the excited state density for this state as the 1-particle RhoCI density.

 The electronic state is 1-A.
 Alpha  occ. eigenvalues --  -46.79369 -19.21979 -19.21864 -19.17013 -19.15774
 Alpha  occ. eigenvalues --  -19.14830 -14.37179 -14.35228 -14.35044 -14.34424
 Alpha  occ. eigenvalues --  -10.34357 -10.33987 -10.29655 -10.28056 -10.27847
 Alpha  occ. eigenvalues --  -10.26098 -10.25907 -10.25389 -10.25278 -10.25146
 Alpha  occ. eigenvalues --  -10.25135 -10.24109 -10.23913 -10.23825 -10.23693
 Alpha  occ. eigenvalues --  -10.23625 -10.23447 -10.23431 -10.23278 -10.23234
 Alpha  occ. eigenvalues --  -10.23193 -10.23054 -10.22977 -10.22962 -10.22887
 Alpha  occ. eigenvalues --  -10.22813 -10.22629 -10.22574 -10.22521 -10.22512
 Alpha  occ. eigenvalues --  -10.22351 -10.22324 -10.22275 -10.22152 -10.22037
 Alpha  occ. eigenvalues --  -10.21975 -10.21918 -10.21879 -10.21863 -10.21823
 Alpha  occ. eigenvalues --  -10.21802 -10.21648 -10.21506 -10.21432 -10.21198
 Alpha  occ. eigenvalues --  -10.21192 -10.20958 -10.20887 -10.20813 -10.20714
 Alpha  occ. eigenvalues --  -10.20682 -10.20177 -10.20087 -10.19923 -10.18714
 Alpha  occ. eigenvalues --   -3.08024  -1.82965  -1.82516  -1.82406  -1.13118
 Alpha  occ. eigenvalues --   -1.13061  -1.04991  -1.03426  -1.02264  -0.98796
 Alpha  occ. eigenvalues --   -0.98280  -0.97053  -0.96216  -0.87388  -0.86270
 Alpha  occ. eigenvalues --   -0.85982  -0.85058  -0.84624  -0.84439  -0.84054
 Alpha  occ. eigenvalues --   -0.83484  -0.83051  -0.82625  -0.81965  -0.80798
 Alpha  occ. eigenvalues --   -0.80065  -0.79152  -0.78862  -0.78743  -0.77897
 Alpha  occ. eigenvalues --   -0.76652  -0.76297  -0.75930  -0.75025  -0.73967
 Alpha  occ. eigenvalues --   -0.73403  -0.73143  -0.72194  -0.71470  -0.70226
 Alpha  occ. eigenvalues --   -0.69859  -0.69744  -0.69090  -0.68266  -0.67714
 Alpha  occ. eigenvalues --   -0.66400  -0.65617  -0.65387  -0.64171  -0.63990
 Alpha  occ. eigenvalues --   -0.63674  -0.62170  -0.61489  -0.61099  -0.60942
 Alpha  occ. eigenvalues --   -0.60341  -0.59390  -0.58253  -0.57816  -0.57572
 Alpha  occ. eigenvalues --   -0.56976  -0.56879  -0.56715  -0.56584  -0.55602
 Alpha  occ. eigenvalues --   -0.54608  -0.54254  -0.53743  -0.53274  -0.51996
 Alpha  occ. eigenvalues --   -0.51954  -0.51365  -0.51300  -0.51096  -0.50740
 Alpha  occ. eigenvalues --   -0.50580  -0.50011  -0.49689  -0.49363  -0.49027
 Alpha  occ. eigenvalues --   -0.48941  -0.48710  -0.48635  -0.48331  -0.48174
 Alpha  occ. eigenvalues --   -0.47866  -0.47459  -0.47203  -0.47119  -0.46936
 Alpha  occ. eigenvalues --   -0.46591  -0.46464  -0.46047  -0.46030  -0.45682
 Alpha  occ. eigenvalues --   -0.45527  -0.45330  -0.45260  -0.44834  -0.44394
 Alpha  occ. eigenvalues --   -0.44250  -0.44117  -0.43938  -0.43689  -0.43575
 Alpha  occ. eigenvalues --   -0.43328  -0.43066  -0.42793  -0.42734  -0.42633
 Alpha  occ. eigenvalues --   -0.42388  -0.42132  -0.41740  -0.41711  -0.41501
 Alpha  occ. eigenvalues --   -0.41298  -0.40985  -0.40873  -0.40500  -0.40422
 Alpha  occ. eigenvalues --   -0.40221  -0.39882  -0.39681  -0.39390  -0.39333
 Alpha  occ. eigenvalues --   -0.39215  -0.39161  -0.38991  -0.38645  -0.38567
 Alpha  occ. eigenvalues --   -0.38169  -0.38153  -0.38008  -0.37824  -0.37777
 Alpha  occ. eigenvalues --   -0.37469  -0.37324  -0.37082  -0.36980  -0.36708
 Alpha  occ. eigenvalues --   -0.36678  -0.36482  -0.36377  -0.36209  -0.36036
 Alpha  occ. eigenvalues --   -0.35838  -0.35654  -0.35512  -0.35185  -0.35157
 Alpha  occ. eigenvalues --   -0.34965  -0.34284  -0.34187  -0.33962  -0.33568
 Alpha  occ. eigenvalues --   -0.33520  -0.33204  -0.33188  -0.32717  -0.32239
 Alpha  occ. eigenvalues --   -0.31725  -0.31434  -0.30753  -0.30740  -0.29941
 Alpha  occ. eigenvalues --   -0.29664  -0.29254  -0.29231  -0.28965  -0.26838
 Alpha  occ. eigenvalues --   -0.25859  -0.25679  -0.25519  -0.25227  -0.21956
 Alpha  occ. eigenvalues --   -0.19909
 Alpha virt. eigenvalues --   -0.06969  -0.03054  -0.00038   0.01761   0.02650
 Alpha virt. eigenvalues --    0.04093   0.04731   0.05040   0.05292   0.05819
 Alpha virt. eigenvalues --    0.06614   0.08683   0.09617   0.09689   0.09758

 Mulliken charges:
               1
     1  Mg   0.813004
     2  C    0.100059
     3  C   -0.190721
     4  C   -0.114257
     5  C   -0.202706
     6  N   -0.628436
     7  C    0.231594
     8  C   -0.132405
     9  C   -0.157695
    10  C    0.389648
    11  C   -0.307098
    12  C   -0.154716
    13  C   -0.260600
    14  C    0.607018
    15  O   -0.483836
    16  O   -0.452874
    17  N   -0.722131
    18  C    0.343034
    19  C   -0.038502
    20  C    0.099073
    21  C    0.231278
    22  C   -0.384944
    23  C   -0.098610
    24  C   -0.208410
    25  N   -0.706224
    26  C    0.302637
    27  C    0.022803
    28  C    0.023582
    29  C    0.354567
    30  C   -0.371017
    31  C   -0.246310
    32  C   -0.269210
    33  N   -0.695219
    34  C    0.285678
    35  C   -0.025531
    36  C    0.155914
    37  C    0.207347
    38  C   -0.412205
    39  C    0.338486
    40  O   -0.490889
    41  C   -0.337624
    42  C    0.624454
    43  O   -0.455449
    44  O   -0.443341
    45  C   -0.099238
    46  C    0.009199
    47  C   -0.136263
    48  C    0.119320
    49  C   -0.371704
    50  C   -0.215734
    51  C   -0.195764
    52  C   -0.169106
    53  C   -0.073764
    54  C   -0.311185
    55  C   -0.170706
    56  C   -0.181110
    57  C   -0.180624
    58  C   -0.027240
    59  C   -0.316439
    60  C   -0.160753
    61  C   -0.151165
    62  C   -0.164917
    63  C   -0.026819
    64  C   -0.302584
    65  C   -0.308872
    66  H    0.066476
    67  H    0.058069
    68  H    0.080668
    69  H    0.125000
    70  H    0.102500
    71  H    0.076173
    72  H    0.117258
    73  H    0.125474
    74  H    0.120572
    75  H    0.124701
    76  H    0.102290
    77  H    0.115698
    78  H    0.118385
    79  H    0.123785
    80  H    0.124481
    81  H    0.106918
    82  H    0.082023
    83  H    0.095146
    84  H    0.139601
    85  H    0.114998
    86  H    0.110367
    87  H    0.076194
    88  H    0.091341
    89  H    0.113936
    90  H    0.071034
    91  H    0.123411
    92  H    0.121515
    93  H    0.135944
    94  H    0.108998
    95  H    0.166334
    96  H    0.136563
    97  H    0.145947
    98  H    0.131462
    99  H    0.120841
   100  H    0.100703
   101  H    0.089051
   102  H    0.100544
   103  H    0.134242
   104  H    0.138983
   105  H    0.087420
   106  H    0.107675
   107  H    0.091881
   108  H    0.085928
   109  H    0.098155
   110  H    0.095282
   111  H    0.090845
   112  H    0.091607
   113  H    0.110950
   114  H    0.110964
   115  H    0.093463
   116  H    0.090753
   117  H    0.104180
   118  H    0.091103
   119  H    0.087834
   120  H    0.078480
   121  H    0.064693
   122  H    0.117703
   123  H    0.066354
   124  H    0.102872
   125  H    0.075376
   126  H    0.061164
   127  H    0.081616
   128  H    0.099535
   129  H    0.058389
   130  H    0.064223
   131  H    0.082006
   132  H    0.074702
   133  H    0.101651
   134  H    0.111788
   135  H    0.099584
   136  H    0.103565
   137  H    0.076882
 Sum of Mulliken charges =  -0.00000

 Dipole moment (field-independent basis, Debye):
    X=              2.7161    Y=              5.7447    Z=              0.7822  Tot=              6.4024
 Quadrupole moment (field-independent basis, Debye-Ang):
   XX=           -351.9937   YY=           -393.0765   ZZ=           -394.1374
   XY=            -38.3778   XZ=             13.7123   YZ=             -7.8202

 Normal termination of Gaussian 16 at Tue Sep  3 14:14:29 2019.
