 Gaussian 16, Revision A.03,
 Gaussian 16:  ES64L-G16RevA.03 25-Dec-2016

 ----------------------------------------------------------------------
 # td=(NStates=1) iop(3/107=0140000000,3/108=0140000000) CAM-B3LYP/6-31
 G(d,p)
 ----------------------------------------------------------------------

 --
 TD
 --
 Symbolic Z-matrix:
 Charge =  0 Multiplicity = 1

                         Standard orientation:
 ---------------------------------------------------------------------
 Center     Atomic      Atomic             Coordinates (Angstroms)
 Number     Number       Type             X           Y           Z
 ---------------------------------------------------------------------
      1         12           0       -7.085649    0.644576    0.044640
      2          6           0       -4.809794   -1.925396    0.546371
      3          6           0       -4.834118    2.852778    1.280139
      4          6           0       -9.352337    3.068562   -0.504893
      5          6           0       -9.489448   -1.711927   -0.875051
      6          7           0       -5.112201    0.479548    0.792248
      7          6           0       -4.346472   -0.717523    0.858590
      8          6           0       -2.912528   -0.351958    1.242159
      9          6           0       -2.957823    1.097117    1.699159
     10          6           0       -4.353762    1.608127    1.190610
     11          6           0       -2.800034    1.273507    3.204060
     12          6           0       -1.906542   -0.501107    0.098839
     13          6           0       -0.465353   -0.429686    0.561009
     14          6           0        0.555130   -0.700618   -0.527315
     15          8           0        0.215290   -1.210777   -1.643040
     16          8           0        1.819726   -0.412517   -0.176728
     17          7           0       -7.089119    2.597184    0.365350
     18          6           0       -6.059901    3.396720    0.792702
     19          6           0       -6.449564    4.776448    0.744951
     20          6           0       -7.747623    4.899844    0.147563
     21          6           0       -8.021813    3.513221   -0.107523
     22          6           0       -5.530305    5.894030    1.164214
     23          6           0       -8.600198    6.030074   -0.022869
     24          6           0       -8.579790    7.119148    0.768806
     25          7           0       -9.077686    0.774869   -0.532124
     26          6           0       -9.839479    1.785062   -0.647809
     27          6           0      -11.200328    1.452030   -1.056337
     28          6           0      -11.221726    0.040233   -1.212109
     29          6           0       -9.845396   -0.416329   -0.912304
     30          6           0      -12.258034    2.470511   -1.385666
     31          6           0      -12.309048   -0.792203   -1.747835
     32          6           0      -12.236036   -1.250750   -3.137764
     33          7           0       -7.191102   -1.379234   -0.093285
     34          6           0       -8.225420   -2.205666   -0.526524
     35          6           0       -7.741304   -3.669584   -0.426176
     36          6           0       -6.532865   -3.522334   -0.060215
     37          6           0       -6.196469   -2.086298    0.158697
     38          6           0       -8.660999   -4.851650   -0.730808
     39          6           0       -5.295416   -4.264202    0.189177
     40          8           0       -5.132262   -5.492313    0.133802
     41          6           0       -4.151866   -3.350584    0.503253
     42          6           0       -3.514033   -3.674557    1.801091
     43          8           0       -3.849756   -3.227217    2.861032
     44          8           0       -2.588981   -4.632439    1.741746
     45          6           0       -2.234387   -5.271956    2.958146
     46          6           0        2.793342   -0.725103   -1.251485
     47          6           0        4.033191   -0.607008   -0.614407
     48          6           0        5.000971    0.357926   -0.990791
     49          6           0        5.020322    1.190480   -2.193033
     50          6           0        6.395703    0.235533   -0.241505
     51          6           0        7.648785   -0.309365   -1.014563
     52          6           0        8.923343   -0.028421   -0.189891
     53          6           0       10.108779   -0.641340   -0.875385
     54          6           0       10.132428   -1.996169   -1.332664
     55          6           0       11.300192   -0.269024   -0.079651
     56          6           0       12.750578   -0.497938   -0.755406
     57          6           0       13.874678   -0.072607    0.136326
     58          6           0       15.358086   -0.191979   -0.493299
     59          6           0       15.726616   -1.560704   -0.970558
     60          6           0       16.419385    0.321852    0.542747
     61          6           0       17.870800    0.498145   -0.119243
     62          6           0       18.732845    1.469540    0.770144
     63          6           0       20.171628    1.411291    0.311278
     64          6           0       20.267543    2.031657   -1.028225
     65          6           0       21.122853    2.013968    1.322340
     66          1           0       -4.047717    3.569193    1.401789
     67          1           0       -9.636065    3.966802   -1.071641
     68          1           0      -10.139301   -2.466368   -1.343984
     69          1           0       -2.702888   -0.962190    2.064072
     70          1           0       -2.173952    1.638926    1.132783
     71          1           0       -2.089191    0.936336    3.621462
     72          1           0       -3.058366    2.308050    3.495012
     73          1           0       -3.514084    0.588906    3.636463
     74          1           0       -1.865354   -1.533123   -0.269935
     75          1           0       -1.982225    0.283166   -0.750931
     76          1           0       -0.522586    0.622031    1.201412
     77          1           0       -0.373030   -1.224265    1.302162
     78          1           0       -5.645645    6.753716    0.501739
     79          1           0       -5.811785    6.023479    2.336535
     80          1           0       -4.489743    5.609895    1.123559
     81          1           0       -9.298636    5.937426   -0.974936
     82          1           0       -9.056652    7.925950    0.432349
     83          1           0       -8.168879    7.430235    1.713953
     84          1           0      -12.101636    3.060172   -2.398406
     85          1           0      -13.184468    1.981832   -1.456882
     86          1           0      -12.357138    3.262030   -0.421493
     87          1           0      -12.429337   -1.530756   -0.944493
     88          1           0      -13.212552   -0.351736   -1.527895
     89          1           0      -13.053421   -1.950414   -3.373087
     90          1           0      -12.346746   -0.558022   -3.830509
     91          1           0      -11.218976   -1.702048   -3.313843
     92          1           0       -9.271193   -4.999936   -1.582627
     93          1           0       -8.202982   -5.798911   -0.828464
     94          1           0       -9.394931   -4.804902    0.190772
     95          1           0       -3.250810   -3.290068   -0.156314
     96          1           0       -1.798069   -4.558409    3.851023
     97          1           0       -2.981824   -5.720830    3.485894
     98          1           0       -1.477643   -5.957310    2.695632
     99          1           0        2.607691   -1.612426   -1.628493
    100          1           0        2.800268    0.003267   -2.074511
    101          1           0        4.156397   -1.192948    0.346118
    102          1           0        3.941171    1.246401   -2.652995
    103          1           0        5.496486    2.235020   -1.982372
    104          1           0        5.604011    0.820774   -2.811501
    105          1           0        6.574003    1.299694    0.209440
    106          1           0        6.222521   -0.289472    0.717751
    107          1           0        7.411438   -1.303741   -1.270959
    108          1           0        7.872114    0.292765   -1.889560
    109          1           0        9.119337    0.866933    0.065264
    110          1           0        8.785570   -0.490608    0.659297
    111          1           0       10.307853   -0.088604   -1.932290
    112          1           0        9.177177   -2.206837   -1.890653
    113          1           0       10.851561   -2.338055   -1.855212
    114          1           0       10.061242   -2.512797   -0.449581
    115          1           0       11.369674    0.860765    0.231360
    116          1           0       11.272035   -0.980174    0.809955
    117          1           0       12.790981   -1.366826   -1.204683
    118          1           0       12.777741    0.282422   -1.622066
    119          1           0       13.638757    0.849967    0.349731
    120          1           0       13.955876   -0.821168    1.067102
    121          1           0       15.434923    0.648048   -1.386013
    122          1           0       15.573848   -2.374582   -0.273098
    123          1           0       15.112216   -1.937941   -1.832610
    124          1           0       16.729981   -1.696645   -1.388114
    125          1           0       15.953443    1.401991    0.858064
    126          1           0       16.435332   -0.268798    1.347955
    127          1           0       18.410260   -0.461898   -0.253969
    128          1           0       17.824243    0.901243   -1.082703
    129          1           0       18.357227    2.478887    0.711480
    130          1           0       18.499220    0.979814    1.782538
    131          1           0       20.299392    0.391762    0.164463
    132          1           0       19.913927    3.112434   -0.898481
    133          1           0       21.341364    1.989754   -1.323754
    134          1           0       19.650078    1.580064   -1.712958
    135          1           0       20.913555    1.715429    2.432133
    136          1           0       22.191696    1.847319    1.132636
    137          1           0       20.867713    3.127620    1.228212
 ---------------------------------------------------------------------

 SCF Done:  E(RCAM-B3LYP) =  -2933.43802933     A.U. after   16 cycles

 Excitation energies and oscillator strengths:

 Excited State   1:      Singlet-A      2.0201 eV  613.75 nm  f=0.2749  <S**2>=0.000
     240 -> 243       -0.20431
     241 -> 242        0.67156
 This state for optimization and/or second-order correction.
 Total Energy, E(TD-HF/TD-DFT) =  -2933.36379114
 Copying the excited state density for this state as the 1-particle RhoCI density.

 The electronic state is 1-A.
 Alpha  occ. eigenvalues --  -46.79305 -19.22705 -19.22183 -19.16354 -19.15949
 Alpha  occ. eigenvalues --  -19.15522 -14.36532 -14.35879 -14.34859 -14.34764
 Alpha  occ. eigenvalues --  -10.35068 -10.33916 -10.30139 -10.26531 -10.25705
 Alpha  occ. eigenvalues --  -10.25558 -10.25414 -10.24944 -10.24939 -10.24673
 Alpha  occ. eigenvalues --  -10.24517 -10.24471 -10.24170 -10.24145 -10.24120
 Alpha  occ. eigenvalues --  -10.23999 -10.23850 -10.23567 -10.23010 -10.22992
 Alpha  occ. eigenvalues --  -10.22886 -10.22627 -10.22614 -10.22454 -10.22350
 Alpha  occ. eigenvalues --  -10.22305 -10.22223 -10.22180 -10.22107 -10.22082
 Alpha  occ. eigenvalues --  -10.21967 -10.21866 -10.21753 -10.21715 -10.21639
 Alpha  occ. eigenvalues --  -10.21535 -10.21461 -10.21239 -10.21126 -10.20858
 Alpha  occ. eigenvalues --  -10.20854 -10.20727 -10.20664 -10.20570 -10.20480
 Alpha  occ. eigenvalues --  -10.20322 -10.20258 -10.20098 -10.20060 -10.20030
 Alpha  occ. eigenvalues --  -10.19809 -10.19620 -10.18837 -10.18598 -10.18135
 Alpha  occ. eigenvalues --   -3.08019  -1.82956  -1.82487  -1.82435  -1.14239
 Alpha  occ. eigenvalues --   -1.12158  -1.04691  -1.04468  -1.01858  -1.01097
 Alpha  occ. eigenvalues --   -0.98282  -0.97262  -0.95418  -0.87528  -0.87148
 Alpha  occ. eigenvalues --   -0.85807  -0.85384  -0.85025  -0.84928  -0.84112
 Alpha  occ. eigenvalues --   -0.83737  -0.83437  -0.82390  -0.82163  -0.81401
 Alpha  occ. eigenvalues --   -0.80472  -0.79570  -0.78942  -0.78684  -0.78093
 Alpha  occ. eigenvalues --   -0.78024  -0.76937  -0.75801  -0.75670  -0.74232
 Alpha  occ. eigenvalues --   -0.73657  -0.73549  -0.73012  -0.71821  -0.71020
 Alpha  occ. eigenvalues --   -0.70869  -0.70365  -0.69899  -0.68530  -0.68101
 Alpha  occ. eigenvalues --   -0.67132  -0.66866  -0.65786  -0.64928  -0.64176
 Alpha  occ. eigenvalues --   -0.63970  -0.62784  -0.61682  -0.61522  -0.60319
 Alpha  occ. eigenvalues --   -0.60043  -0.59445  -0.58965  -0.58615  -0.58438
 Alpha  occ. eigenvalues --   -0.57806  -0.56822  -0.56263  -0.55691  -0.55148
 Alpha  occ. eigenvalues --   -0.54940  -0.54773  -0.53651  -0.53459  -0.53157
 Alpha  occ. eigenvalues --   -0.52863  -0.52032  -0.51543  -0.51273  -0.51058
 Alpha  occ. eigenvalues --   -0.50649  -0.50541  -0.50047  -0.49788  -0.49589
 Alpha  occ. eigenvalues --   -0.49141  -0.48742  -0.48639  -0.48441  -0.48285
 Alpha  occ. eigenvalues --   -0.47854  -0.47843  -0.47787  -0.47391  -0.47228
 Alpha  occ. eigenvalues --   -0.46987  -0.46797  -0.46558  -0.46206  -0.46030
 Alpha  occ. eigenvalues --   -0.45862  -0.45822  -0.45352  -0.45235  -0.44846
 Alpha  occ. eigenvalues --   -0.44589  -0.44577  -0.44328  -0.44045  -0.43868
 Alpha  occ. eigenvalues --   -0.43621  -0.43315  -0.43280  -0.42863  -0.42655
 Alpha  occ. eigenvalues --   -0.42595  -0.42266  -0.42181  -0.41996  -0.41817
 Alpha  occ. eigenvalues --   -0.41567  -0.41309  -0.41154  -0.41052  -0.40558
 Alpha  occ. eigenvalues --   -0.40510  -0.40429  -0.40355  -0.39946  -0.39838
 Alpha  occ. eigenvalues --   -0.39695  -0.39292  -0.38996  -0.38908  -0.38785
 Alpha  occ. eigenvalues --   -0.38638  -0.38524  -0.38288  -0.38087  -0.38081
 Alpha  occ. eigenvalues --   -0.37953  -0.37704  -0.37548  -0.37479  -0.37286
 Alpha  occ. eigenvalues --   -0.37191  -0.36974  -0.36699  -0.36020  -0.35959
 Alpha  occ. eigenvalues --   -0.35636  -0.35616  -0.35354  -0.35105  -0.34956
 Alpha  occ. eigenvalues --   -0.34398  -0.34220  -0.34167  -0.33767  -0.33710
 Alpha  occ. eigenvalues --   -0.33330  -0.32903  -0.32673  -0.32467  -0.32369
 Alpha  occ. eigenvalues --   -0.31943  -0.31741  -0.31390  -0.30256  -0.30093
 Alpha  occ. eigenvalues --   -0.29967  -0.29740  -0.29450  -0.28931  -0.28039
 Alpha  occ. eigenvalues --   -0.26603  -0.26250  -0.25089  -0.24383  -0.21390
 Alpha  occ. eigenvalues --   -0.19682
 Alpha virt. eigenvalues --   -0.06850  -0.03403   0.00441   0.01981   0.02589
 Alpha virt. eigenvalues --    0.02863   0.04407   0.04523   0.04976   0.06288
 Alpha virt. eigenvalues --    0.06682   0.09382   0.09794   0.09973   0.10087

 Mulliken charges:
               1
     1  Mg   0.805575
     2  C    0.096039
     3  C   -0.195153
     4  C   -0.155757
     5  C   -0.169503
     6  N   -0.650720
     7  C    0.289829
     8  C   -0.149758
     9  C   -0.150770
    10  C    0.324103
    11  C   -0.286634
    12  C   -0.169023
    13  C   -0.266974
    14  C    0.620401
    15  O   -0.502056
    16  O   -0.460712
    17  N   -0.674669
    18  C    0.317777
    19  C   -0.030673
    20  C    0.093766
    21  C    0.206039
    22  C   -0.362580
    23  C   -0.113813
    24  C   -0.233149
    25  N   -0.672035
    26  C    0.352058
    27  C    0.020520
    28  C    0.011325
    29  C    0.259402
    30  C   -0.365872
    31  C   -0.239083
    32  C   -0.301376
    33  N   -0.718856
    34  C    0.186882
    35  C    0.011018
    36  C    0.056321
    37  C    0.345260
    38  C   -0.383040
    39  C    0.371576
    40  O   -0.483611
    41  C   -0.294476
    42  C    0.611132
    43  O   -0.464362
    44  O   -0.433958
    45  C   -0.081648
    46  C    0.026397
    47  C   -0.125109
    48  C    0.092686
    49  C   -0.348267
    50  C   -0.236676
    51  C   -0.183350
    52  C   -0.138058
    53  C   -0.056448
    54  C   -0.289822
    55  C   -0.172694
    56  C   -0.186727
    57  C   -0.135229
    58  C   -0.052483
    59  C   -0.320962
    60  C   -0.160754
    61  C   -0.201691
    62  C   -0.159340
    63  C   -0.051498
    64  C   -0.297826
    65  C   -0.297925
    66  H    0.069834
    67  H    0.080480
    68  H    0.098204
    69  H    0.115507
    70  H    0.093368
    71  H    0.109877
    72  H    0.106932
    73  H    0.117495
    74  H    0.114219
    75  H    0.110053
    76  H    0.102695
    77  H    0.137585
    78  H    0.125039
    79  H    0.106943
    80  H    0.115327
    81  H    0.095680
    82  H    0.100996
    83  H    0.115108
    84  H    0.108733
    85  H    0.119207
    86  H    0.093511
    87  H    0.105374
    88  H    0.103570
    89  H    0.101970
    90  H    0.126728
    91  H    0.100777
    92  H    0.130612
    93  H    0.145679
    94  H    0.120488
    95  H    0.165827
    96  H    0.091881
    97  H    0.145556
    98  H    0.126391
    99  H    0.142243
   100  H    0.103591
   101  H    0.089153
   102  H    0.099903
   103  H    0.104312
   104  H    0.149665
   105  H    0.075134
   106  H    0.096939
   107  H    0.113862
   108  H    0.099661
   109  H    0.100979
   110  H    0.099888
   111  H    0.039070
   112  H    0.089115
   113  H    0.117018
   114  H    0.096377
   115  H    0.072208
   116  H    0.074484
   117  H    0.098288
   118  H    0.069153
   119  H    0.096534
   120  H    0.062791
   121  H    0.051976
   122  H    0.103628
   123  H    0.092819
   124  H    0.106701
   125  H    0.063045
   126  H    0.102679
   127  H    0.092317
   128  H    0.101290
   129  H    0.088122
   130  H    0.078250
   131  H    0.086732
   132  H    0.084062
   133  H    0.095317
   134  H    0.111872
   135  H    0.089630
   136  H    0.099807
   137  H    0.086756
 Sum of Mulliken charges =  -0.00000

 Dipole moment (field-independent basis, Debye):
    X=              1.9909    Y=              2.8970    Z=             -0.8681  Tot=              3.6207
 Quadrupole moment (field-independent basis, Debye-Ang):
   XX=           -343.3251   YY=           -389.1368   ZZ=           -393.7582
   XY=            -21.9723   XZ=             13.3207   YZ=             -3.8494

 Normal termination of Gaussian 16 at Tue Sep 17 05:24:02 2019.
