 Gaussian 09, Revision D.01,
 Gaussian 09:  ES64L-G09RevD.01 24-Apr-2013

 -------------------------------------
 # td=(NStates=1) CAM-B3LYP/6-31G(d,p)
 -------------------------------------

 --
 TD
 --
 Symbolic Z-matrix:
 Charge =  0 Multiplicity = 1

                         Standard orientation:
 ---------------------------------------------------------------------
 Center     Atomic      Atomic             Coordinates (Angstroms)
 Number     Number       Type             X           Y           Z
 ---------------------------------------------------------------------
      1         12           0       -7.104592    0.583367    0.064564
      2          6           0       -4.840533   -1.962775    0.496560
      3          6           0       -4.733692    2.804240    1.276321
      4          6           0       -9.301079    3.072835   -0.385382
      5          6           0       -9.516349   -1.748389   -0.971542
      6          7           0       -5.104460    0.426530    0.776278
      7          6           0       -4.332478   -0.736292    0.852482
      8          6           0       -2.851347   -0.404839    1.178029
      9          6           0       -2.908439    0.999448    1.694324
     10          6           0       -4.329667    1.530368    1.198442
     11          6           0       -2.922261    1.082004    3.257894
     12          6           0       -1.910573   -0.650629    0.042346
     13          6           0       -0.449813   -0.429850    0.529143
     14          6           0        0.494367   -0.689471   -0.632697
     15          8           0        0.166296   -1.182982   -1.734860
     16          8           0        1.667506   -0.299295   -0.235345
     17          7           0       -7.048697    2.513622    0.437774
     18          6           0       -6.098629    3.336036    0.837152
     19          6           0       -6.305994    4.760039    0.780428
     20          6           0       -7.595504    4.782859    0.420615
     21          6           0       -8.112041    3.451887    0.106645
     22          6           0       -5.371292    5.707013    1.191968
     23          6           0       -8.459553    5.968443    0.316346
     24          6           0       -8.361866    7.088738    1.023265
     25          7           0       -9.119326    0.680179   -0.569440
     26          6           0       -9.826737    1.780823   -0.663734
     27          6           0      -11.189603    1.538399   -1.235272
     28          6           0      -11.205572    0.169994   -1.364295
     29          6           0       -9.968096   -0.381908   -0.941556
     30          6           0      -12.245488    2.604767   -1.604215
     31          6           0      -12.246682   -0.636553   -1.871350
     32          6           0      -12.211005   -0.933963   -3.370193
     33          7           0       -7.182294   -1.415061   -0.211234
     34          6           0       -8.350974   -2.164702   -0.552831
     35          6           0       -7.913740   -3.616603   -0.463093
     36          6           0       -6.580857   -3.550796   -0.127220
     37          6           0       -6.271356   -2.211349    0.020805
     38          6           0       -8.559172   -4.870201   -0.834180
     39          6           0       -5.407527   -4.366292    0.192987
     40          8           0       -5.296207   -5.559241    0.283728
     41          6           0       -4.280440   -3.327143    0.559244
     42          6           0       -3.594819   -3.679735    1.904501
     43          8           0       -3.767010   -3.144413    3.008863
     44          8           0       -2.816765   -4.743643    1.826181
     45          6           0       -2.010895   -5.033992    2.979926
     46          6           0        2.782408   -0.395858   -1.257120
     47          6           0        4.140872   -0.336614   -0.497131
     48          6           0        5.141406    0.458984   -0.955155
     49          6           0        5.061387    1.217920   -2.338895
     50          6           0        6.481420    0.528333   -0.287764
     51          6           0        7.600441    0.017931   -1.028645
     52          6           0        8.871315   -0.095139   -0.163296
     53          6           0       10.176462   -0.641944   -0.836589
     54          6           0        9.998808   -2.098624   -1.340803
     55          6           0       11.376903   -0.362185    0.029189
     56          6           0       12.721787   -0.523997   -0.608930
     57          6           0       13.925221   -0.311265    0.376541
     58          6           0       15.252363   -0.272221   -0.410161
     59          6           0       15.735242   -1.668274   -0.812870
     60          6           0       16.324196    0.454263    0.481765
     61          6           0       17.754006    0.497318   -0.201490
     62          6           0       18.741888    1.266225    0.570712
     63          6           0       20.192848    1.351826    0.062032
     64          6           0       20.249039    2.311607   -1.103577
     65          6           0       21.131091    1.799818    1.292587
     66          1           0       -4.058394    3.646456    1.423622
     67          1           0       -9.890019    3.945819   -0.393883
     68          1           0      -10.232285   -2.543253   -1.164765
     69          1           0       -2.543079   -1.031489    2.094042
     70          1           0       -2.051029    1.709936    1.424369
     71          1           0       -1.772144    0.983404    3.568049
     72          1           0       -3.411907    2.109157    3.634912
     73          1           0       -3.510476    0.192633    3.712987
     74          1           0       -1.978237   -1.541158   -0.387138
     75          1           0       -2.030661   -0.097117   -0.894101
     76          1           0       -0.371255    0.493317    1.044489
     77          1           0       -0.080387   -1.211762    1.208220
     78          1           0       -5.804615    6.640232    0.755782
     79          1           0       -5.412772    5.907728    2.334210
     80          1           0       -4.334163    5.794615    0.751470
     81          1           0       -9.452948    5.840385   -0.266467
     82          1           0       -8.963372    7.895199    0.878022
     83          1           0       -7.422594    7.142452    1.753945
     84          1           0      -12.103906    3.348884   -2.319435
     85          1           0      -13.171775    1.947142   -1.784405
     86          1           0      -12.539059    3.032843   -0.674489
     87          1           0      -12.304206   -1.678389   -1.478274
     88          1           0      -13.282721   -0.328755   -1.730078
     89          1           0      -13.141323   -1.404210   -3.673704
     90          1           0      -12.243947    0.027903   -3.697188
     91          1           0      -11.133652   -1.230929   -3.657242
     92          1           0       -9.257807   -4.829351   -1.831384
     93          1           0       -7.958601   -5.794440   -0.757631
     94          1           0       -9.164325   -5.187634   -0.104021
     95          1           0       -3.526012   -3.440988    0.000761
     96          1           0       -1.540949   -4.254231    3.413410
     97          1           0       -2.718322   -5.185661    3.768576
     98          1           0       -1.390457   -5.918744    2.675039
     99          1           0        2.556274   -1.313931   -1.595377
    100          1           0        2.717983    0.532903   -1.916178
    101          1           0        4.413300   -0.889839    0.458119
    102          1           0        3.931005    1.317901   -2.588587
    103          1           0        5.493616    2.293810   -2.351459
    104          1           0        5.701756    0.781030   -3.144989
    105          1           0        6.649717    1.552214    0.169698
    106          1           0        6.272048    0.097626    0.765362
    107          1           0        7.294730   -1.026348   -1.395386
    108          1           0        7.999168    0.763164   -1.708513
    109          1           0        9.239315    0.813333    0.413150
    110          1           0        8.681368   -0.831397    0.590357
    111          1           0       10.291604   -0.152534   -1.672010
    112          1           0        9.054853   -1.934045   -2.039157
    113          1           0       10.997767   -2.277595   -2.126357
    114          1           0        9.808370   -2.853997   -0.463938
    115          1           0       11.391972    0.712131    0.414961
    116          1           0       11.106448   -1.155040    0.838890
    117          1           0       12.683945   -1.562071   -0.838014
    118          1           0       12.931210    0.088525   -1.644849
    119          1           0       13.806437    0.773630    0.913999
    120          1           0       13.837817   -0.996138    1.257892
    121          1           0       15.157387    0.093789   -1.507293
    122          1           0       15.809880   -2.548146   -0.088526
    123          1           0       15.081100   -2.230199   -1.594374
    124          1           0       16.638746   -1.761086   -1.421543
    125          1           0       16.052588    1.546961    0.724222
    126          1           0       16.464907   -0.205279    1.377144
    127          1           0       18.110696   -0.527141   -0.481594
    128          1           0       17.458889    0.912286   -1.278829
    129          1           0       18.383355    2.382151    0.842678
    130          1           0       18.754795    0.759098    1.418254
    131          1           0       20.458535    0.429936   -0.290333
    132          1           0       19.899263    3.447811   -0.645831
    133          1           0       21.414759    2.621064   -1.517795
    134          1           0       19.697810    2.110960   -2.078554
    135          1           0       20.983114    0.968752    1.886407
    136          1           0       22.221012    1.652336    1.011434
    137          1           0       20.821449    2.749599    1.808656
 ---------------------------------------------------------------------

 SCF Done:  E(RCAM-B3LYP) =  -2932.65039990     A.U. after   15 cycles

 Excitation energies and oscillator strengths:

 Excited State   1:      Singlet-A      2.2586 eV  548.95 nm  f=0.2110  <S**2>=0.000
     240 -> 243       -0.25457
     241 -> 242        0.63674
 This state for optimization and/or second-order correction.
 Total Energy, E(TD-HF/TD-KS) =  -2932.56739869
 Copying the excited state density for this state as the 1-particle RhoCI density.

 The electronic state is 1-A.
 Alpha  occ. eigenvalues --  -46.83956 -19.26519 -19.25756 -19.20639 -19.19973
 Alpha  occ. eigenvalues --  -19.19367 -14.39798 -14.39591 -14.39432 -14.39354
 Alpha  occ. eigenvalues --  -10.38665 -10.38337 -10.35158 -10.32945 -10.30365
 Alpha  occ. eigenvalues --  -10.30048 -10.29937 -10.29764 -10.29322 -10.29102
 Alpha  occ. eigenvalues --  -10.29040 -10.28650 -10.28629 -10.28309 -10.28253
 Alpha  occ. eigenvalues --  -10.28064 -10.28025 -10.27970 -10.27893 -10.27787
 Alpha  occ. eigenvalues --  -10.27763 -10.27547 -10.27357 -10.27347 -10.27242
 Alpha  occ. eigenvalues --  -10.27123 -10.26872 -10.26864 -10.26784 -10.26780
 Alpha  occ. eigenvalues --  -10.26670 -10.26589 -10.26518 -10.26400 -10.26353
 Alpha  occ. eigenvalues --  -10.26249 -10.26223 -10.25937 -10.25887 -10.25837
 Alpha  occ. eigenvalues --  -10.25814 -10.25749 -10.25715 -10.25414 -10.25398
 Alpha  occ. eigenvalues --  -10.25386 -10.25026 -10.24723 -10.24633 -10.24510
 Alpha  occ. eigenvalues --  -10.24415 -10.24407 -10.24336 -10.24230 -10.23888
 Alpha  occ. eigenvalues --   -3.13053  -1.87758  -1.87310  -1.87221  -1.18199
 Alpha  occ. eigenvalues --   -1.18194  -1.11956  -1.07215  -1.06654  -1.06179
 Alpha  occ. eigenvalues --   -1.04070  -1.02694  -1.00157  -0.92185  -0.91933
 Alpha  occ. eigenvalues --   -0.91075  -0.90558  -0.89950  -0.89918  -0.89477
 Alpha  occ. eigenvalues --   -0.88967  -0.88182  -0.88122  -0.87151  -0.86452
 Alpha  occ. eigenvalues --   -0.84921  -0.84569  -0.83880  -0.83160  -0.82851
 Alpha  occ. eigenvalues --   -0.81981  -0.81181  -0.80348  -0.79887  -0.79125
 Alpha  occ. eigenvalues --   -0.78062  -0.77131  -0.76122  -0.75837  -0.75182
 Alpha  occ. eigenvalues --   -0.75080  -0.74704  -0.73859  -0.73269  -0.72393
 Alpha  occ. eigenvalues --   -0.70730  -0.70166  -0.69296  -0.68897  -0.67936
 Alpha  occ. eigenvalues --   -0.67355  -0.66339  -0.64597  -0.64508  -0.64190
 Alpha  occ. eigenvalues --   -0.63495  -0.63218  -0.62909  -0.62832  -0.62350
 Alpha  occ. eigenvalues --   -0.62215  -0.60791  -0.60274  -0.59565  -0.59445
 Alpha  occ. eigenvalues --   -0.58804  -0.58641  -0.58112  -0.57943  -0.57166
 Alpha  occ. eigenvalues --   -0.56291  -0.56014  -0.55540  -0.54877  -0.54701
 Alpha  occ. eigenvalues --   -0.54284  -0.54041  -0.53920  -0.53226  -0.53105
 Alpha  occ. eigenvalues --   -0.52975  -0.52670  -0.52353  -0.51903  -0.51548
 Alpha  occ. eigenvalues --   -0.51328  -0.51227  -0.51035  -0.50809  -0.50563
 Alpha  occ. eigenvalues --   -0.50454  -0.50085  -0.49943  -0.49614  -0.49434
 Alpha  occ. eigenvalues --   -0.49209  -0.48955  -0.48785  -0.48480  -0.48274
 Alpha  occ. eigenvalues --   -0.47739  -0.47645  -0.47461  -0.47003  -0.46848
 Alpha  occ. eigenvalues --   -0.46711  -0.46542  -0.46528  -0.46221  -0.45948
 Alpha  occ. eigenvalues --   -0.45774  -0.45601  -0.45407  -0.45318  -0.45085
 Alpha  occ. eigenvalues --   -0.45007  -0.44731  -0.44639  -0.44457  -0.44271
 Alpha  occ. eigenvalues --   -0.44166  -0.43701  -0.43559  -0.43400  -0.43192
 Alpha  occ. eigenvalues --   -0.42975  -0.42917  -0.42446  -0.42233  -0.41889
 Alpha  occ. eigenvalues --   -0.41575  -0.41219  -0.41148  -0.40988  -0.40934
 Alpha  occ. eigenvalues --   -0.40519  -0.40420  -0.40101  -0.39820  -0.39785
 Alpha  occ. eigenvalues --   -0.39741  -0.39426  -0.39227  -0.39020  -0.38679
 Alpha  occ. eigenvalues --   -0.38133  -0.38098  -0.38031  -0.37880  -0.37709
 Alpha  occ. eigenvalues --   -0.37689  -0.37318  -0.37126  -0.36917  -0.36625
 Alpha  occ. eigenvalues --   -0.36559  -0.36256  -0.35844  -0.35655  -0.35461
 Alpha  occ. eigenvalues --   -0.34980  -0.34954  -0.34470  -0.33736  -0.33296
 Alpha  occ. eigenvalues --   -0.32719  -0.32473  -0.32169  -0.30609  -0.30455
 Alpha  occ. eigenvalues --   -0.30353  -0.29947  -0.28764  -0.27748  -0.22423
 Alpha  occ. eigenvalues --   -0.21592
 Alpha virt. eigenvalues --   -0.05552  -0.02691   0.03114   0.04571   0.05293
 Alpha virt. eigenvalues --    0.05964   0.06885   0.07356   0.07443   0.07878
 Alpha virt. eigenvalues --    0.09047   0.10801   0.11094   0.11824   0.11916

 Mulliken charges:
               1
     1  Mg   0.819451
     2  C    0.043419
     3  C   -0.230209
     4  C   -0.159343
     5  C   -0.146761
     6  N   -0.661545
     7  C    0.314038
     8  C   -0.150775
     9  C   -0.136451
    10  C    0.364069
    11  C   -0.299116
    12  C   -0.163750
    13  C   -0.263425
    14  C    0.603018
    15  O   -0.520160
    16  O   -0.474235
    17  N   -0.692625
    18  C    0.280772
    19  C    0.118730
    20  C    0.013189
    21  C    0.277118
    22  C   -0.427702
    23  C   -0.083174
    24  C   -0.235798
    25  N   -0.667545
    26  C    0.284736
    27  C    0.006583
    28  C    0.064470
    29  C    0.230873
    30  C   -0.369287
    31  C   -0.294014
    32  C   -0.307709
    33  N   -0.719362
    34  C    0.257346
    35  C    0.022184
    36  C    0.013967
    37  C    0.328449
    38  C   -0.401190
    39  C    0.382213
    40  O   -0.446410
    41  C   -0.290098
    42  C    0.585399
    43  O   -0.506829
    44  O   -0.431145
    45  C   -0.085592
    46  C    0.023361
    47  C   -0.134894
    48  C    0.107549
    49  C   -0.356640
    50  C   -0.227838
    51  C   -0.165454
    52  C   -0.190521
    53  C   -0.065131
    54  C   -0.294915
    55  C   -0.165699
    56  C   -0.171424
    57  C   -0.163432
    58  C   -0.045812
    59  C   -0.331682
    60  C   -0.168173
    61  C   -0.189931
    62  C   -0.138683
    63  C   -0.065494
    64  C   -0.265352
    65  C   -0.315165
    66  H    0.071224
    67  H    0.074037
    68  H    0.108061
    69  H    0.120260
    70  H    0.094940
    71  H    0.081774
    72  H    0.101782
    73  H    0.128972
    74  H    0.126361
    75  H    0.118978
    76  H    0.132259
    77  H    0.131674
    78  H    0.120363
    79  H    0.131007
    80  H    0.131436
    81  H    0.088190
    82  H    0.111786
    83  H    0.090950
    84  H    0.132325
    85  H    0.102979
    86  H    0.128503
    87  H    0.093335
    88  H    0.097906
    89  H    0.105295
    90  H    0.118564
    91  H    0.100187
    92  H    0.108270
    93  H    0.152935
    94  H    0.146893
    95  H    0.150306
    96  H    0.133595
    97  H    0.137106
    98  H    0.124365
    99  H    0.152339
   100  H    0.132919
   101  H    0.100864
   102  H    0.093066
   103  H    0.105082
   104  H    0.132337
   105  H    0.102781
   106  H    0.083277
   107  H    0.106897
   108  H    0.111602
   109  H    0.088221
   110  H    0.089619
   111  H    0.090759
   112  H    0.096054
   113  H    0.078280
   114  H    0.096856
   115  H    0.079751
   116  H    0.077114
   117  H    0.108840
   118  H    0.071772
   119  H    0.062475
   120  H    0.101441
   121  H    0.089437
   122  H    0.091685
   123  H    0.084068
   124  H    0.107913
   125  H    0.092619
   126  H    0.093838
   127  H    0.093277
   128  H    0.064775
   129  H    0.066410
   130  H    0.099476
   131  H    0.095828
   132  H    0.057801
   133  H    0.056419
   134  H    0.105925
   135  H    0.113988
   136  H    0.097844
   137  H    0.109289
 Sum of Mulliken charges =   0.00000

 Dipole moment (field-independent basis, Debye):
    X=              2.6413    Y=              4.5490    Z=             -0.1485  Tot=              5.2623
 Quadrupole moment (field-independent basis, Debye-Ang):
   XX=           -345.6826   YY=           -385.2262   ZZ=           -402.5959
   XY=            -36.6878   XZ=             14.0859   YZ=             -1.0359

 Normal termination of Gaussian 09 at Fri Jul  5 13:05:07 2019.
