 Gaussian 16, Revision A.03,
 Gaussian 16:  ES64L-G16RevA.03 25-Dec-2016

 ----------------------------------------------------------------------
 # td=(NStates=1) iop(3/107=0140000000,3/108=0140000000) CAM-B3LYP/6-31
 G(d,p)
 ----------------------------------------------------------------------

 --
 TD
 --
 Symbolic Z-matrix:
 Charge =  0 Multiplicity = 1

                         Standard orientation:
 ---------------------------------------------------------------------
 Center     Atomic      Atomic             Coordinates (Angstroms)
 Number     Number       Type             X           Y           Z
 ---------------------------------------------------------------------
      1         12           0       -7.145854    0.580437    0.030363
      2          6           0       -4.902467   -1.894456    0.523534
      3          6           0       -4.845154    2.942875    0.993276
      4          6           0       -9.409183    2.983959   -0.335636
      5          6           0       -9.538004   -1.784801   -0.854082
      6          7           0       -5.117803    0.492276    0.682766
      7          6           0       -4.293764   -0.632155    0.714294
      8          6           0       -2.858449   -0.333221    1.141434
      9          6           0       -3.018296    1.165621    1.615979
     10          6           0       -4.444171    1.579870    1.191695
     11          6           0       -2.925968    1.287912    3.146476
     12          6           0       -1.889984   -0.453748    0.029966
     13          6           0       -0.464503   -0.249599    0.439216
     14          6           0        0.519900   -0.566407   -0.689577
     15          8           0        0.183339   -1.008520   -1.738957
     16          8           0        1.741372   -0.326033   -0.362358
     17          7           0       -7.122519    2.592958    0.265766
     18          6           0       -6.107885    3.426948    0.778377
     19          6           0       -6.524608    4.804175    0.720889
     20          6           0       -7.819701    4.829050    0.346788
     21          6           0       -8.240787    3.494408    0.028761
     22          6           0       -5.647501    5.977965    1.212032
     23          6           0       -8.588479    6.110891   -0.071493
     24          6           0       -8.435369    7.305961    0.514534
     25          7           0       -9.116886    0.587143   -0.517052
     26          6           0       -9.894771    1.745495   -0.695366
     27          6           0      -11.295662    1.379104   -1.061559
     28          6           0      -11.277790    0.064953   -1.224528
     29          6           0       -9.931436   -0.429283   -0.887425
     30          6           0      -12.394784    2.379589   -1.283868
     31          6           0      -12.361864   -0.894417   -1.501765
     32          6           0      -12.165932   -1.508611   -2.922281
     33          7           0       -7.176909   -1.368385   -0.257739
     34          6           0       -8.210692   -2.305634   -0.594249
     35          6           0       -7.822388   -3.578032   -0.426992
     36          6           0       -6.399005   -3.622015   -0.168345
     37          6           0       -6.154507   -2.184521    0.087755
     38          6           0       -8.487627   -4.966026   -0.798664
     39          6           0       -5.140119   -4.312640    0.076176
     40          8           0       -5.078259   -5.487674    0.116124
     41          6           0       -4.147678   -3.249364    0.620819
     42          6           0       -3.672880   -3.571070    2.031036
     43          8           0       -3.900740   -2.957670    3.032269
     44          8           0       -2.756495   -4.583577    1.946183
     45          6           0       -2.351225   -5.011755    3.151984
     46          6           0        2.808283   -0.623299   -1.378275
     47          6           0        4.122040   -0.463559   -0.636882
     48          6           0        5.229458    0.161882   -1.086972
     49          6           0        5.150968    1.088290   -2.278136
     50          6           0        6.431327    0.227888   -0.248448
     51          6           0        7.709537   -0.351450   -1.029273
     52          6           0        8.928671   -0.213312   -0.165041
     53          6           0       10.178579   -0.766377   -0.839261
     54          6           0       10.231833   -2.189065   -1.214976
     55          6           0       11.425130   -0.457355    0.133463
     56          6           0       12.777441   -0.495364   -0.745215
     57          6           0       13.947346   -0.210107    0.230403
     58          6           0       15.350554   -0.185167   -0.400639
     59          6           0       15.743363   -1.665882   -0.628633
     60          6           0       16.409075    0.482075    0.485297
     61          6           0       17.821307    0.629802   -0.215121
     62          6           0       18.782372    1.268397    0.743366
     63          6           0       20.238786    1.428601    0.220204
     64          6           0       20.328920    2.317119   -1.044154
     65          6           0       21.131169    2.030926    1.358476
     66          1           0       -4.083909    3.590584    1.335375
     67          1           0      -10.202946    3.754749   -0.653804
     68          1           0      -10.427338   -2.396147   -0.909960
     69          1           0       -2.571010   -1.108449    1.861849
     70          1           0       -2.288922    1.932421    1.156556
     71          1           0       -1.950799    1.196026    3.425271
     72          1           0       -2.989043    2.240655    3.560597
     73          1           0       -3.627913    0.607211    3.518144
     74          1           0       -1.812090   -1.455796   -0.437585
     75          1           0       -2.095243    0.106966   -1.026475
     76          1           0       -0.478398    0.848154    0.780937
     77          1           0       -0.242968   -0.736479    1.430117
     78          1           0       -5.686103    7.106586    0.558721
     79          1           0       -5.895432    6.489198    2.095898
     80          1           0       -4.599045    5.684933    1.221918
     81          1           0       -9.509336    6.074635   -0.610743
     82          1           0       -9.028989    8.149511    0.429704
     83          1           0       -7.625656    7.417684    1.279059
     84          1           0      -12.032601    3.295542   -1.931039
     85          1           0      -13.185814    1.802004   -1.558249
     86          1           0      -12.899982    2.903131   -0.414017
     87          1           0      -12.122177   -1.728151   -0.709224
     88          1           0      -13.341225   -0.450098   -1.548884
     89          1           0      -12.932034   -2.255176   -3.178925
     90          1           0      -12.177143   -0.767986   -3.767651
     91          1           0      -11.171964   -1.943746   -3.084120
     92          1           0       -8.711071   -5.137649   -1.907278
     93          1           0       -7.856587   -5.864333   -0.442351
     94          1           0       -9.574282   -5.031303   -0.593934
     95          1           0       -3.138990   -3.379490    0.030598
     96          1           0       -1.561260   -4.577330    3.789910
     97          1           0       -3.223880   -5.314358    3.979500
     98          1           0       -1.836871   -5.845332    2.818511
     99          1           0        2.593117   -1.550453   -1.781156
    100          1           0        2.562162   -0.150920   -2.322034
    101          1           0        4.144147   -0.996239    0.236749
    102          1           0        4.116643    0.986863   -2.840044
    103          1           0        5.458992    2.281409   -2.015587
    104          1           0        5.872023    0.838748   -2.864714
    105          1           0        6.736790    1.128232    0.418859
    106          1           0        6.297440   -0.488940    0.654222
    107          1           0        7.392977   -1.351995   -1.423047
    108          1           0        7.934099    0.186527   -2.020126
    109          1           0        9.163859    0.721963    0.090280
    110          1           0        8.773349   -0.774660    0.817965
    111          1           0       10.399544   -0.209609   -1.859143
    112          1           0        9.369644   -2.221104   -2.119373
    113          1           0       11.353256   -2.493085   -1.590462
    114          1           0        9.871660   -2.852336   -0.404333
    115          1           0       11.451566    0.428064    0.517749
    116          1           0       11.286783   -1.161628    0.948716
    117          1           0       13.057445   -1.532221   -1.178485
    118          1           0       12.839986    0.155644   -1.598640
    119          1           0       13.721022    0.813649    0.501812
    120          1           0       13.789920   -0.829514    1.326219
    121          1           0       15.256089    0.475040   -1.257389
    122          1           0       15.899767   -2.183183    0.264668
    123          1           0       15.269368   -2.174050   -1.428365
    124          1           0       16.799683   -1.656443   -1.186955
    125          1           0       16.172319    1.449003    0.695433
    126          1           0       16.688689   -0.134348    1.294551
    127          1           0       18.253339   -0.259156   -0.581875
    128          1           0       17.831283    1.265213   -1.210799
    129          1           0       18.415590    2.219557    1.020725
    130          1           0       18.953925    0.747953    1.721224
    131          1           0       20.568297    0.388629   -0.123832
    132          1           0       19.938345    3.269451   -0.886645
    133          1           0       21.322936    2.151637   -1.358613
    134          1           0       19.670864    2.063111   -1.730576
    135          1           0       21.062224    1.178939    2.153846
    136          1           0       22.089655    2.066103    0.886340
    137          1           0       20.857003    3.140192    1.551504
 ---------------------------------------------------------------------

 SCF Done:  E(RCAM-B3LYP) =  -2933.49443009     A.U. after   15 cycles

 Excitation energies and oscillator strengths:

 Excited State   1:      Singlet-A      2.0442 eV  606.53 nm  f=0.2136  <S**2>=0.000
     240 -> 243        0.27225
     241 -> 242        0.64141
 This state for optimization and/or second-order correction.
 Total Energy, E(TD-HF/TD-DFT) =  -2933.41930833
 Copying the excited state density for this state as the 1-particle RhoCI density.

 The electronic state is 1-A.
 Alpha  occ. eigenvalues --  -46.78886 -19.22667 -19.22167 -19.17662 -19.15967
 Alpha  occ. eigenvalues --  -19.15421 -14.37743 -14.35146 -14.34859 -14.34688
 Alpha  occ. eigenvalues --  -10.34642 -10.33863 -10.29801 -10.27616 -10.26719
 Alpha  occ. eigenvalues --  -10.26403 -10.26142 -10.25250 -10.24804 -10.24706
 Alpha  occ. eigenvalues --  -10.24690 -10.24629 -10.24375 -10.24317 -10.23796
 Alpha  occ. eigenvalues --  -10.23591 -10.23574 -10.23525 -10.23432 -10.23287
 Alpha  occ. eigenvalues --  -10.23225 -10.23171 -10.23155 -10.23150 -10.23116
 Alpha  occ. eigenvalues --  -10.23071 -10.22558 -10.22435 -10.22434 -10.22396
 Alpha  occ. eigenvalues --  -10.22275 -10.22243 -10.22224 -10.22116 -10.22005
 Alpha  occ. eigenvalues --  -10.21947 -10.21916 -10.21638 -10.21608 -10.21547
 Alpha  occ. eigenvalues --  -10.21514 -10.21453 -10.21437 -10.21411 -10.21181
 Alpha  occ. eigenvalues --  -10.21057 -10.20717 -10.20661 -10.20510 -10.20100
 Alpha  occ. eigenvalues --  -10.20065 -10.19655 -10.19525 -10.19499 -10.17604
 Alpha  occ. eigenvalues --   -3.07631  -1.82558  -1.82120  -1.82040  -1.15210
 Alpha  occ. eigenvalues --   -1.14742  -1.07922  -1.06514  -1.05016  -0.98247
 Alpha  occ. eigenvalues --   -0.97554  -0.96916  -0.95836  -0.86915  -0.86609
 Alpha  occ. eigenvalues --   -0.85457  -0.85218  -0.84618  -0.84583  -0.83673
 Alpha  occ. eigenvalues --   -0.83181  -0.83033  -0.81956  -0.81322  -0.80838
 Alpha  occ. eigenvalues --   -0.80074  -0.79157  -0.78693  -0.78351  -0.77856
 Alpha  occ. eigenvalues --   -0.77082  -0.76371  -0.75765  -0.75055  -0.73534
 Alpha  occ. eigenvalues --   -0.72903  -0.72576  -0.72139  -0.71794  -0.71186
 Alpha  occ. eigenvalues --   -0.70475  -0.70421  -0.70011  -0.69194  -0.68256
 Alpha  occ. eigenvalues --   -0.67585  -0.65925  -0.65319  -0.64588  -0.63502
 Alpha  occ. eigenvalues --   -0.62797  -0.62475  -0.61330  -0.61067  -0.60974
 Alpha  occ. eigenvalues --   -0.59762  -0.59462  -0.58910  -0.58019  -0.57835
 Alpha  occ. eigenvalues --   -0.57541  -0.56934  -0.56690  -0.56273  -0.55607
 Alpha  occ. eigenvalues --   -0.54713  -0.54569  -0.53600  -0.52775  -0.52602
 Alpha  occ. eigenvalues --   -0.52363  -0.52003  -0.51702  -0.51290  -0.51217
 Alpha  occ. eigenvalues --   -0.50711  -0.50540  -0.50365  -0.50156  -0.49355
 Alpha  occ. eigenvalues --   -0.49292  -0.49163  -0.48742  -0.48551  -0.48139
 Alpha  occ. eigenvalues --   -0.47913  -0.47521  -0.47230  -0.47020  -0.46903
 Alpha  occ. eigenvalues --   -0.46680  -0.46422  -0.46175  -0.46042  -0.45582
 Alpha  occ. eigenvalues --   -0.45516  -0.45029  -0.44950  -0.44763  -0.44551
 Alpha  occ. eigenvalues --   -0.44396  -0.44069  -0.43895  -0.43693  -0.43307
 Alpha  occ. eigenvalues --   -0.43285  -0.43109  -0.42925  -0.42809  -0.42384
 Alpha  occ. eigenvalues --   -0.42280  -0.42116  -0.41689  -0.41643  -0.41103
 Alpha  occ. eigenvalues --   -0.41047  -0.40964  -0.40862  -0.40793  -0.40618
 Alpha  occ. eigenvalues --   -0.40358  -0.40275  -0.40224  -0.39940  -0.39883
 Alpha  occ. eigenvalues --   -0.39611  -0.39379  -0.39263  -0.39032  -0.38872
 Alpha  occ. eigenvalues --   -0.38580  -0.38530  -0.38206  -0.38107  -0.37987
 Alpha  occ. eigenvalues --   -0.37774  -0.37713  -0.37659  -0.37346  -0.37133
 Alpha  occ. eigenvalues --   -0.36926  -0.36870  -0.36790  -0.36221  -0.36017
 Alpha  occ. eigenvalues --   -0.35798  -0.35544  -0.35168  -0.34735  -0.34438
 Alpha  occ. eigenvalues --   -0.34210  -0.34141  -0.34109  -0.34005  -0.33736
 Alpha  occ. eigenvalues --   -0.33433  -0.33090  -0.32885  -0.32562  -0.32454
 Alpha  occ. eigenvalues --   -0.32308  -0.32250  -0.31851  -0.31220  -0.30840
 Alpha  occ. eigenvalues --   -0.30492  -0.29819  -0.29774  -0.28032  -0.27352
 Alpha  occ. eigenvalues --   -0.26863  -0.26437  -0.25576  -0.25363  -0.21335
 Alpha  occ. eigenvalues --   -0.20034
 Alpha virt. eigenvalues --   -0.06973  -0.03767  -0.00225   0.02404   0.02520
 Alpha virt. eigenvalues --    0.03493   0.04514   0.05213   0.05665   0.05856
 Alpha virt. eigenvalues --    0.06309   0.08923   0.09425   0.09461   0.09868

 Mulliken charges:
               1
     1  Mg   0.806519
     2  C    0.074435
     3  C   -0.173224
     4  C   -0.187148
     5  C   -0.177602
     6  N   -0.592250
     7  C    0.269847
     8  C   -0.125550
     9  C   -0.177757
    10  C    0.299825
    11  C   -0.300228
    12  C   -0.175566
    13  C   -0.279650
    14  C    0.614691
    15  O   -0.474889
    16  O   -0.452040
    17  N   -0.691209
    18  C    0.309855
    19  C    0.056920
    20  C   -0.002790
    21  C    0.302734
    22  C   -0.376892
    23  C   -0.062623
    24  C   -0.230535
    25  N   -0.664923
    26  C    0.249074
    27  C    0.045116
    28  C    0.068921
    29  C    0.308992
    30  C   -0.372189
    31  C   -0.254932
    32  C   -0.325143
    33  N   -0.719488
    34  C    0.291908
    35  C   -0.009489
    36  C    0.023248
    37  C    0.281318
    38  C   -0.374812
    39  C    0.354846
    40  O   -0.425495
    41  C   -0.351362
    42  C    0.633161
    43  O   -0.447050
    44  O   -0.407339
    45  C   -0.090254
    46  C   -0.014891
    47  C   -0.119102
    48  C    0.144909
    49  C   -0.334698
    50  C   -0.246385
    51  C   -0.185146
    52  C   -0.150512
    53  C   -0.065828
    54  C   -0.274138
    55  C   -0.167869
    56  C   -0.191128
    57  C   -0.159729
    58  C   -0.058220
    59  C   -0.311252
    60  C   -0.156402
    61  C   -0.193108
    62  C   -0.152598
    63  C   -0.082702
    64  C   -0.305298
    65  C   -0.296042
    66  H    0.069259
    67  H    0.060559
    68  H    0.078691
    69  H    0.122965
    70  H    0.100445
    71  H    0.108490
    72  H    0.108022
    73  H    0.137647
    74  H    0.118728
    75  H    0.103525
    76  H    0.114544
    77  H    0.123678
    78  H    0.079090
    79  H    0.146899
    80  H    0.112277
    81  H    0.088564
    82  H    0.108724
    83  H    0.085828
    84  H    0.115799
    85  H    0.116404
    86  H    0.116799
    87  H    0.109105
    88  H    0.107609
    89  H    0.102918
    90  H    0.106290
    91  H    0.116751
    92  H    0.115079
    93  H    0.142599
    94  H    0.105479
    95  H    0.155237
    96  H    0.107893
    97  H    0.094671
    98  H    0.120465
    99  H    0.142444
   100  H    0.127579
   101  H    0.093089
   102  H    0.094118
   103  H    0.089101
   104  H    0.134629
   105  H    0.102470
   106  H    0.090146
   107  H    0.105033
   108  H    0.084845
   109  H    0.109585
   110  H    0.077270
   111  H    0.062630
   112  H    0.064852
   113  H    0.094318
   114  H    0.099083
   115  H    0.097269
   116  H    0.093734
   117  H    0.081409
   118  H    0.099809
   119  H    0.080895
   120  H    0.052240
   121  H    0.081440
   122  H    0.118338
   123  H    0.111012
   124  H    0.068863
   125  H    0.095934
   126  H    0.099991
   127  H    0.099808
   128  H    0.064069
   129  H    0.087094
   130  H    0.072008
   131  H    0.070648
   132  H    0.097867
   133  H    0.102689
   134  H    0.104360
   135  H    0.094968
   136  H    0.104534
   137  H    0.099950
 Sum of Mulliken charges =  -0.00000

 Dipole moment (field-independent basis, Debye):
    X=              2.4091    Y=              5.0941    Z=              0.4294  Tot=              5.6514
 Quadrupole moment (field-independent basis, Debye-Ang):
   XX=           -334.9299   YY=           -396.1106   ZZ=           -397.6779
   XY=            -23.3898   XZ=              5.9544   YZ=              1.0359

 Normal termination of Gaussian 16 at Sat Sep  7 21:11:32 2019.
