 Gaussian 16, Revision A.03,
 Gaussian 16:  ES64L-G16RevA.03 25-Dec-2016

 ----------------------------------------------------------------------
 # td=(NStates=1) iop(3/107=0140000000,3/108=0140000000) CAM-B3LYP/6-31
 G(d,p)
 ----------------------------------------------------------------------

 --
 TD
 --
 Symbolic Z-matrix:
 Charge =  0 Multiplicity = 1

                         Standard orientation:
 ---------------------------------------------------------------------
 Center     Atomic      Atomic             Coordinates (Angstroms)
 Number     Number       Type             X           Y           Z
 ---------------------------------------------------------------------
      1         12           0       -7.138448    0.634121    0.073016
      2          6           0       -4.913039   -1.957929    0.424941
      3          6           0       -4.837670    2.848797    1.195469
      4          6           0       -9.470660    3.084730   -0.440499
      5          6           0       -9.542515   -1.667816   -0.938087
      6          7           0       -5.099245    0.485552    0.711322
      7          6           0       -4.439309   -0.710908    0.846505
      8          6           0       -2.937859   -0.469813    1.133250
      9          6           0       -3.048687    1.042471    1.524587
     10          6           0       -4.373123    1.505697    1.174530
     11          6           0       -2.834973    1.161034    3.085524
     12          6           0       -1.936134   -0.707381    0.019644
     13          6           0       -0.450216   -0.453373    0.480996
     14          6           0        0.541017   -0.755843   -0.623335
     15          8           0        0.206427   -1.164576   -1.764178
     16          8           0        1.789764   -0.522386   -0.212727
     17          7           0       -7.078572    2.613400    0.273858
     18          6           0       -6.090936    3.321628    0.724559
     19          6           0       -6.360945    4.715631    0.727493
     20          6           0       -7.762832    4.839099    0.286398
     21          6           0       -8.166683    3.466384    0.069995
     22          6           0       -5.443205    5.886240    1.147087
     23          6           0       -8.511266    6.026017    0.099074
     24          6           0       -8.317355    7.227467    0.704954
     25          7           0       -9.188910    0.690150   -0.593237
     26          6           0       -9.911904    1.840325   -0.676331
     27          6           0      -11.304177    1.499536   -0.998607
     28          6           0      -11.376301    0.194160   -1.022293
     29          6           0       -9.940085   -0.371454   -0.968396
     30          6           0      -12.484626    2.445940   -1.085201
     31          6           0      -12.463877   -0.704321   -1.645175
     32          6           0      -12.287696   -0.970401   -3.100223
     33          7           0       -7.153988   -1.323527   -0.314454
     34          6           0       -8.268911   -2.124533   -0.587120
     35          6           0       -7.877362   -3.588318   -0.458449
     36          6           0       -6.554048   -3.578003   -0.123584
     37          6           0       -6.264877   -2.158909    0.015679
     38          6           0       -8.663490   -4.825154   -0.846316
     39          6           0       -5.319362   -4.351620    0.163050
     40          8           0       -5.275612   -5.602370    0.050653
     41          6           0       -4.079961   -3.306991    0.534888
     42          6           0       -3.570940   -3.629005    1.997006
     43          8           0       -3.718521   -3.025408    3.005014
     44          8           0       -2.811197   -4.765117    1.827497
     45          6           0       -2.135338   -5.188343    3.042892
     46          6           0        2.873620   -0.825620   -1.168377
     47          6           0        4.239289   -0.453925   -0.460178
     48          6           0        5.189502    0.281438   -0.971758
     49          6           0        5.086912    1.045748   -2.164976
     50          6           0        6.431174    0.342165   -0.111982
     51          6           0        7.656466   -0.195358   -0.892066
     52          6           0        8.992594   -0.011718   -0.016227
     53          6           0       10.160096   -0.396733   -0.886566
     54          6           0       10.188708   -1.862392   -1.578152
     55          6           0       11.440157   -0.294616   -0.021672
     56          6           0       12.742997   -0.424950   -0.777271
     57          6           0       13.925725   -0.132006    0.244818
     58          6           0       15.221020   -0.208470   -0.534397
     59          6           0       15.666531   -1.562366   -0.926279
     60          6           0       16.440900    0.372714    0.338284
     61          6           0       17.835003    0.518248   -0.230629
     62          6           0       18.877770    1.136394    0.828765
     63          6           0       20.251542    1.342658    0.279210
     64          6           0       20.293540    2.459596   -1.020184
     65          6           0       21.389992    1.834254    1.297797
     66          1           0       -4.190253    3.682829    1.546626
     67          1           0      -10.127358    3.999296   -0.584508
     68          1           0      -10.463254   -2.390581   -1.078404
     69          1           0       -2.708342   -0.928339    1.993450
     70          1           0       -2.291332    1.612991    1.108030
     71          1           0       -1.721253    1.200117    3.294323
     72          1           0       -3.054518    2.219992    3.565880
     73          1           0       -3.420606    0.445999    3.650408
     74          1           0       -1.909308   -1.883749   -0.456095
     75          1           0       -2.104644   -0.014773   -0.687929
     76          1           0       -0.127196    0.447156    1.002511
     77          1           0       -0.227332   -1.386492    1.243526
     78          1           0       -5.592074    6.698834    0.374893
     79          1           0       -5.661882    6.166168    2.236535
     80          1           0       -4.535648    5.368136    1.132784
     81          1           0       -9.458349    5.903410   -0.356416
     82          1           0       -8.929616    8.107099    0.472265
     83          1           0       -7.494324    7.391430    1.315007
     84          1           0      -12.245706    3.060227   -1.876315
     85          1           0      -13.214237    1.751095   -1.450889
     86          1           0      -12.465452    3.056514   -0.183914
     87          1           0      -12.556313   -1.693714   -0.923181
     88          1           0      -13.365281   -0.105175   -1.447481
     89          1           0      -13.070848   -1.816602   -3.288840
     90          1           0      -12.635222   -0.230173   -3.728142
     91          1           0      -11.344233   -1.386528   -3.441085
     92          1           0       -9.143611   -4.922457   -1.767931
     93          1           0       -7.978071   -5.664241   -0.678054
     94          1           0       -9.536866   -4.833012   -0.290414
     95          1           0       -3.314716   -3.631161   -0.176909
     96          1           0       -1.720956   -4.312676    3.496740
     97          1           0       -3.008844   -5.603567    3.602566
     98          1           0       -1.448113   -6.120988    2.778822
     99          1           0        2.669933   -1.900675   -1.421430
    100          1           0        2.811273   -0.262868   -1.940143
    101          1           0        4.372022   -1.121715    0.434596
    102          1           0        4.100310    1.028526   -2.708126
    103          1           0        5.664092    2.064257   -2.217276
    104          1           0        5.784633    0.770417   -3.062793
    105          1           0        6.586956    1.455675    0.206804
    106          1           0        6.434833   -0.193057    0.734845
    107          1           0        7.561518   -1.216507   -1.383142
    108          1           0        8.026246    0.505093   -1.729745
    109          1           0        9.320710    1.064243    0.389373
    110          1           0        8.762814   -0.908723    0.822910
    111          1           0       10.020649    0.284903   -1.614775
    112          1           0        9.249644   -1.920007   -2.308842
    113          1           0       11.068119   -2.051642   -1.910108
    114          1           0        9.887887   -2.505763   -0.844400
    115          1           0       11.352241    0.763061    0.470965
    116          1           0       11.385637   -1.142560    0.714238
    117          1           0       13.013667   -1.375075   -0.869973
    118          1           0       12.782021    0.288682   -1.574136
    119          1           0       13.663204    0.861541    0.742947
    120          1           0       13.736502   -0.861540    1.033436
    121          1           0       15.246351    0.486978   -1.419323
    122          1           0       16.056852   -2.171153    0.075510
    123          1           0       14.877801   -2.374342   -1.501009
    124          1           0       16.720216   -1.739447   -1.407759
    125          1           0       16.141146    1.329264    0.804002
    126          1           0       16.462679   -0.179904    1.336941
    127          1           0       18.437916   -0.399036   -0.445040
    128          1           0       17.718666    1.161537   -1.115923
    129          1           0       18.581482    2.149368    1.066352
    130          1           0       19.117270    0.535166    1.908249
    131          1           0       20.452906    0.238009   -0.158307
    132          1           0       19.975996    3.479108   -0.603528
    133          1           0       21.271765    2.204295   -1.269321
    134          1           0       19.577097    2.185728   -1.682598
    135          1           0       21.059543    1.370128    2.424872
    136          1           0       22.533261    1.533113    0.965604
    137          1           0       21.334244    2.847629    1.311125
 ---------------------------------------------------------------------

 SCF Done:  E(RCAM-B3LYP) =  -2933.44067014     A.U. after   16 cycles

 Excitation energies and oscillator strengths:

 Excited State   1:      Singlet-A      1.9977 eV  620.62 nm  f=0.2932  <S**2>=0.000
     240 -> 243       -0.20536
     241 -> 242        0.67051
 This state for optimization and/or second-order correction.
 Total Energy, E(TD-HF/TD-DFT) =  -2933.36725423
 Copying the excited state density for this state as the 1-particle RhoCI density.

 The electronic state is 1-A.
 Alpha  occ. eigenvalues --  -46.80179 -19.21959 -19.21557 -19.18167 -19.16459
 Alpha  occ. eigenvalues --  -19.15666 -14.37214 -14.36157 -14.34888 -14.34576
 Alpha  occ. eigenvalues --  -10.35176 -10.34187 -10.31433 -10.27608 -10.26737
 Alpha  occ. eigenvalues --  -10.25831 -10.25826 -10.25724 -10.25540 -10.24822
 Alpha  occ. eigenvalues --  -10.24382 -10.24360 -10.24283 -10.24023 -10.23920
 Alpha  occ. eigenvalues --  -10.23760 -10.23584 -10.23477 -10.23459 -10.23292
 Alpha  occ. eigenvalues --  -10.23260 -10.23066 -10.23022 -10.23004 -10.22973
 Alpha  occ. eigenvalues --  -10.22922 -10.22857 -10.22838 -10.22687 -10.22236
 Alpha  occ. eigenvalues --  -10.22192 -10.22105 -10.22047 -10.21979 -10.21976
 Alpha  occ. eigenvalues --  -10.21914 -10.21805 -10.21721 -10.21695 -10.21666
 Alpha  occ. eigenvalues --  -10.21643 -10.21484 -10.21390 -10.21268 -10.21225
 Alpha  occ. eigenvalues --  -10.20942 -10.20860 -10.20812 -10.20801 -10.20760
 Alpha  occ. eigenvalues --  -10.20612 -10.20241 -10.20187 -10.19521 -10.19419
 Alpha  occ. eigenvalues --   -3.08796  -1.83741  -1.83253  -1.83216  -1.13204
 Alpha  occ. eigenvalues --   -1.11922  -1.05662  -1.03931  -1.01897  -1.01041
 Alpha  occ. eigenvalues --   -0.99324  -0.98512  -0.97608  -0.87227  -0.85922
 Alpha  occ. eigenvalues --   -0.85846  -0.84613  -0.84252  -0.83935  -0.83832
 Alpha  occ. eigenvalues --   -0.83210  -0.82663  -0.82510  -0.81728  -0.80667
 Alpha  occ. eigenvalues --   -0.79762  -0.79006  -0.78781  -0.77865  -0.77667
 Alpha  occ. eigenvalues --   -0.76470  -0.76010  -0.75348  -0.75167  -0.73611
 Alpha  occ. eigenvalues --   -0.72815  -0.72449  -0.72133  -0.71168  -0.70816
 Alpha  occ. eigenvalues --   -0.70423  -0.70233  -0.69326  -0.68799  -0.67824
 Alpha  occ. eigenvalues --   -0.66979  -0.66025  -0.65099  -0.64725  -0.63930
 Alpha  occ. eigenvalues --   -0.63304  -0.62308  -0.61637  -0.60095  -0.59954
 Alpha  occ. eigenvalues --   -0.59553  -0.59106  -0.58954  -0.58344  -0.58034
 Alpha  occ. eigenvalues --   -0.56740  -0.56411  -0.56263  -0.55461  -0.54961
 Alpha  occ. eigenvalues --   -0.54806  -0.54158  -0.53705  -0.53134  -0.53011
 Alpha  occ. eigenvalues --   -0.52146  -0.52085  -0.51582  -0.51050  -0.50971
 Alpha  occ. eigenvalues --   -0.50377  -0.50200  -0.49918  -0.49577  -0.49240
 Alpha  occ. eigenvalues --   -0.49029  -0.48462  -0.48149  -0.47930  -0.47777
 Alpha  occ. eigenvalues --   -0.47382  -0.47226  -0.47087  -0.46981  -0.46820
 Alpha  occ. eigenvalues --   -0.46490  -0.46445  -0.46297  -0.46015  -0.45894
 Alpha  occ. eigenvalues --   -0.45792  -0.45375  -0.45367  -0.45109  -0.44774
 Alpha  occ. eigenvalues --   -0.44426  -0.44268  -0.44146  -0.43814  -0.43730
 Alpha  occ. eigenvalues --   -0.43555  -0.43334  -0.42999  -0.42744  -0.42542
 Alpha  occ. eigenvalues --   -0.42530  -0.42299  -0.42243  -0.42061  -0.41903
 Alpha  occ. eigenvalues --   -0.41606  -0.41484  -0.41170  -0.41103  -0.41086
 Alpha  occ. eigenvalues --   -0.40980  -0.40714  -0.40507  -0.40087  -0.39992
 Alpha  occ. eigenvalues --   -0.39717  -0.39551  -0.39323  -0.38958  -0.38859
 Alpha  occ. eigenvalues --   -0.38747  -0.38703  -0.38601  -0.38472  -0.38025
 Alpha  occ. eigenvalues --   -0.37966  -0.37622  -0.37501  -0.37223  -0.37181
 Alpha  occ. eigenvalues --   -0.36623  -0.36542  -0.36214  -0.36155  -0.36121
 Alpha  occ. eigenvalues --   -0.35891  -0.35652  -0.34896  -0.34546  -0.34264
 Alpha  occ. eigenvalues --   -0.34223  -0.33840  -0.33749  -0.33575  -0.33514
 Alpha  occ. eigenvalues --   -0.32831  -0.32708  -0.32526  -0.32437  -0.32329
 Alpha  occ. eigenvalues --   -0.31832  -0.31714  -0.31438  -0.30906  -0.30003
 Alpha  occ. eigenvalues --   -0.29699  -0.29267  -0.29145  -0.28338  -0.28043
 Alpha  occ. eigenvalues --   -0.27424  -0.26611  -0.26359  -0.23636  -0.21292
 Alpha  occ. eigenvalues --   -0.19366
 Alpha virt. eigenvalues --   -0.06902  -0.02751  -0.00348   0.02009   0.03617
 Alpha virt. eigenvalues --    0.03889   0.04168   0.04596   0.05191   0.05745
 Alpha virt. eigenvalues --    0.06566   0.09004   0.09024   0.09277   0.09287

 Mulliken charges:
               1
     1  Mg   0.819504
     2  C    0.016621
     3  C   -0.202409
     4  C   -0.188258
     5  C   -0.189830
     6  N   -0.633798
     7  C    0.257120
     8  C   -0.114828
     9  C   -0.185801
    10  C    0.393209
    11  C   -0.327357
    12  C   -0.140342
    13  C   -0.267241
    14  C    0.608356
    15  O   -0.505993
    16  O   -0.469209
    17  N   -0.735251
    18  C    0.377526
    19  C   -0.037413
    20  C    0.027764
    21  C    0.261593
    22  C   -0.357443
    23  C   -0.084778
    24  C   -0.248616
    25  N   -0.682402
    26  C    0.351604
    27  C    0.021799
    28  C   -0.028006
    29  C    0.288698
    30  C   -0.345333
    31  C   -0.232684
    32  C   -0.297263
    33  N   -0.693560
    34  C    0.254434
    35  C   -0.033701
    36  C    0.079686
    37  C    0.327114
    38  C   -0.379534
    39  C    0.344031
    40  O   -0.467133
    41  C   -0.291292
    42  C    0.619493
    43  O   -0.445625
    44  O   -0.456059
    45  C   -0.090285
    46  C    0.029271
    47  C   -0.178379
    48  C    0.225559
    49  C   -0.407933
    50  C   -0.216590
    51  C   -0.190085
    52  C   -0.160470
    53  C   -0.056558
    54  C   -0.315338
    55  C   -0.170603
    56  C   -0.166815
    57  C   -0.194864
    58  C   -0.032483
    59  C   -0.293420
    60  C   -0.190214
    61  C   -0.171411
    62  C   -0.155588
    63  C   -0.064328
    64  C   -0.329020
    65  C   -0.295108
    66  H    0.070867
    67  H    0.081342
    68  H    0.087408
    69  H    0.119120
    70  H    0.102641
    71  H    0.100731
    72  H    0.089789
    73  H    0.136922
    74  H    0.098933
    75  H    0.126984
    76  H    0.134482
    77  H    0.110806
    78  H    0.128405
    79  H    0.121483
    80  H    0.111152
    81  H    0.076084
    82  H    0.098085
    83  H    0.099267
    84  H    0.130191
    85  H    0.108199
    86  H    0.132123
    87  H    0.078668
    88  H    0.098349
    89  H    0.088489
    90  H    0.122541
    91  H    0.122865
    92  H    0.131745
    93  H    0.147626
    94  H    0.124637
    95  H    0.169488
    96  H    0.138019
    97  H    0.134435
    98  H    0.122216
    99  H    0.126468
   100  H    0.113577
   101  H    0.087829
   102  H    0.126024
   103  H    0.113591
   104  H    0.115356
   105  H    0.090716
   106  H    0.113795
   107  H    0.106406
   108  H    0.076337
   109  H    0.086229
   110  H    0.052420
   111  H    0.090176
   112  H    0.075901
   113  H    0.117701
   114  H    0.114136
   115  H    0.062027
   116  H    0.086859
   117  H    0.114991
   118  H    0.096191
   119  H    0.082776
   120  H    0.097636
   121  H    0.087322
   122  H    0.073992
   123  H    0.071517
   124  H    0.106748
   125  H    0.087365
   126  H    0.081297
   127  H    0.095479
   128  H    0.099387
   129  H    0.087888
   130  H    0.059870
   131  H    0.053076
   132  H    0.095936
   133  H    0.124742
   134  H    0.114043
   135  H    0.069390
   136  H    0.090160
   137  H    0.127821
 Sum of Mulliken charges =  -0.00000

 Dipole moment (field-independent basis, Debye):
    X=              3.1245    Y=              3.4345    Z=              0.4315  Tot=              4.6630
 Quadrupole moment (field-independent basis, Debye-Ang):
   XX=           -341.1931   YY=           -398.9681   ZZ=           -398.9011
   XY=             -8.6241   XZ=              4.8889   YZ=             -6.1686

 Normal termination of Gaussian 16 at Thu Sep 12 03:55:42 2019.
