 Gaussian 09, Revision D.01,
 Gaussian 09:  ES64L-G09RevD.01 24-Apr-2013

 -------------------------------------
 # td=(NStates=1) CAM-B3LYP/6-31G(d,p)
 -------------------------------------

 --
 TD
 --
 Symbolic Z-matrix:
 Charge =  0 Multiplicity = 1

                         Standard orientation:
 ---------------------------------------------------------------------
 Center     Atomic      Atomic             Coordinates (Angstroms)
 Number     Number       Type             X           Y           Z
 ---------------------------------------------------------------------
      1         12           0       -7.153495    0.594809    0.083827
      2          6           0       -4.903643   -1.928816    0.486979
      3          6           0       -4.754294    2.911524    1.165901
      4          6           0       -9.309467    3.093242   -0.406264
      5          6           0       -9.556636   -1.719188   -0.893457
      6          7           0       -5.082615    0.542805    0.806527
      7          6           0       -4.397535   -0.672738    0.736663
      8          6           0       -2.924878   -0.399907    1.212816
      9          6           0       -3.055336    1.035710    1.710049
     10          6           0       -4.442828    1.521637    1.213046
     11          6           0       -3.003468    1.109606    3.270825
     12          6           0       -1.940985   -0.653683    0.034771
     13          6           0       -0.507420   -0.595729    0.575903
     14          6           0        0.541378   -0.728426   -0.573905
     15          8           0        0.244718   -1.022111   -1.742079
     16          8           0        1.848952   -0.516765   -0.078687
     17          7           0       -6.982371    2.560621    0.407205
     18          6           0       -5.938416    3.437669    0.776882
     19          6           0       -6.374205    4.799899    0.799839
     20          6           0       -7.644789    4.853335    0.317939
     21          6           0       -8.069462    3.399134   -0.068264
     22          6           0       -5.571857    5.953165    1.164999
     23          6           0       -8.562421    5.944292    0.163222
     24          6           0       -8.501635    7.088592    0.809703
     25          7           0       -9.030415    0.650607   -0.668511
     26          6           0       -9.840854    1.768289   -0.693327
     27          6           0      -11.133097    1.537385   -1.116308
     28          6           0      -11.224426    0.152865   -1.334673
     29          6           0       -9.974088   -0.378792   -1.007917
     30          6           0      -12.360044    2.505392   -1.413393
     31          6           0      -12.462226   -0.660158   -1.745234
     32          6           0      -12.481535   -0.941956   -3.246058
     33          7           0       -7.227401   -1.381339   -0.108751
     34          6           0       -8.302893   -2.226127   -0.503037
     35          6           0       -7.824542   -3.598447   -0.468438
     36          6           0       -6.463089   -3.554473   -0.171546
     37          6           0       -6.256849   -2.170704    0.071372
     38          6           0       -8.569652   -4.850334   -0.823330
     39          6           0       -5.302996   -4.377780    0.125985
     40          8           0       -5.106039   -5.583765    0.157404
     41          6           0       -4.128643   -3.312042    0.494621
     42          6           0       -3.535057   -3.716665    1.846366
     43          8           0       -3.742362   -3.229631    2.956136
     44          8           0       -2.653507   -4.769467    1.772962
     45          6           0       -1.961760   -5.109201    3.058698
     46          6           0        2.837974   -0.887218   -1.052039
     47          6           0        4.039693   -0.556019   -0.465095
     48          6           0        5.053408    0.236034   -0.832137
     49          6           0        4.883517    1.157983   -2.036892
     50          6           0        6.351999    0.275944   -0.211490
     51          6           0        7.583887   -0.221990   -0.998071
     52          6           0        8.936486   -0.122164   -0.226434
     53          6           0       10.256813   -0.522780   -0.903221
     54          6           0       10.244679   -2.028844   -1.290049
     55          6           0       11.321035   -0.134340   -0.007442
     56          6           0       12.733465   -0.513254   -0.727413
     57          6           0       13.933571   -0.045565    0.146616
     58          6           0       15.290379   -0.086388   -0.527954
     59          6           0       15.680296   -1.484443   -0.990911
     60          6           0       16.346283    0.492662    0.352816
     61          6           0       17.795005    0.428648   -0.233097
     62          6           0       18.686440    1.407620    0.579216
     63          6           0       20.225639    1.327628    0.190476
     64          6           0       20.455964    2.121131   -1.040987
     65          6           0       21.090309    1.901811    1.340103
     66          1           0       -3.988705    3.758545    1.372933
     67          1           0      -10.023687    3.904986   -0.494004
     68          1           0      -10.202378   -2.429097   -1.198589
     69          1           0       -2.493526   -1.107816    1.916989
     70          1           0       -2.306159    1.651938    1.135878
     71          1           0       -1.947695    0.873119    3.591156
     72          1           0       -3.363360    2.059643    3.751517
     73          1           0       -3.689534    0.394617    3.727935
     74          1           0       -2.146376   -1.554826   -0.381512
     75          1           0       -1.874637    0.235881   -0.634782
     76          1           0       -0.275791    0.413525    1.103525
     77          1           0       -0.158920   -1.244850    1.265404
     78          1           0       -5.810174    6.949970    0.310083
     79          1           0       -5.649941    6.383135    2.201044
     80          1           0       -4.575604    5.986522    1.234136
     81          1           0       -9.453925    5.919226   -0.487052
     82          1           0       -9.041222    7.960871    0.640705
     83          1           0       -7.573961    7.346735    1.625879
     84          1           0      -12.083683    3.172570   -2.309583
     85          1           0      -13.217608    1.980800   -1.633605
     86          1           0      -12.333279    3.293087   -0.687087
     87          1           0      -12.466569   -1.543092   -1.182502
     88          1           0      -13.411014   -0.214273   -1.477333
     89          1           0      -13.287006   -1.626060   -3.482256
     90          1           0      -12.693045   -0.001524   -4.024808
     91          1           0      -11.548485   -1.503719   -3.492084
     92          1           0       -9.164015   -4.827100   -1.709794
     93          1           0       -7.719461   -5.715463   -0.811764
     94          1           0       -9.384279   -5.216464   -0.063958
     95          1           0       -3.385403   -3.441576   -0.320486
     96          1           0       -1.667883   -4.221735    3.554517
     97          1           0       -2.833065   -5.756147    3.700556
     98          1           0       -1.371285   -5.848587    2.809728
     99          1           0        2.868801   -1.885926   -1.446232
    100          1           0        2.661166   -0.266795   -1.828032
    101          1           0        4.303694   -1.250977    0.479485
    102          1           0        3.912023    1.090033   -2.464861
    103          1           0        5.066843    2.276828   -1.778778
    104          1           0        5.524034    1.050205   -2.957244
    105          1           0        6.427551    1.161022    0.202515
    106          1           0        6.327547   -0.240206    0.787493
    107          1           0        7.408630   -1.290963   -1.401020
    108          1           0        7.844121    0.070534   -2.051456
    109          1           0        8.876135    1.108982    0.072323
    110          1           0        8.850627   -0.616666    0.774958
    111          1           0       10.339474   -0.028411   -1.717595
    112          1           0        9.301191   -2.364016   -1.864004
    113          1           0       11.159781   -2.015178   -1.856589
    114          1           0       10.574499   -2.691002   -0.326932
    115          1           0       11.355022    1.000013    0.091738
    116          1           0       11.329095   -0.573373    1.115855
    117          1           0       12.860110   -1.622479   -0.759138
    118          1           0       12.865092   -0.038002   -1.665649
    119          1           0       13.795469    1.048868    0.444953
    120          1           0       13.999892   -0.568630    1.161749
    121          1           0       15.179795    0.587020   -1.311289
    122          1           0       16.341292   -2.088234   -0.077664
    123          1           0       14.897354   -2.187354   -1.332418
    124          1           0       16.554857   -1.285689   -1.610426
    125          1           0       16.202712    1.704671    0.795976
    126          1           0       16.242956   -0.324037    1.190393
    127          1           0       18.424352   -0.560235   -0.450358
    128          1           0       17.756162    0.731344   -1.305948
    129          1           0       18.161671    2.581179    0.615168
    130          1           0       18.712245    1.250621    1.887229
    131          1           0       20.324937    0.367353    0.027381
    132          1           0       20.460659    3.330689   -0.829198
    133          1           0       21.561878    1.979174   -1.345581
    134          1           0       19.942590    1.864146   -1.998985
    135          1           0       20.781387    1.418687    2.352697
    136          1           0       22.181683    1.745585    1.008649
    137          1           0       21.088637    3.147560    1.408417
 ---------------------------------------------------------------------

 SCF Done:  E(RCAM-B3LYP) =  -2932.60333711     A.U. after   17 cycles

 Excitation energies and oscillator strengths:

 Excited State   1:      Singlet-A      2.3192 eV  534.59 nm  f=0.1725  <S**2>=0.000
     240 -> 243       -0.30535
     241 -> 242        0.62608
 This state for optimization and/or second-order correction.
 Total Energy, E(TD-HF/TD-KS) =  -2932.51810711
 Copying the excited state density for this state as the 1-particle RhoCI density.

 The electronic state is 1-A.
 Alpha  occ. eigenvalues --  -46.83812 -19.26178 -19.24989 -19.21911 -19.20874
 Alpha  occ. eigenvalues --  -19.20116 -14.41333 -14.40018 -14.38969 -14.38768
 Alpha  occ. eigenvalues --  -10.39914 -10.39109 -10.35956 -10.31291 -10.31125
 Alpha  occ. eigenvalues --  -10.30948 -10.30110 -10.29820 -10.29585 -10.29496
 Alpha  occ. eigenvalues --  -10.29301 -10.29054 -10.28968 -10.28841 -10.28485
 Alpha  occ. eigenvalues --  -10.28283 -10.28142 -10.28060 -10.27790 -10.27683
 Alpha  occ. eigenvalues --  -10.27564 -10.27550 -10.27469 -10.27433 -10.27334
 Alpha  occ. eigenvalues --  -10.27324 -10.27214 -10.27128 -10.27112 -10.27066
 Alpha  occ. eigenvalues --  -10.26915 -10.26700 -10.26676 -10.26672 -10.26638
 Alpha  occ. eigenvalues --  -10.26463 -10.26371 -10.26304 -10.26251 -10.26220
 Alpha  occ. eigenvalues --  -10.26161 -10.26137 -10.26099 -10.25855 -10.25845
 Alpha  occ. eigenvalues --  -10.25779 -10.25679 -10.25647 -10.25437 -10.25422
 Alpha  occ. eigenvalues --  -10.25268 -10.25132 -10.24955 -10.24815 -10.24570
 Alpha  occ. eigenvalues --   -3.12987  -1.87679  -1.87291  -1.87123  -1.16284
 Alpha  occ. eigenvalues --   -1.15831  -1.10943  -1.08768  -1.06516  -1.06328
 Alpha  occ. eigenvalues --   -1.05528  -1.01974  -1.00501  -0.91988  -0.91851
 Alpha  occ. eigenvalues --   -0.91284  -0.90351  -0.90125  -0.89705  -0.89182
 Alpha  occ. eigenvalues --   -0.88602  -0.88132  -0.87586  -0.86872  -0.86444
 Alpha  occ. eigenvalues --   -0.84940  -0.84329  -0.83276  -0.83116  -0.82846
 Alpha  occ. eigenvalues --   -0.81200  -0.80904  -0.80727  -0.79329  -0.78024
 Alpha  occ. eigenvalues --   -0.77688  -0.77343  -0.76572  -0.76212  -0.75480
 Alpha  occ. eigenvalues --   -0.74805  -0.73917  -0.73636  -0.72764  -0.72319
 Alpha  occ. eigenvalues --   -0.72020  -0.70924  -0.69821  -0.69530  -0.68747
 Alpha  occ. eigenvalues --   -0.67116  -0.66563  -0.65420  -0.65139  -0.64314
 Alpha  occ. eigenvalues --   -0.63882  -0.63698  -0.63592  -0.62754  -0.62032
 Alpha  occ. eigenvalues --   -0.61498  -0.60868  -0.60516  -0.60084  -0.59682
 Alpha  occ. eigenvalues --   -0.59042  -0.58000  -0.57652  -0.57387  -0.57232
 Alpha  occ. eigenvalues --   -0.56549  -0.55617  -0.55392  -0.55004  -0.54605
 Alpha  occ. eigenvalues --   -0.54081  -0.53764  -0.53304  -0.53190  -0.53031
 Alpha  occ. eigenvalues --   -0.52697  -0.52522  -0.52478  -0.51989  -0.51939
 Alpha  occ. eigenvalues --   -0.51639  -0.51454  -0.50997  -0.50832  -0.50571
 Alpha  occ. eigenvalues --   -0.50131  -0.49696  -0.49666  -0.49527  -0.49301
 Alpha  occ. eigenvalues --   -0.49106  -0.49050  -0.48897  -0.48718  -0.48569
 Alpha  occ. eigenvalues --   -0.47751  -0.47495  -0.47360  -0.47149  -0.46925
 Alpha  occ. eigenvalues --   -0.46801  -0.46198  -0.46070  -0.45892  -0.45553
 Alpha  occ. eigenvalues --   -0.45516  -0.45344  -0.44776  -0.44756  -0.44730
 Alpha  occ. eigenvalues --   -0.44536  -0.44197  -0.44002  -0.43809  -0.43688
 Alpha  occ. eigenvalues --   -0.43507  -0.43378  -0.43256  -0.43113  -0.42990
 Alpha  occ. eigenvalues --   -0.42681  -0.42615  -0.42521  -0.42402  -0.42081
 Alpha  occ. eigenvalues --   -0.41860  -0.41797  -0.41725  -0.41540  -0.41035
 Alpha  occ. eigenvalues --   -0.40785  -0.40774  -0.40630  -0.40519  -0.40328
 Alpha  occ. eigenvalues --   -0.40058  -0.39924  -0.39712  -0.39344  -0.39011
 Alpha  occ. eigenvalues --   -0.38869  -0.38760  -0.38423  -0.38379  -0.37947
 Alpha  occ. eigenvalues --   -0.37759  -0.37381  -0.37292  -0.36610  -0.36532
 Alpha  occ. eigenvalues --   -0.36308  -0.36219  -0.36115  -0.36009  -0.34815
 Alpha  occ. eigenvalues --   -0.34723  -0.34486  -0.34415  -0.33984  -0.33268
 Alpha  occ. eigenvalues --   -0.33059  -0.32736  -0.32467  -0.31007  -0.30571
 Alpha  occ. eigenvalues --   -0.30230  -0.29616  -0.27970  -0.27668  -0.23651
 Alpha  occ. eigenvalues --   -0.22005
 Alpha virt. eigenvalues --   -0.05560  -0.03574   0.01173   0.04214   0.05477
 Alpha virt. eigenvalues --    0.05917   0.06313   0.06508   0.06730   0.07887
 Alpha virt. eigenvalues --    0.08544   0.10983   0.11128   0.11380   0.11622

 Mulliken charges:
               1
     1  Mg   0.813964
     2  C    0.076464
     3  C   -0.238739
     4  C   -0.181707
     5  C   -0.154212
     6  N   -0.597066
     7  C    0.255887
     8  C   -0.145155
     9  C   -0.158784
    10  C    0.356279
    11  C   -0.316532
    12  C   -0.155332
    13  C   -0.278384
    14  C    0.603197
    15  O   -0.472268
    16  O   -0.499054
    17  N   -0.724141
    18  C    0.344127
    19  C    0.089734
    20  C    0.014608
    21  C    0.305517
    22  C   -0.387520
    23  C   -0.077187
    24  C   -0.240273
    25  N   -0.700321
    26  C    0.295368
    27  C    0.001858
    28  C    0.032875
    29  C    0.257647
    30  C   -0.349105
    31  C   -0.237862
    32  C   -0.299754
    33  N   -0.720791
    34  C    0.235213
    35  C    0.030975
    36  C    0.023646
    37  C    0.333295
    38  C   -0.395643
    39  C    0.370105
    40  O   -0.459069
    41  C   -0.325381
    42  C    0.632896
    43  O   -0.487833
    44  O   -0.484001
    45  C   -0.056852
    46  C    0.035104
    47  C   -0.132065
    48  C    0.130725
    49  C   -0.375730
    50  C   -0.216819
    51  C   -0.179438
    52  C   -0.154937
    53  C   -0.032019
    54  C   -0.309815
    55  C   -0.168893
    56  C   -0.203324
    57  C   -0.177650
    58  C   -0.056683
    59  C   -0.305155
    60  C   -0.142680
    61  C   -0.190580
    62  C   -0.138298
    63  C   -0.027256
    64  C   -0.295464
    65  C   -0.297037
    66  H    0.081381
    67  H    0.079039
    68  H    0.079281
    69  H    0.122334
    70  H    0.097724
    71  H    0.104571
    72  H    0.108621
    73  H    0.136931
    74  H    0.125757
    75  H    0.113773
    76  H    0.124550
    77  H    0.141913
    78  H    0.085338
    79  H    0.119864
    80  H    0.123768
    81  H    0.103045
    82  H    0.110446
    83  H    0.083471
    84  H    0.108669
    85  H    0.122876
    86  H    0.123159
    87  H    0.115757
    88  H    0.109131
    89  H    0.106601
    90  H    0.089930
    91  H    0.109129
    92  H    0.130486
    93  H    0.137712
    94  H    0.115479
    95  H    0.168983
    96  H    0.145893
    97  H    0.099969
    98  H    0.135862
    99  H    0.134169
   100  H    0.118177
   101  H    0.066021
   102  H    0.115075
   103  H    0.101146
   104  H    0.113282
   105  H    0.118173
   106  H    0.092875
   107  H    0.076703
   108  H    0.089541
   109  H    0.042780
   110  H    0.087456
   111  H    0.099196
   112  H    0.103486
   113  H    0.114234
   114  H    0.084458
   115  H    0.094400
   116  H    0.081624
   117  H    0.102056
   118  H    0.100557
   119  H    0.072507
   120  H    0.075238
   121  H    0.092232
   122  H    0.060965
   123  H    0.112903
   124  H    0.112425
   125  H    0.070585
   126  H    0.085314
   127  H    0.087666
   128  H    0.100527
   129  H    0.055473
   130  H    0.038236
   131  H    0.101872
   132  H    0.084030
   133  H    0.080638
   134  H    0.102773
   135  H    0.100308
   136  H    0.094975
   137  H    0.081807
 Sum of Mulliken charges =   0.00000

 Dipole moment (field-independent basis, Debye):
    X=              0.7141    Y=              4.3478    Z=             -0.6708  Tot=              4.4568
 Quadrupole moment (field-independent basis, Debye-Ang):
   XX=           -328.0029   YY=           -391.3184   ZZ=           -399.7424
   XY=            -26.3817   XZ=              1.1064   YZ=              0.9465

 Normal termination of Gaussian 09 at Thu Jul  4 09:27:46 2019.
