 Gaussian 09, Revision D.01,
 Gaussian 09:  ES64L-G09RevD.01 24-Apr-2013

 -------------------------------------
 # td=(NStates=1) CAM-B3LYP/6-31G(d,p)
 -------------------------------------

 --
 TD
 --
 Symbolic Z-matrix:
 Charge =  0 Multiplicity = 1

                         Standard orientation:
 ---------------------------------------------------------------------
 Center     Atomic      Atomic             Coordinates (Angstroms)
 Number     Number       Type             X           Y           Z
 ---------------------------------------------------------------------
      1         12           0       -7.212216    0.632596    0.084973
      2          6           0       -4.939604   -2.014473    0.587961
      3          6           0       -4.805244    2.853635    1.077410
      4          6           0       -9.418247    3.185201   -0.477247
      5          6           0       -9.475389   -1.671040   -0.990226
      6          7           0       -5.162608    0.390278    0.732559
      7          6           0       -4.381350   -0.699767    0.777913
      8          6           0       -2.940129   -0.423729    1.131931
      9          6           0       -3.083645    1.016986    1.596523
     10          6           0       -4.419503    1.506425    1.182142
     11          6           0       -2.836002    1.277804    3.196779
     12          6           0       -1.872592   -0.685683    0.008140
     13          6           0       -0.509034   -0.585422    0.506449
     14          6           0        0.499129   -0.826671   -0.634740
     15          8           0        0.205759   -1.133755   -1.767341
     16          8           0        1.781119   -0.508077   -0.112612
     17          7           0       -7.149363    2.686314    0.302709
     18          6           0       -6.039115    3.377474    0.872264
     19          6           0       -6.447911    4.757350    0.793429
     20          6           0       -7.744036    4.940813    0.293243
     21          6           0       -8.223122    3.538834    0.073324
     22          6           0       -5.541701    5.882374    1.087056
     23          6           0       -8.577711    6.057960    0.126309
     24          6           0       -8.389540    7.234962    0.822565
     25          7           0       -9.075995    0.699258   -0.587002
     26          6           0       -9.877011    1.793323   -0.659073
     27          6           0      -11.235588    1.516758   -1.081387
     28          6           0      -11.306546    0.134702   -1.257868
     29          6           0       -9.897429   -0.373293   -0.870424
     30          6           0      -12.377244    2.424539   -1.261020
     31          6           0      -12.462746   -0.718522   -1.765506
     32          6           0      -12.195140   -1.025386   -3.258611
     33          7           0       -7.279722   -1.413268   -0.130975
     34          6           0       -8.256165   -2.243548   -0.540096
     35          6           0       -7.839283   -3.664975   -0.435941
     36          6           0       -6.580726   -3.518213   -0.028834
     37          6           0       -6.181309   -2.194521    0.150848
     38          6           0       -8.677255   -4.805217   -0.839025
     39          6           0       -5.383102   -4.385164    0.223274
     40          8           0       -5.395961   -5.558593    0.300987
     41          6           0       -4.162280   -3.430481    0.525238
     42          6           0       -3.571200   -3.667135    1.872350
     43          8           0       -3.719871   -3.030568    2.929997
     44          8           0       -2.715300   -4.765393    1.777488
     45          6           0       -2.034043   -5.090186    2.986570
     46          6           0        2.749068   -0.776189   -1.079674
     47          6           0        4.148141   -0.551300   -0.585909
     48          6           0        5.124585    0.244907   -0.992088
     49          6           0        4.970184    1.156052   -2.158648
     50          6           0        6.466337    0.445443   -0.311066
     51          6           0        7.655973   -0.141141   -1.025204
     52          6           0        8.908718   -0.021227   -0.169478
     53          6           0       10.199489   -0.567259   -0.851228
     54          6           0       10.085364   -2.108266   -1.235994
     55          6           0       11.481777   -0.257454   -0.011562
     56          6           0       12.757180   -0.426072   -0.704337
     57          6           0       14.005331   -0.076966    0.182339
     58          6           0       15.392482   -0.138918   -0.556248
     59          6           0       15.760004   -1.631838   -0.953926
     60          6           0       16.448620    0.445238    0.434372
     61          6           0       17.799249    0.672377   -0.217609
     62          6           0       18.940445    1.331636    0.701741
     63          6           0       20.292746    1.371410    0.236425
     64          6           0       20.502090    1.984901   -1.066756
     65          6           0       21.185388    1.919519    1.383537
     66          1           0       -4.126789    3.575061    1.466843
     67          1           0      -10.212691    3.912944   -0.676833
     68          1           0      -10.147467   -2.461335   -1.129771
     69          1           0       -2.415072   -1.002320    1.932341
     70          1           0       -2.043902    1.496027    1.232221
     71          1           0       -1.810914    0.933964    3.452348
     72          1           0       -3.031567    2.295716    3.528213
     73          1           0       -3.681271    0.746410    3.714705
     74          1           0       -2.206258   -1.650990   -0.284986
     75          1           0       -2.039305   -0.030368   -0.919784
     76          1           0       -0.211024    0.360263    1.004917
     77          1           0       -0.250906   -1.406336    1.172070
     78          1           0       -5.676991    6.906842    0.637241
     79          1           0       -5.384863    6.091008    2.317776
     80          1           0       -4.626550    5.514503    0.907010
     81          1           0       -9.452464    6.038721   -0.448281
     82          1           0       -8.873468    8.095107    0.625268
     83          1           0       -7.525044    7.193622    1.483256
     84          1           0      -12.298193    2.850094   -2.366156
     85          1           0      -13.371730    1.847772   -1.165073
     86          1           0      -11.936796    3.266881   -0.472530
     87          1           0      -12.428024   -1.711409   -1.218981
     88          1           0      -13.201075   -0.120761   -1.652788
     89          1           0      -12.943804   -1.591279   -3.750310
     90          1           0      -12.217124   -0.044164   -3.735198
     91          1           0      -11.220734   -1.649410   -3.447831
     92          1           0       -9.092767   -4.769428   -1.897607
     93          1           0       -8.222428   -5.834414   -0.753264
     94          1           0       -9.737345   -4.919528   -0.250205
     95          1           0       -3.417667   -3.368791   -0.027643
     96          1           0       -1.338636   -4.396528    3.302893
     97          1           0       -2.734839   -5.383796    3.802506
     98          1           0       -1.664699   -6.008331    2.736312
     99          1           0        2.793515   -1.903563   -1.383357
    100          1           0        2.768585   -0.175359   -1.894640
    101          1           0        4.378387   -1.301182    0.232789
    102          1           0        4.108462    1.027783   -3.028800
    103          1           0        5.103051    2.282433   -2.091080
    104          1           0        5.832697    0.880754   -2.996821
    105          1           0        6.750111    1.347252   -0.079200
    106          1           0        6.548555   -0.126257    0.683184
    107          1           0        7.434584   -1.331745   -1.131094
    108          1           0        8.044023    0.398220   -1.929368
    109          1           0        8.864441    1.074227    0.304819
    110          1           0        8.635075   -0.745024    0.819568
    111          1           0       10.424222    0.126982   -1.800102
    112          1           0        9.270344   -2.167754   -1.984283
    113          1           0       11.090724   -2.346541   -1.556224
    114          1           0        9.807835   -2.654350   -0.258460
    115          1           0       11.414261    0.859234    0.380172
    116          1           0       11.411285   -0.961026    0.798718
    117          1           0       13.025724   -1.557407   -0.897961
    118          1           0       12.770279    0.140354   -1.569204
    119          1           0       13.937965    0.818513    0.706621
    120          1           0       13.960495   -0.806705    0.992991
    121          1           0       15.376421    0.781143   -1.299716
    122          1           0       15.677481   -2.271649   -0.056614
    123          1           0       14.964502   -1.609943   -1.781472
    124          1           0       16.656013   -1.635704   -1.371606
    125          1           0       16.092633    1.422883    0.771452
    126          1           0       16.479791   -0.177110    1.347261
    127          1           0       18.437211   -0.257747   -0.602827
    128          1           0       17.601277    1.275178   -1.141844
    129          1           0       18.526633    2.330109    0.969017
    130          1           0       18.804259    0.842162    1.762495
    131          1           0       20.746890    0.353270    0.355416
    132          1           0       20.137917    3.026670   -1.044138
    133          1           0       21.610071    2.093976   -1.441455
    134          1           0       19.935958    1.537065   -1.878202
    135          1           0       20.981412    1.161383    2.236865
    136          1           0       22.268087    2.170915    0.886142
    137          1           0       20.697529    3.041278    1.720970
 ---------------------------------------------------------------------

 SCF Done:  E(RCAM-B3LYP) =  -2932.64303904     A.U. after   17 cycles

 Excitation energies and oscillator strengths:

 Excited State   1:      Singlet-A      1.9311 eV  642.05 nm  f=0.2746  <S**2>=0.000
     240 -> 243        0.24640
     241 -> 242        0.65725
 This state for optimization and/or second-order correction.
 Total Energy, E(TD-HF/TD-KS) =  -2932.57207375
 Copying the excited state density for this state as the 1-particle RhoCI density.

 The electronic state is 1-A.
 Alpha  occ. eigenvalues --  -46.84048 -19.27168 -19.26295 -19.23211 -19.21730
 Alpha  occ. eigenvalues --  -19.21530 -14.42803 -14.39601 -14.39078 -14.38892
 Alpha  occ. eigenvalues --  -10.40592 -10.39896 -10.35853 -10.31484 -10.31046
 Alpha  occ. eigenvalues --  -10.31043 -10.29770 -10.29716 -10.29712 -10.29232
 Alpha  occ. eigenvalues --  -10.29176 -10.28881 -10.28801 -10.28449 -10.28414
 Alpha  occ. eigenvalues --  -10.28339 -10.28289 -10.27989 -10.27832 -10.27790
 Alpha  occ. eigenvalues --  -10.27782 -10.27676 -10.27633 -10.27550 -10.27535
 Alpha  occ. eigenvalues --  -10.27407 -10.27085 -10.26973 -10.26944 -10.26892
 Alpha  occ. eigenvalues --  -10.26668 -10.26491 -10.26449 -10.26440 -10.26391
 Alpha  occ. eigenvalues --  -10.26353 -10.26216 -10.26099 -10.26090 -10.26051
 Alpha  occ. eigenvalues --  -10.26043 -10.25935 -10.25910 -10.25495 -10.25456
 Alpha  occ. eigenvalues --  -10.25449 -10.25331 -10.25309 -10.25046 -10.25016
 Alpha  occ. eigenvalues --  -10.24987 -10.24881 -10.24796 -10.24721 -10.24371
 Alpha  occ. eigenvalues --   -3.13099  -1.87806  -1.87369  -1.87244  -1.18194
 Alpha  occ. eigenvalues --   -1.16920  -1.14223  -1.11280  -1.08361  -1.04722
 Alpha  occ. eigenvalues --   -1.03630  -1.02604  -1.00997  -0.93057  -0.91690
 Alpha  occ. eigenvalues --   -0.91095  -0.90822  -0.89943  -0.89256  -0.89076
 Alpha  occ. eigenvalues --   -0.88598  -0.88303  -0.87552  -0.86912  -0.86462
 Alpha  occ. eigenvalues --   -0.85802  -0.84839  -0.84145  -0.82992  -0.82663
 Alpha  occ. eigenvalues --   -0.81688  -0.81171  -0.80354  -0.79662  -0.78021
 Alpha  occ. eigenvalues --   -0.77956  -0.76960  -0.76120  -0.75740  -0.75590
 Alpha  occ. eigenvalues --   -0.74952  -0.74856  -0.73951  -0.73563  -0.72443
 Alpha  occ. eigenvalues --   -0.71741  -0.70784  -0.70448  -0.68966  -0.68589
 Alpha  occ. eigenvalues --   -0.67234  -0.65718  -0.65218  -0.64494  -0.64337
 Alpha  occ. eigenvalues --   -0.63766  -0.63551  -0.62577  -0.62515  -0.61727
 Alpha  occ. eigenvalues --   -0.61372  -0.61092  -0.60049  -0.59870  -0.59771
 Alpha  occ. eigenvalues --   -0.59181  -0.58771  -0.58531  -0.57721  -0.57443
 Alpha  occ. eigenvalues --   -0.56886  -0.55868  -0.55599  -0.55248  -0.55007
 Alpha  occ. eigenvalues --   -0.54890  -0.54453  -0.54402  -0.54135  -0.53802
 Alpha  occ. eigenvalues --   -0.53741  -0.52961  -0.52545  -0.52199  -0.51971
 Alpha  occ. eigenvalues --   -0.51758  -0.51554  -0.51402  -0.51158  -0.50527
 Alpha  occ. eigenvalues --   -0.50436  -0.50342  -0.50022  -0.49898  -0.49838
 Alpha  occ. eigenvalues --   -0.49553  -0.49140  -0.49111  -0.48730  -0.48390
 Alpha  occ. eigenvalues --   -0.48208  -0.48138  -0.47833  -0.47754  -0.47171
 Alpha  occ. eigenvalues --   -0.47023  -0.46841  -0.46465  -0.46248  -0.46111
 Alpha  occ. eigenvalues --   -0.46020  -0.45672  -0.45475  -0.45301  -0.45079
 Alpha  occ. eigenvalues --   -0.45001  -0.44900  -0.44689  -0.44395  -0.44298
 Alpha  occ. eigenvalues --   -0.43888  -0.43785  -0.43549  -0.43472  -0.43313
 Alpha  occ. eigenvalues --   -0.43183  -0.43007  -0.42588  -0.42466  -0.42075
 Alpha  occ. eigenvalues --   -0.41937  -0.41832  -0.41824  -0.41630  -0.41569
 Alpha  occ. eigenvalues --   -0.41450  -0.41365  -0.40723  -0.40382  -0.40157
 Alpha  occ. eigenvalues --   -0.40080  -0.39882  -0.39570  -0.39501  -0.39321
 Alpha  occ. eigenvalues --   -0.39154  -0.38635  -0.38075  -0.38012  -0.37577
 Alpha  occ. eigenvalues --   -0.37439  -0.37227  -0.37088  -0.36687  -0.36542
 Alpha  occ. eigenvalues --   -0.36389  -0.36187  -0.36149  -0.35820  -0.35458
 Alpha  occ. eigenvalues --   -0.35292  -0.35140  -0.34877  -0.34439  -0.34098
 Alpha  occ. eigenvalues --   -0.33312  -0.32806  -0.32609  -0.30652  -0.30499
 Alpha  occ. eigenvalues --   -0.30154  -0.29708  -0.28106  -0.25982  -0.23582
 Alpha  occ. eigenvalues --   -0.20008
 Alpha virt. eigenvalues --   -0.06011  -0.03735   0.01238   0.03308   0.04984
 Alpha virt. eigenvalues --    0.05213   0.06023   0.06323   0.06648   0.06998
 Alpha virt. eigenvalues --    0.07661   0.10245   0.10990   0.11319   0.11405

 Mulliken charges:
               1
     1  Mg   0.826484
     2  C    0.016064
     3  C   -0.182178
     4  C   -0.188111
     5  C   -0.171862
     6  N   -0.627544
     7  C    0.296511
     8  C   -0.140227
     9  C   -0.165531
    10  C    0.318324
    11  C   -0.315257
    12  C   -0.168820
    13  C   -0.271202
    14  C    0.617347
    15  O   -0.442904
    16  O   -0.485724
    17  N   -0.710530
    18  C    0.336931
    19  C   -0.015418
    20  C    0.055238
    21  C    0.298759
    22  C   -0.379370
    23  C   -0.089396
    24  C   -0.239375
    25  N   -0.684531
    26  C    0.302000
    27  C    0.028723
    28  C   -0.006513
    29  C    0.286447
    30  C   -0.359496
    31  C   -0.194918
    32  C   -0.308063
    33  N   -0.722048
    34  C    0.228816
    35  C    0.077169
    36  C   -0.032306
    37  C    0.336985
    38  C   -0.406030
    39  C    0.386363
    40  O   -0.408351
    41  C   -0.270515
    42  C    0.622147
    43  O   -0.470384
    44  O   -0.476411
    45  C   -0.077174
    46  C    0.056116
    47  C   -0.181039
    48  C    0.178025
    49  C   -0.387660
    50  C   -0.214643
    51  C   -0.162982
    52  C   -0.157173
    53  C   -0.065395
    54  C   -0.312457
    55  C   -0.157877
    56  C   -0.178460
    57  C   -0.178549
    58  C   -0.086016
    59  C   -0.299042
    60  C   -0.176877
    61  C   -0.175411
    62  C   -0.162160
    63  C   -0.043233
    64  C   -0.309648
    65  C   -0.278533
    66  H    0.088529
    67  H    0.086289
    68  H    0.074780
    69  H    0.122976
    70  H    0.086381
    71  H    0.104719
    72  H    0.113723
    73  H    0.122708
    74  H    0.115298
    75  H    0.116816
    76  H    0.145676
    77  H    0.142186
    78  H    0.129395
    79  H    0.076918
    80  H    0.118540
    81  H    0.090770
    82  H    0.102418
    83  H    0.104141
    84  H    0.116526
    85  H    0.121117
    86  H    0.103574
    87  H    0.108410
    88  H    0.092510
    89  H    0.106533
    90  H    0.108297
    91  H    0.105363
    92  H    0.125205
    93  H    0.145079
    94  H    0.103802
    95  H    0.149590
    96  H    0.126577
    97  H    0.123229
    98  H    0.129039
    99  H    0.103275
   100  H    0.112230
   101  H    0.075501
   102  H    0.099832
   103  H    0.122792
   104  H    0.094714
   105  H    0.111648
   106  H    0.093124
   107  H    0.082605
   108  H    0.095270
   109  H    0.074639
   110  H    0.046550
   111  H    0.058287
   112  H    0.118489
   113  H    0.116047
   114  H    0.098360
   115  H    0.075379
   116  H    0.091376
   117  H    0.085944
   118  H    0.095956
   119  H    0.088884
   120  H    0.084534
   121  H    0.072962
   122  H    0.111304
   123  H    0.107344
   124  H    0.120014
   125  H    0.089603
   126  H    0.082908
   127  H    0.071267
   128  H    0.085643
   129  H    0.082895
   130  H    0.072612
   131  H    0.090436
   132  H    0.100929
   133  H    0.087191
   134  H    0.111239
   135  H    0.104091
   136  H    0.089267
   137  H    0.056640
 Sum of Mulliken charges =   0.00000

 Dipole moment (field-independent basis, Debye):
    X=              1.9002    Y=              2.6469    Z=             -0.2988  Tot=              3.2720
 Quadrupole moment (field-independent basis, Debye-Ang):
   XX=           -354.0225   YY=           -394.9560   ZZ=           -401.3717
   XY=            -13.3185   XZ=             11.7248   YZ=             -4.1284

 Normal termination of Gaussian 09 at Fri Jul  5 17:42:31 2019.
