 Gaussian 16, Revision A.03,
 Gaussian 16:  ES64L-G16RevA.03 25-Dec-2016

 ----------------------------------------------------------------------
 # td=(NStates=1) iop(3/107=0140000000,3/108=0140000000) CAM-B3LYP/6-31
 G(d,p)
 ----------------------------------------------------------------------

 --
 TD
 --
 Symbolic Z-matrix:
 Charge =  0 Multiplicity = 1

                         Standard orientation:
 ---------------------------------------------------------------------
 Center     Atomic      Atomic             Coordinates (Angstroms)
 Number     Number       Type             X           Y           Z
 ---------------------------------------------------------------------
      1         12           0       -7.110555    0.558350    0.201426
      2          6           0       -4.766533   -1.831745    0.530861
      3          6           0       -4.892814    2.867616    1.252726
      4          6           0       -9.418720    3.062114   -0.505890
      5          6           0       -9.511623   -1.784679   -0.925744
      6          7           0       -5.049031    0.518055    0.678905
      7          6           0       -4.238707   -0.571223    0.796803
      8          6           0       -2.960799   -0.313655    1.408871
      9          6           0       -3.065234    1.172272    1.723276
     10          6           0       -4.431225    1.651711    1.144736
     11          6           0       -3.063234    1.415054    3.233865
     12          6           0       -1.881152   -0.603209    0.323033
     13          6           0       -0.427151   -0.503631    0.735713
     14          6           0        0.569758   -0.754875   -0.444928
     15          8           0        0.195773   -0.954171   -1.606832
     16          8           0        1.871399   -0.595666   -0.045456
     17          7           0       -7.106490    2.642708    0.308449
     18          6           0       -6.203007    3.398324    0.861707
     19          6           0       -6.499511    4.782190    0.813640
     20          6           0       -7.854029    4.785956    0.308825
     21          6           0       -8.198641    3.495010   -0.021496
     22          6           0       -5.598703    5.965269    1.173323
     23          6           0       -8.745604    5.907208    0.142334
     24          6           0       -8.638234    7.137623    0.694274
     25          7           0       -9.129186    0.644747   -0.579556
     26          6           0       -9.877979    1.755894   -0.715600
     27          6           0      -11.178930    1.405337   -1.268906
     28          6           0      -11.257507    0.037779   -1.360041
     29          6           0       -9.932026   -0.427120   -0.853558
     30          6           0      -12.216890    2.430096   -1.729770
     31          6           0      -12.398269   -0.840017   -1.924094
     32          6           0      -12.090193   -1.370715   -3.438971
     33          7           0       -7.290638   -1.429167   -0.134031
     34          6           0       -8.234120   -2.271363   -0.537499
     35          6           0       -7.742975   -3.661762   -0.524863
     36          6           0       -6.423404   -3.556443   -0.100910
     37          6           0       -6.151631   -2.118062    0.155998
     38          6           0       -8.536859   -4.787973   -0.967904
     39          6           0       -5.171437   -4.273258    0.205168
     40          8           0       -5.069059   -5.521026    0.126651
     41          6           0       -4.150596   -3.153915    0.603865
     42          6           0       -3.623407   -3.612487    1.959608
     43          8           0       -3.782425   -3.076657    2.995896
     44          8           0       -2.837435   -4.674516    1.932558
     45          6           0       -2.168969   -5.189140    3.151047
     46          6           0        2.861119   -0.691694   -1.192505
     47          6           0        4.082260   -0.422356   -0.594804
     48          6           0        5.167227    0.337890   -0.985839
     49          6           0        5.058615    1.226801   -2.176467
     50          6           0        6.448148    0.319936   -0.186496
     51          6           0        7.539439   -0.275696   -1.005173
     52          6           0        8.947442   -0.183728   -0.068230
     53          6           0       10.247556   -0.519782   -0.921556
     54          6           0       10.174745   -2.024771   -1.487395
     55          6           0       11.489282   -0.459599    0.091999
     56          6           0       12.759136   -0.578076   -0.702075
     57          6           0       13.970100   -0.178194    0.191430
     58          6           0       15.339561   -0.139266   -0.523614
     59          6           0       15.717653   -1.624286   -0.916126
     60          6           0       16.508288    0.453878    0.422720
     61          6           0       17.819414    0.515723   -0.135270
     62          6           0       18.821665    1.314131    0.719569
     63          6           0       20.154744    1.434848    0.070413
     64          6           0       20.283573    2.376980   -1.124381
     65          6           0       21.138736    2.010693    1.236460
     66          1           0       -4.159336    3.573829    1.676844
     67          1           0      -10.158712    3.894410   -0.640845
     68          1           0      -10.124309   -2.561050   -1.119092
     69          1           0       -2.872163   -1.006274    2.323830
     70          1           0       -2.398328    1.864399    1.347292
     71          1           0       -2.142043    0.806058    3.762662
     72          1           0       -2.903874    2.257899    3.688274
     73          1           0       -4.004539    0.975685    3.769527
     74          1           0       -1.956720   -1.693705    0.015220
     75          1           0       -2.114693   -0.023436   -0.641846
     76          1           0       -0.186928    0.409003    1.424258
     77          1           0       -0.469777   -1.253207    1.447832
     78          1           0       -5.582136    6.818630    0.697835
     79          1           0       -5.562897    6.135172    2.224857
     80          1           0       -4.559173    5.577209    1.189609
     81          1           0       -9.628434    5.805892   -0.568338
     82          1           0       -9.447768    7.779690    0.329639
     83          1           0       -7.971622    7.559328    1.404166
     84          1           0      -11.722495    3.110828   -2.430183
     85          1           0      -13.222801    2.090725   -2.139887
     86          1           0      -12.530005    3.219808   -1.023986
     87          1           0      -12.539912   -1.672979   -1.239215
     88          1           0      -13.268864   -0.270715   -2.013276
     89          1           0      -13.142043   -1.978268   -3.509924
     90          1           0      -12.176636   -0.515444   -4.141577
     91          1           0      -11.100405   -1.773296   -3.435968
     92          1           0       -9.127262   -4.593624   -2.050364
     93          1           0       -7.833812   -5.748746   -1.022919
     94          1           0       -9.333690   -5.149009   -0.256835
     95          1           0       -3.272230   -3.281605    0.036698
     96          1           0       -1.766367   -4.449704    3.660721
     97          1           0       -2.899501   -5.585923    3.882996
     98          1           0       -1.531654   -5.923637    2.864364
     99          1           0        2.850009   -1.902804   -1.526168
    100          1           0        2.526657   -0.039341   -1.928693
    101          1           0        4.074139   -1.159436    0.197599
    102          1           0        4.147621    1.222233   -2.523607
    103          1           0        5.509799    2.274367   -1.939215
    104          1           0        5.720646    0.617500   -3.061473
    105          1           0        6.822341    1.412711    0.145988
    106          1           0        6.300668   -0.061984    0.659234
    107          1           0        7.289056   -1.413650   -1.201924
    108          1           0        7.862993    0.445085   -1.845402
    109          1           0        9.083895    0.709252    0.380987
    110          1           0        8.819689   -0.918750    0.731959
    111          1           0       10.323619    0.206745   -1.805411
    112          1           0        9.357751   -2.043700   -2.167877
    113          1           0       11.056503   -2.455397   -2.028450
    114          1           0       10.087156   -2.782938   -0.515053
    115          1           0       11.597156    0.497763    0.431470
    116          1           0       11.338621   -1.351301    0.714087
    117          1           0       13.013307   -1.443280   -1.107988
    118          1           0       12.858268   -0.082448   -1.725344
    119          1           0       13.776961    0.909808    0.626365
    120          1           0       14.118337   -0.987520    0.951030
    121          1           0       15.189067    0.407558   -1.530264
    122          1           0       15.866898   -2.317444    0.008289
    123          1           0       15.023393   -2.182043   -1.563608
    124          1           0       16.742677   -1.389951   -1.472860
    125          1           0       16.056775    1.408095    0.701425
    126          1           0       16.709736   -0.123002    1.405268
    127          1           0       18.274707   -0.367749   -0.749018
    128          1           0       17.582430    1.145503   -1.186812
    129          1           0       18.326504    2.372240    0.888840
    130          1           0       18.900105    0.678034    1.529087
    131          1           0       20.511724    0.415729   -0.201383
    132          1           0       19.844063    3.437271   -0.740374
    133          1           0       21.129675    2.337983   -1.620330
    134          1           0       19.644569    1.876811   -1.893476
    135          1           0       21.298396    1.206347    2.057289
    136          1           0       22.184410    2.071670    0.794948
    137          1           0       20.928769    2.988115    1.369548
 ---------------------------------------------------------------------

 SCF Done:  E(RCAM-B3LYP) =  -2933.47588964     A.U. after   15 cycles

 Excitation energies and oscillator strengths:

 Excited State   1:      Singlet-A      2.0181 eV  614.36 nm  f=0.3289  <S**2>=0.000
     240 -> 243        0.20912
     241 -> 242        0.67180
 This state for optimization and/or second-order correction.
 Total Energy, E(TD-HF/TD-DFT) =  -2933.40172620
 Copying the excited state density for this state as the 1-particle RhoCI density.

 The electronic state is 1-A.
 Alpha  occ. eigenvalues --  -46.80895 -19.22074 -19.20802 -19.16978 -19.15979
 Alpha  occ. eigenvalues --  -19.15468 -14.36852 -14.35245 -14.35236 -14.34715
 Alpha  occ. eigenvalues --  -10.35210 -10.33584 -10.30746 -10.27936 -10.26144
 Alpha  occ. eigenvalues --  -10.25719 -10.25430 -10.25042 -10.24810 -10.24704
 Alpha  occ. eigenvalues --  -10.24581 -10.24242 -10.24091 -10.24005 -10.23797
 Alpha  occ. eigenvalues --  -10.23767 -10.23700 -10.23397 -10.23313 -10.23311
 Alpha  occ. eigenvalues --  -10.23213 -10.23053 -10.23017 -10.22835 -10.22745
 Alpha  occ. eigenvalues --  -10.22677 -10.22667 -10.22627 -10.22387 -10.22364
 Alpha  occ. eigenvalues --  -10.22357 -10.22086 -10.22048 -10.21990 -10.21760
 Alpha  occ. eigenvalues --  -10.21736 -10.21703 -10.21640 -10.21606 -10.21505
 Alpha  occ. eigenvalues --  -10.21494 -10.21438 -10.21275 -10.21228 -10.21059
 Alpha  occ. eigenvalues --  -10.21051 -10.20935 -10.20857 -10.20832 -10.20738
 Alpha  occ. eigenvalues --  -10.20591 -10.20359 -10.20266 -10.20048 -10.19444
 Alpha  occ. eigenvalues --   -3.09237  -1.84194  -1.83712  -1.83622  -1.13780
 Alpha  occ. eigenvalues --   -1.11092  -1.03923  -1.03664  -1.03172  -0.99549
 Alpha  occ. eigenvalues --   -0.98875  -0.98495  -0.97598  -0.88071  -0.86661
 Alpha  occ. eigenvalues --   -0.85369  -0.85111  -0.84314  -0.84133  -0.82919
 Alpha  occ. eigenvalues --   -0.82567  -0.82362  -0.82107  -0.82016  -0.81383
 Alpha  occ. eigenvalues --   -0.80388  -0.79605  -0.78758  -0.78496  -0.77499
 Alpha  occ. eigenvalues --   -0.77224  -0.76768  -0.75754  -0.75005  -0.73820
 Alpha  occ. eigenvalues --   -0.73285  -0.73036  -0.71781  -0.71258  -0.70912
 Alpha  occ. eigenvalues --   -0.70532  -0.69889  -0.69119  -0.68172  -0.67864
 Alpha  occ. eigenvalues --   -0.67052  -0.65650  -0.65078  -0.64492  -0.64034
 Alpha  occ. eigenvalues --   -0.63064  -0.62123  -0.61480  -0.61098  -0.60305
 Alpha  occ. eigenvalues --   -0.60213  -0.59192  -0.58728  -0.58270  -0.58240
 Alpha  occ. eigenvalues --   -0.57460  -0.56831  -0.56650  -0.55420  -0.55181
 Alpha  occ. eigenvalues --   -0.54808  -0.54311  -0.53946  -0.53646  -0.52963
 Alpha  occ. eigenvalues --   -0.52380  -0.51986  -0.51680  -0.51674  -0.51492
 Alpha  occ. eigenvalues --   -0.51172  -0.50634  -0.49858  -0.49762  -0.49013
 Alpha  occ. eigenvalues --   -0.48762  -0.48627  -0.48473  -0.48332  -0.47830
 Alpha  occ. eigenvalues --   -0.47745  -0.47181  -0.47022  -0.46599  -0.46407
 Alpha  occ. eigenvalues --   -0.46377  -0.46173  -0.46049  -0.45658  -0.45573
 Alpha  occ. eigenvalues --   -0.45296  -0.45077  -0.44869  -0.44799  -0.44671
 Alpha  occ. eigenvalues --   -0.44352  -0.43949  -0.43785  -0.43668  -0.43557
 Alpha  occ. eigenvalues --   -0.43295  -0.43031  -0.42985  -0.42664  -0.42305
 Alpha  occ. eigenvalues --   -0.42036  -0.41954  -0.41795  -0.41745  -0.41558
 Alpha  occ. eigenvalues --   -0.41313  -0.41252  -0.41111  -0.41009  -0.40775
 Alpha  occ. eigenvalues --   -0.40744  -0.40475  -0.40183  -0.40031  -0.39930
 Alpha  occ. eigenvalues --   -0.39756  -0.39492  -0.39377  -0.39351  -0.39206
 Alpha  occ. eigenvalues --   -0.39110  -0.38828  -0.38661  -0.38312  -0.37909
 Alpha  occ. eigenvalues --   -0.37815  -0.37617  -0.37433  -0.37309  -0.37109
 Alpha  occ. eigenvalues --   -0.36651  -0.36606  -0.36291  -0.36153  -0.36079
 Alpha  occ. eigenvalues --   -0.35684  -0.35394  -0.35149  -0.35075  -0.34947
 Alpha  occ. eigenvalues --   -0.34807  -0.34476  -0.34074  -0.33893  -0.33449
 Alpha  occ. eigenvalues --   -0.33386  -0.32992  -0.32651  -0.32490  -0.32249
 Alpha  occ. eigenvalues --   -0.31852  -0.30925  -0.30449  -0.30285  -0.30070
 Alpha  occ. eigenvalues --   -0.29728  -0.29618  -0.28943  -0.28457  -0.26954
 Alpha  occ. eigenvalues --   -0.26508  -0.26185  -0.25483  -0.23903  -0.21578
 Alpha  occ. eigenvalues --   -0.20060
 Alpha virt. eigenvalues --   -0.07448  -0.03313  -0.00364   0.02215   0.02848
 Alpha virt. eigenvalues --    0.03639   0.03896   0.05353   0.06029   0.06375
 Alpha virt. eigenvalues --    0.06904   0.08725   0.09601   0.09729   0.10219

 Mulliken charges:
               1
     1  Mg   0.812743
     2  C    0.111847
     3  C   -0.195186
     4  C   -0.165137
     5  C   -0.142928
     6  N   -0.679670
     7  C    0.341432
     8  C   -0.163274
     9  C   -0.133973
    10  C    0.365911
    11  C   -0.301800
    12  C   -0.186815
    13  C   -0.268086
    14  C    0.620919
    15  O   -0.472464
    16  O   -0.487686
    17  N   -0.709344
    18  C    0.323605
    19  C    0.022408
    20  C    0.017621
    21  C    0.296465
    22  C   -0.376620
    23  C   -0.110247
    24  C   -0.230513
    25  N   -0.664173
    26  C    0.315861
    27  C    0.039923
    28  C    0.013175
    29  C    0.266340
    30  C   -0.397476
    31  C   -0.242779
    32  C   -0.307855
    33  N   -0.733242
    34  C    0.269087
    35  C    0.054895
    36  C    0.034382
    37  C    0.272582
    38  C   -0.411718
    39  C    0.365541
    40  O   -0.477951
    41  C   -0.357325
    42  C    0.587974
    43  O   -0.461330
    44  O   -0.453641
    45  C   -0.076957
    46  C    0.003464
    47  C   -0.097965
    48  C    0.102210
    49  C   -0.333874
    50  C   -0.181237
    51  C   -0.187998
    52  C   -0.180865
    53  C   -0.081878
    54  C   -0.306209
    55  C   -0.142889
    56  C   -0.183193
    57  C   -0.158108
    58  C   -0.075403
    59  C   -0.304546
    60  C   -0.145802
    61  C   -0.182653
    62  C   -0.124473
    63  C   -0.077847
    64  C   -0.284479
    65  C   -0.310903
    66  H    0.064802
    67  H    0.083332
    68  H    0.071166
    69  H    0.145578
    70  H    0.110779
    71  H    0.066651
    72  H    0.120575
    73  H    0.108704
    74  H    0.103565
    75  H    0.119185
    76  H    0.118231
    77  H    0.141316
    78  H    0.134260
    79  H    0.124246
    80  H    0.102964
    81  H    0.086006
    82  H    0.087469
    83  H    0.105532
    84  H    0.122594
    85  H    0.110173
    86  H    0.117052
    87  H    0.111944
    88  H    0.109094
    89  H    0.092621
    90  H    0.116703
    91  H    0.125560
    92  H    0.102319
    93  H    0.137489
    94  H    0.132530
    95  H    0.168539
    96  H    0.136449
    97  H    0.127220
    98  H    0.136057
    99  H    0.106216
   100  H    0.129050
   101  H    0.088748
   102  H    0.119497
   103  H    0.111168
   104  H    0.091026
   105  H    0.071191
   106  H    0.107135
   107  H    0.100280
   108  H    0.101522
   109  H    0.100051
   110  H    0.089670
   111  H    0.075608
   112  H    0.111737
   113  H    0.102160
   114  H    0.069801
   115  H    0.100423
   116  H    0.100062
   117  H    0.100479
   118  H    0.069794
   119  H    0.058357
   120  H    0.088174
   121  H    0.077671
   122  H    0.090396
   123  H    0.101792
   124  H    0.083894
   125  H    0.098169
   126  H    0.071650
   127  H    0.092238
   128  H    0.042631
   129  H    0.079473
   130  H    0.103765
   131  H    0.078122
   132  H    0.081693
   133  H    0.116645
   134  H    0.093793
   135  H    0.092148
   136  H    0.079768
   137  H    0.113424
 Sum of Mulliken charges =  -0.00000

 Dipole moment (field-independent basis, Debye):
    X=              2.5707    Y=              3.3254    Z=              1.0240  Tot=              4.3261
 Quadrupole moment (field-independent basis, Debye-Ang):
   XX=           -343.1804   YY=           -393.8186   ZZ=           -396.4431
   XY=            -20.1246   XZ=              4.1694   YZ=             -4.4212

 Normal termination of Gaussian 16 at Fri Sep  6 11:51:13 2019.
