 Gaussian 09, Revision D.01,
 Gaussian 09:  ES64L-G09RevD.01 24-Apr-2013

 -------------------------------------
 # td=(NStates=1) CAM-B3LYP/6-31G(d,p)
 -------------------------------------

 --
 TD
 --
 Symbolic Z-matrix:
 Charge =  0 Multiplicity = 1

                         Standard orientation:
 ---------------------------------------------------------------------
 Center     Atomic      Atomic             Coordinates (Angstroms)
 Number     Number       Type             X           Y           Z
 ---------------------------------------------------------------------
      1         12           0       -7.090387    0.616324    0.113416
      2          6           0       -4.908313   -1.926397    0.500123
      3          6           0       -4.793265    2.833096    1.149909
      4          6           0       -9.422009    3.064784   -0.322480
      5          6           0       -9.517374   -1.759873   -0.816233
      6          7           0       -5.127219    0.465101    0.709105
      7          6           0       -4.324195   -0.700319    0.781880
      8          6           0       -2.872629   -0.329172    1.254141
      9          6           0       -3.037783    1.064461    1.716845
     10          6           0       -4.320183    1.492957    1.090652
     11          6           0       -2.896962    1.317088    3.277024
     12          6           0       -1.836240   -0.587771    0.077525
     13          6           0       -0.421769   -0.337048    0.535067
     14          6           0        0.481321   -0.732875   -0.558113
     15          8           0        0.224963   -1.241520   -1.651629
     16          8           0        1.848019   -0.392729   -0.239805
     17          7           0       -7.091952    2.663989    0.406020
     18          6           0       -6.072947    3.359471    0.784662
     19          6           0       -6.433326    4.800419    0.670501
     20          6           0       -7.691122    4.854588    0.441617
     21          6           0       -8.164668    3.462160    0.122475
     22          6           0       -5.436748    5.951981    1.077911
     23          6           0       -8.545459    6.008530    0.112969
     24          6           0       -8.517622    7.153253    0.850140
     25          7           0       -9.153528    0.658048   -0.459996
     26          6           0       -9.866231    1.760266   -0.672800
     27          6           0      -11.127211    1.376729   -1.052259
     28          6           0      -11.243672   -0.006881   -1.224022
     29          6           0       -9.888349   -0.408444   -0.862977
     30          6           0      -12.245520    2.319856   -1.444748
     31          6           0      -12.369754   -0.812154   -1.702886
     32          6           0      -12.324954   -0.870462   -3.337282
     33          7           0       -7.266651   -1.450592   -0.153358
     34          6           0       -8.268900   -2.300947   -0.535160
     35          6           0       -7.889088   -3.659538   -0.415314
     36          6           0       -6.512539   -3.575943   -0.157773
     37          6           0       -6.219487   -2.202117    0.080348
     38          6           0       -8.563025   -4.856916   -0.643858
     39          6           0       -5.316609   -4.312204    0.265586
     40          8           0       -5.261490   -5.516723    0.179103
     41          6           0       -4.193087   -3.294564    0.587745
     42          6           0       -3.584833   -3.624875    1.853366
     43          8           0       -3.869257   -3.218951    2.978092
     44          8           0       -2.764925   -4.698930    1.697700
     45          6           0       -2.050382   -5.172878    2.985705
     46          6           0        2.832785   -0.600000   -1.329146
     47          6           0        4.156594   -0.277446   -0.693173
     48          6           0        5.124428    0.455089   -1.213829
     49          6           0        4.977753    1.364577   -2.350492
     50          6           0        6.394679    0.561723   -0.432193
     51          6           0        7.650260   -0.152173   -1.115246
     52          6           0        8.913155   -0.100978   -0.134901
     53          6           0       10.141337   -0.732351   -0.859201
     54          6           0       10.065240   -2.191347   -1.170636
     55          6           0       11.362613   -0.447430   -0.033143
     56          6           0       12.809381   -0.616616   -0.717333
     57          6           0       13.951029   -0.146955    0.215338
     58          6           0       15.322426   -0.239655   -0.542817
     59          6           0       15.773461   -1.594408   -0.859707
     60          6           0       16.349686    0.407223    0.451354
     61          6           0       17.798165    0.623033   -0.232684
     62          6           0       18.735970    1.261419    0.754039
     63          6           0       20.238017    1.373046    0.417819
     64          6           0       20.476918    2.007452   -1.025659
     65          6           0       21.162199    2.060935    1.463623
     66          1           0       -3.973278    3.507961    1.450631
     67          1           0      -10.178561    3.784642   -0.406358
     68          1           0      -10.250492   -2.433046   -1.160614
     69          1           0       -2.445164   -1.034307    1.977982
     70          1           0       -2.266270    1.820483    1.004055
     71          1           0       -1.960015    1.256982    3.584584
     72          1           0       -3.411416    2.270789    3.426028
     73          1           0       -3.547425    0.559283    3.746636
     74          1           0       -1.846031   -1.728254   -0.063241
     75          1           0       -2.149951   -0.053691   -0.740783
     76          1           0       -0.421945    0.870805    0.754704
     77          1           0       -0.103719   -0.984481    1.348283
     78          1           0       -5.833086    6.796414    0.519739
     79          1           0       -5.534809    6.159761    2.127759
     80          1           0       -4.415484    5.747451    0.752142
     81          1           0       -8.969426    5.919848   -0.987419
     82          1           0       -9.021445    8.022577    0.481852
     83          1           0       -8.057838    7.469195    1.698865
     84          1           0      -11.855580    2.940409   -2.321188
     85          1           0      -13.222794    1.753557   -1.601900
     86          1           0      -12.156987    3.153001   -0.649495
     87          1           0      -12.496195   -1.691790   -1.029848
     88          1           0      -13.339491   -0.237400   -1.578147
     89          1           0      -13.182424   -1.340491   -3.855467
     90          1           0      -11.931808    0.132763   -3.710651
     91          1           0      -11.608233   -1.572679   -3.622027
     92          1           0       -9.066673   -5.072477   -1.727216
     93          1           0       -7.883999   -5.866253   -0.536451
     94          1           0       -9.379878   -5.223936   -0.050480
     95          1           0       -3.359705   -3.550811   -0.246332
     96          1           0       -1.525919   -4.307795    3.639382
     97          1           0       -2.863036   -5.473546    3.701470
     98          1           0       -1.235245   -5.924869    2.692480
     99          1           0        2.747231   -1.711114   -1.695104
    100          1           0        2.633561    0.026394   -2.100978
    101          1           0        4.348954   -1.032259   -0.001090
    102          1           0        3.891074    1.417313   -2.702342
    103          1           0        5.250951    2.319769   -2.087655
    104          1           0        5.497850    1.005400   -3.337936
    105          1           0        6.574755    1.650945   -0.259773
    106          1           0        6.190859    0.275043    0.737995
    107          1           0        7.356718   -1.040543   -1.377992
    108          1           0        7.832793    0.555537   -1.926474
    109          1           0        8.791163    0.995523    0.253445
    110          1           0        8.519986   -0.666185    0.692062
    111          1           0       10.295121   -0.196204   -1.730047
    112          1           0        9.283009   -2.378710   -1.828506
    113          1           0       10.936876   -2.512928   -1.880886
    114          1           0       10.008972   -2.691897   -0.198732
    115          1           0       11.421530    0.639510    0.416344
    116          1           0       11.294751   -1.082199    0.724527
    117          1           0       13.088508   -1.667798   -0.815586
    118          1           0       12.614875   -0.045253   -1.641627
    119          1           0       13.690027    0.921062    0.372264
    120          1           0       14.057110   -0.597974    1.043580
    121          1           0       15.297981    0.462887   -1.495908
    122          1           0       15.463324   -2.468337   -0.072905
    123          1           0       15.215567   -2.032546   -1.935226
    124          1           0       16.836086   -1.566932   -1.220998
    125          1           0       15.840429    1.476520    0.689451
    126          1           0       16.629355   -0.313891    1.371896
    127          1           0       18.031240   -0.420094   -0.615226
    128          1           0       17.683020    1.192346   -1.154031
    129          1           0       18.256814    2.215632    0.780641
    130          1           0       18.555385    0.674215    1.727096
    131          1           0       20.510992    0.321767    0.477733
    132          1           0       20.094662    2.929971   -1.097922
    133          1           0       21.724839    2.005238   -1.229562
    134          1           0       19.938542    1.461948   -1.834413
    135          1           0       21.077000    1.616724    2.553446
    136          1           0       22.279763    2.116496    1.273110
    137          1           0       20.827297    3.093258    1.553486
 ---------------------------------------------------------------------

 SCF Done:  E(RCAM-B3LYP) =  -2932.68547359     A.U. after   17 cycles

 Excitation energies and oscillator strengths:

 Excited State   1:      Singlet-A      2.2232 eV  557.69 nm  f=0.2004  <S**2>=0.000
     240 -> 242       -0.10974
     240 -> 243       -0.27366
     241 -> 242        0.63251
 This state for optimization and/or second-order correction.
 Total Energy, E(TD-HF/TD-KS) =  -2932.60377330
 Copying the excited state density for this state as the 1-particle RhoCI density.

 The electronic state is 1-A.
 Alpha  occ. eigenvalues --  -46.85318 -19.25745 -19.24304 -19.21753 -19.20043
 Alpha  occ. eigenvalues --  -19.19490 -14.41941 -14.39766 -14.38841 -14.38476
 Alpha  occ. eigenvalues --  -10.39619 -10.38499 -10.34425 -10.33450 -10.31575
 Alpha  occ. eigenvalues --  -10.31213 -10.30627 -10.30626 -10.29899 -10.29888
 Alpha  occ. eigenvalues --  -10.29310 -10.29096 -10.28985 -10.28220 -10.27926
 Alpha  occ. eigenvalues --  -10.27894 -10.27777 -10.27703 -10.27513 -10.27451
 Alpha  occ. eigenvalues --  -10.27369 -10.27319 -10.27123 -10.27033 -10.26962
 Alpha  occ. eigenvalues --  -10.26899 -10.26762 -10.26720 -10.26662 -10.26604
 Alpha  occ. eigenvalues --  -10.26524 -10.26465 -10.26459 -10.26380 -10.26306
 Alpha  occ. eigenvalues --  -10.26219 -10.26116 -10.26053 -10.26035 -10.25890
 Alpha  occ. eigenvalues --  -10.25871 -10.25564 -10.25493 -10.25308 -10.25276
 Alpha  occ. eigenvalues --  -10.25114 -10.25045 -10.24876 -10.24846 -10.24663
 Alpha  occ. eigenvalues --  -10.24555 -10.24410 -10.24123 -10.23806 -10.23793
 Alpha  occ. eigenvalues --   -3.14156  -1.88885  -1.88395  -1.88313  -1.16039
 Alpha  occ. eigenvalues --   -1.14731  -1.10798  -1.06973  -1.06653  -1.05888
 Alpha  occ. eigenvalues --   -1.04951  -1.03827  -1.03279  -0.92481  -0.91484
 Alpha  occ. eigenvalues --   -0.91043  -0.90537  -0.89934  -0.89608  -0.88772
 Alpha  occ. eigenvalues --   -0.87971  -0.87851  -0.87617  -0.87313  -0.86278
 Alpha  occ. eigenvalues --   -0.84504  -0.84073  -0.83345  -0.82768  -0.82285
 Alpha  occ. eigenvalues --   -0.81180  -0.80746  -0.80269  -0.79998  -0.78809
 Alpha  occ. eigenvalues --   -0.77968  -0.76755  -0.76082  -0.75640  -0.75417
 Alpha  occ. eigenvalues --   -0.74929  -0.74765  -0.73690  -0.73258  -0.72641
 Alpha  occ. eigenvalues --   -0.71882  -0.71022  -0.70453  -0.69157  -0.68729
 Alpha  occ. eigenvalues --   -0.67678  -0.66696  -0.65177  -0.65068  -0.65028
 Alpha  occ. eigenvalues --   -0.63987  -0.63901  -0.62591  -0.62052  -0.61292
 Alpha  occ. eigenvalues --   -0.61195  -0.60491  -0.60346  -0.59861  -0.59089
 Alpha  occ. eigenvalues --   -0.58710  -0.58379  -0.57402  -0.56891  -0.56231
 Alpha  occ. eigenvalues --   -0.55954  -0.55647  -0.55228  -0.55084  -0.54542
 Alpha  occ. eigenvalues --   -0.54230  -0.54061  -0.53422  -0.53203  -0.52632
 Alpha  occ. eigenvalues --   -0.52498  -0.52259  -0.52201  -0.51902  -0.51449
 Alpha  occ. eigenvalues --   -0.51134  -0.51082  -0.50916  -0.50730  -0.50452
 Alpha  occ. eigenvalues --   -0.50035  -0.49907  -0.49763  -0.49736  -0.49528
 Alpha  occ. eigenvalues --   -0.49292  -0.49081  -0.48812  -0.48689  -0.48430
 Alpha  occ. eigenvalues --   -0.48248  -0.47994  -0.47921  -0.47663  -0.47336
 Alpha  occ. eigenvalues --   -0.47186  -0.46631  -0.46530  -0.46278  -0.46133
 Alpha  occ. eigenvalues --   -0.45806  -0.45762  -0.45266  -0.45098  -0.44772
 Alpha  occ. eigenvalues --   -0.44698  -0.44286  -0.44231  -0.44143  -0.43804
 Alpha  occ. eigenvalues --   -0.43686  -0.43403  -0.43284  -0.43200  -0.42954
 Alpha  occ. eigenvalues --   -0.42834  -0.42596  -0.42488  -0.42359  -0.42274
 Alpha  occ. eigenvalues --   -0.42044  -0.41983  -0.41659  -0.41563  -0.41307
 Alpha  occ. eigenvalues --   -0.41005  -0.40746  -0.40519  -0.40449  -0.40187
 Alpha  occ. eigenvalues --   -0.39967  -0.39711  -0.39578  -0.39451  -0.39229
 Alpha  occ. eigenvalues --   -0.39155  -0.38751  -0.38303  -0.38188  -0.37960
 Alpha  occ. eigenvalues --   -0.37857  -0.37485  -0.37031  -0.36990  -0.36687
 Alpha  occ. eigenvalues --   -0.36501  -0.36256  -0.36090  -0.35305  -0.35216
 Alpha  occ. eigenvalues --   -0.34959  -0.34786  -0.34660  -0.33814  -0.33224
 Alpha  occ. eigenvalues --   -0.32895  -0.32422  -0.32107  -0.30842  -0.29725
 Alpha  occ. eigenvalues --   -0.29565  -0.29239  -0.28747  -0.26982  -0.23158
 Alpha  occ. eigenvalues --   -0.21519
 Alpha virt. eigenvalues --   -0.05707  -0.02845   0.02153   0.03805   0.04464
 Alpha virt. eigenvalues --    0.05311   0.05645   0.06009   0.06141   0.06972
 Alpha virt. eigenvalues --    0.07790   0.09856   0.10782   0.11184   0.11372

 Mulliken charges:
               1
     1  Mg   0.821511
     2  C    0.052537
     3  C   -0.235851
     4  C   -0.170270
     5  C   -0.158203
     6  N   -0.648204
     7  C    0.289547
     8  C   -0.139092
     9  C   -0.140371
    10  C    0.351197
    11  C   -0.300086
    12  C   -0.167439
    13  C   -0.256017
    14  C    0.615213
    15  O   -0.467384
    16  O   -0.531585
    17  N   -0.704982
    18  C    0.351801
    19  C   -0.004003
    20  C    0.013141
    21  C    0.284734
    22  C   -0.356861
    23  C   -0.106885
    24  C   -0.234006
    25  N   -0.677427
    26  C    0.339787
    27  C   -0.027185
    28  C    0.057963
    29  C    0.268157
    30  C   -0.367079
    31  C   -0.267105
    32  C   -0.324000
    33  N   -0.727136
    34  C    0.253500
    35  C    0.115957
    36  C   -0.034496
    37  C    0.319071
    38  C   -0.446741
    39  C    0.381320
    40  O   -0.453453
    41  C   -0.327658
    42  C    0.635980
    43  O   -0.497879
    44  O   -0.475349
    45  C   -0.087618
    46  C    0.026822
    47  C   -0.114125
    48  C    0.131946
    49  C   -0.365295
    50  C   -0.255058
    51  C   -0.175714
    52  C   -0.182480
    53  C   -0.064564
    54  C   -0.308367
    55  C   -0.167509
    56  C   -0.191645
    57  C   -0.157886
    58  C   -0.045163
    59  C   -0.292116
    60  C   -0.168774
    61  C   -0.194028
    62  C   -0.160158
    63  C   -0.047696
    64  C   -0.308194
    65  C   -0.310080
    66  H    0.073398
    67  H    0.080543
    68  H    0.089475
    69  H    0.115181
    70  H    0.063905
    71  H    0.128905
    72  H    0.119051
    73  H    0.136325
    74  H    0.114673
    75  H    0.126815
    76  H    0.130246
    77  H    0.149653
    78  H    0.122765
    79  H    0.132544
    80  H    0.116758
    81  H    0.114465
    82  H    0.098808
    83  H    0.115834
    84  H    0.113564
    85  H    0.110884
    86  H    0.102980
    87  H    0.111707
    88  H    0.104419
    89  H    0.105711
    90  H    0.119482
    91  H    0.122047
    92  H    0.102025
    93  H    0.139178
    94  H    0.134482
    95  H    0.166342
    96  H    0.112336
    97  H    0.153334
    98  H    0.134161
    99  H    0.115014
   100  H    0.112194
   101  H    0.091893
   102  H    0.103800
   103  H    0.127097
   104  H    0.112224
   105  H    0.091010
   106  H    0.075156
   107  H    0.111360
   108  H    0.100361
   109  H    0.090152
   110  H    0.097993
   111  H    0.086216
   112  H    0.112244
   113  H    0.100358
   114  H    0.106073
   115  H    0.065256
   116  H    0.091361
   117  H    0.096831
   118  H    0.089656
   119  H    0.083455
   120  H    0.101645
   121  H    0.077881
   122  H    0.092669
   123  H    0.057516
   124  H    0.113138
   125  H    0.075647
   126  H    0.077574
   127  H    0.078625
   128  H    0.090759
   129  H    0.094672
   130  H    0.079612
   131  H    0.092041
   132  H    0.119159
   133  H    0.071502
   134  H    0.102455
   135  H    0.083251
   136  H    0.100867
   137  H    0.102321
 Sum of Mulliken charges =   0.00000

 Dipole moment (field-independent basis, Debye):
    X=              1.9017    Y=              5.2299    Z=              0.0202  Tot=              5.5650
 Quadrupole moment (field-independent basis, Debye-Ang):
   XX=           -376.3748   YY=           -390.1427   ZZ=           -393.7726
   XY=            -25.3293   XZ=              9.1649   YZ=             -3.7007

 Normal termination of Gaussian 09 at Fri Jul  5 21:25:06 2019.
