 Gaussian 16, Revision A.03,
 Gaussian 16:  ES64L-G16RevA.03 25-Dec-2016

 ----------------------------------------------------------------------
 # td=(NStates=1) iop(3/107=0140000000,3/108=0140000000) CAM-B3LYP/6-31
 G(d,p)
 ----------------------------------------------------------------------

 --
 TD
 --
 Symbolic Z-matrix:
 Charge =  0 Multiplicity = 1

                         Standard orientation:
 ---------------------------------------------------------------------
 Center     Atomic      Atomic             Coordinates (Angstroms)
 Number     Number       Type             X           Y           Z
 ---------------------------------------------------------------------
      1         12           0       -7.195825    0.596758    0.112323
      2          6           0       -4.917546   -1.941810    0.413562
      3          6           0       -4.762789    2.808780    1.259962
      4          6           0       -9.405216    3.076853   -0.371679
      5          6           0       -9.470534   -1.763643   -0.797150
      6          7           0       -5.173243    0.400604    0.754131
      7          6           0       -4.347224   -0.748886    0.730717
      8          6           0       -2.940780   -0.456975    1.129700
      9          6           0       -2.961833    1.061318    1.720946
     10          6           0       -4.395711    1.485671    1.198025
     11          6           0       -2.899425    1.274933    3.142292
     12          6           0       -1.979333   -0.673414    0.046678
     13          6           0       -0.422990   -0.582401    0.548343
     14          6           0        0.572914   -0.670894   -0.617440
     15          8           0        0.185637   -0.981043   -1.766856
     16          8           0        1.815948   -0.521416   -0.162377
     17          7           0       -7.121355    2.599253    0.349798
     18          6           0       -6.021430    3.414702    0.888738
     19          6           0       -6.447528    4.692245    0.837814
     20          6           0       -7.689282    4.814881    0.355276
     21          6           0       -8.122148    3.467077    0.111127
     22          6           0       -5.539667    5.787720    1.244076
     23          6           0       -8.548774    5.968393    0.111014
     24          6           0       -8.501766    7.185141    0.584858
     25          7           0       -9.137734    0.656313   -0.588580
     26          6           0       -9.858128    1.833412   -0.697405
     27          6           0      -11.157764    1.480792   -1.155465
     28          6           0      -11.296621    0.083935   -1.226748
     29          6           0       -9.921112   -0.409768   -0.889334
     30          6           0      -12.345434    2.486757   -1.384222
     31          6           0      -12.398912   -0.732423   -1.765155
     32          6           0      -12.314774   -1.167348   -3.260647
     33          7           0       -7.274783   -1.318498   -0.061155
     34          6           0       -8.324785   -2.288219   -0.519900
     35          6           0       -7.810876   -3.651951   -0.403429
     36          6           0       -6.534006   -3.589288   -0.114325
     37          6           0       -6.193606   -2.175448    0.084906
     38          6           0       -8.797033   -4.824565   -0.717717
     39          6           0       -5.199484   -4.422068    0.143872
     40          8           0       -5.159109   -5.568762    0.067369
     41          6           0       -4.176111   -3.277561    0.509548
     42          6           0       -3.486235   -3.676089    1.760268
     43          8           0       -3.720078   -3.204164    2.870850
     44          8           0       -2.625729   -4.646754    1.626693
     45          6           0       -2.051480   -5.223802    2.802170
     46          6           0        2.935945   -0.587499   -1.159942
     47          6           0        4.248605   -0.369676   -0.460871
     48          6           0        5.135444    0.477622   -0.898571
     49          6           0        5.077629    1.256170   -2.053194
     50          6           0        6.433425    0.492972   -0.188530
     51          6           0        7.605636    0.162464   -0.938938
     52          6           0        8.903958   -0.030191   -0.086930
     53          6           0       10.191638   -0.492852   -0.739691
     54          6           0       10.059924   -1.926128   -1.164826
     55          6           0       11.386705   -0.301527    0.076427
     56          6           0       12.822699   -0.412075   -0.651778
     57          6           0       13.967865   -0.110432    0.255733
     58          6           0       15.331340   -0.174125   -0.458001
     59          6           0       15.533265   -1.695549   -0.957645
     60          6           0       16.440613    0.403452    0.412366
     61          6           0       17.845624    0.342555   -0.221154
     62          6           0       18.823324    1.073060    0.616946
     63          6           0       20.390108    1.271202    0.120219
     64          6           0       20.340685    2.087179   -1.152162
     65          6           0       21.128645    1.925135    1.262239
     66          1           0       -3.995629    3.461117    1.580145
     67          1           0      -10.083649    3.745293   -0.498059
     68          1           0      -10.295976   -2.456582   -0.998054
     69          1           0       -2.691496   -0.993717    2.034256
     70          1           0       -2.356994    1.676057    1.140909
     71          1           0       -2.006675    0.864628    3.669839
     72          1           0       -3.014263    2.322830    3.304751
     73          1           0       -3.723440    0.725517    3.906769
     74          1           0       -2.209552   -1.515284   -0.410116
     75          1           0       -2.177137   -0.001357   -0.704271
     76          1           0       -0.250727    0.590202    0.990259
     77          1           0       -0.150084   -1.002914    1.334906
     78          1           0       -5.854953    6.704368    0.667466
     79          1           0       -5.721334    6.245293    2.325386
     80          1           0       -4.646195    5.432013    0.962604
     81          1           0       -9.336136    5.758758   -0.530286
     82          1           0       -9.269453    7.911957    0.242933
     83          1           0       -7.742494    7.411900    1.403874
     84          1           0      -12.030306    2.948541   -2.438617
     85          1           0      -13.247601    1.838897   -1.747802
     86          1           0      -12.394130    3.303956   -0.495028
     87          1           0      -12.402518   -1.625345   -1.068844
     88          1           0      -13.365140   -0.074946   -1.864225
     89          1           0      -13.268535   -1.641078   -3.625747
     90          1           0      -12.085230   -0.139037   -3.629932
     91          1           0      -11.398641   -1.626145   -3.580771
     92          1           0       -9.066279   -4.858795   -1.703767
     93          1           0       -8.401971   -5.669997   -0.484659
     94          1           0       -9.565004   -4.719079    0.105760
     95          1           0       -3.279291   -3.347041   -0.225132
     96          1           0       -1.507886   -4.598986    3.474695
     97          1           0       -2.816588   -5.760353    3.414763
     98          1           0       -1.456515   -6.101970    2.417437
     99          1           0        2.702927   -1.444780   -1.651622
    100          1           0        2.670984    0.208430   -2.031437
    101          1           0        4.139433   -0.938459    0.578973
    102          1           0        4.023806    1.495545   -2.444168
    103          1           0        5.559134    2.167685   -1.905669
    104          1           0        5.526866    0.885296   -2.989092
    105          1           0        6.718681    1.444327    0.015068
    106          1           0        6.375248    0.134258    0.701008
    107          1           0        7.399415   -0.815029   -1.388665
    108          1           0        8.047452    0.776775   -1.749496
    109          1           0        9.219087    0.953460    0.201753
    110          1           0        8.526087   -0.455659    0.813952
    111          1           0       10.254438    0.356505   -1.614108
    112          1           0        9.353945   -2.100326   -1.904716
    113          1           0       10.895854   -2.192387   -1.918124
    114          1           0        9.759578   -2.550590   -0.299616
    115          1           0       11.356723    0.748855    0.535577
    116          1           0       11.353493   -0.907349    1.020565
    117          1           0       13.000814   -1.385291   -1.016699
    118          1           0       12.788196    0.150117   -1.478611
    119          1           0       13.713623    0.961851    0.743617
    120          1           0       14.126348   -0.705673    1.243482
    121          1           0       15.092792    0.588596   -1.232197
    122          1           0       15.652746   -2.349088   -0.088071
    123          1           0       14.783902   -1.930961   -1.674330
    124          1           0       16.611059   -2.018760   -1.272877
    125          1           0       16.301668    1.285553    0.733707
    126          1           0       16.339248   -0.160938    1.544084
    127          1           0       18.138178   -0.743663   -0.611140
    128          1           0       17.762860    0.978856   -1.167880
    129          1           0       18.605665    2.249293    0.836512
    130          1           0       18.980809    0.371712    1.516098
    131          1           0       20.788074    0.248397   -0.117503
    132          1           0       19.866668    2.893980   -1.062642
    133          1           0       21.375747    2.401219   -1.656691
    134          1           0       19.737851    1.809104   -1.945264
    135          1           0       21.146122    1.424321    2.065326
    136          1           0       22.115661    2.100969    0.758874
    137          1           0       20.713096    2.880581    1.438086
 ---------------------------------------------------------------------

 SCF Done:  E(RCAM-B3LYP) =  -2933.38224100     A.U. after   15 cycles

 Excitation energies and oscillator strengths:

 Excited State   1:      Singlet-A      2.0980 eV  590.95 nm  f=0.2324  <S**2>=0.000
     240 -> 243        0.22965
     241 -> 242        0.66524
 This state for optimization and/or second-order correction.
 Total Energy, E(TD-HF/TD-DFT) =  -2933.30513944
 Copying the excited state density for this state as the 1-particle RhoCI density.

 The electronic state is 1-A.
 Alpha  occ. eigenvalues --  -46.77680 -19.23173 -19.22463 -19.19006 -19.16144
 Alpha  occ. eigenvalues --  -19.15585 -14.37065 -14.34782 -14.34161 -14.33847
 Alpha  occ. eigenvalues --  -10.34717 -10.34443 -10.32790 -10.27888 -10.27776
 Alpha  occ. eigenvalues --  -10.26201 -10.25602 -10.25258 -10.24765 -10.24493
 Alpha  occ. eigenvalues --  -10.24356 -10.24268 -10.24086 -10.23726 -10.23555
 Alpha  occ. eigenvalues --  -10.23379 -10.23063 -10.23016 -10.22882 -10.22853
 Alpha  occ. eigenvalues --  -10.22723 -10.22394 -10.22315 -10.22310 -10.22208
 Alpha  occ. eigenvalues --  -10.21969 -10.21958 -10.21906 -10.21808 -10.21777
 Alpha  occ. eigenvalues --  -10.21771 -10.21663 -10.21652 -10.21484 -10.21477
 Alpha  occ. eigenvalues --  -10.21451 -10.21437 -10.21172 -10.21121 -10.21017
 Alpha  occ. eigenvalues --  -10.20984 -10.20960 -10.20882 -10.20798 -10.20775
 Alpha  occ. eigenvalues --  -10.20690 -10.20398 -10.20331 -10.20294 -10.20242
 Alpha  occ. eigenvalues --  -10.19930 -10.19637 -10.19082 -10.18440 -10.18416
 Alpha  occ. eigenvalues --   -3.06552  -1.81473  -1.81032  -1.80980  -1.15120
 Alpha  occ. eigenvalues --   -1.12121  -1.11949  -1.03338  -1.02580  -0.97486
 Alpha  occ. eigenvalues --   -0.96660  -0.96404  -0.95153  -0.89410  -0.87710
 Alpha  occ. eigenvalues --   -0.86173  -0.84910  -0.84807  -0.83831  -0.83447
 Alpha  occ. eigenvalues --   -0.83274  -0.82889  -0.82424  -0.82263  -0.82083
 Alpha  occ. eigenvalues --   -0.81055  -0.79890  -0.79468  -0.78993  -0.77937
 Alpha  occ. eigenvalues --   -0.77296  -0.76667  -0.75728  -0.75617  -0.74796
 Alpha  occ. eigenvalues --   -0.73493  -0.73197  -0.72981  -0.72765  -0.71397
 Alpha  occ. eigenvalues --   -0.70970  -0.70734  -0.70020  -0.69438  -0.68476
 Alpha  occ. eigenvalues --   -0.67281  -0.67145  -0.65620  -0.64721  -0.63748
 Alpha  occ. eigenvalues --   -0.62926  -0.61555  -0.61343  -0.61176  -0.60655
 Alpha  occ. eigenvalues --   -0.60414  -0.59836  -0.59209  -0.58490  -0.58131
 Alpha  occ. eigenvalues --   -0.58088  -0.57213  -0.56303  -0.55517  -0.55130
 Alpha  occ. eigenvalues --   -0.54378  -0.53864  -0.53718  -0.53089  -0.52656
 Alpha  occ. eigenvalues --   -0.52486  -0.52317  -0.51966  -0.51277  -0.51095
 Alpha  occ. eigenvalues --   -0.50697  -0.50558  -0.50317  -0.50076  -0.49751
 Alpha  occ. eigenvalues --   -0.49736  -0.49403  -0.48664  -0.48584  -0.48418
 Alpha  occ. eigenvalues --   -0.48256  -0.47985  -0.47880  -0.47836  -0.47732
 Alpha  occ. eigenvalues --   -0.47279  -0.47076  -0.46631  -0.46564  -0.46473
 Alpha  occ. eigenvalues --   -0.46259  -0.46125  -0.45741  -0.45360  -0.44949
 Alpha  occ. eigenvalues --   -0.44875  -0.44702  -0.44616  -0.44196  -0.43623
 Alpha  occ. eigenvalues --   -0.43453  -0.43363  -0.43257  -0.43194  -0.42874
 Alpha  occ. eigenvalues --   -0.42742  -0.42619  -0.42266  -0.42065  -0.41962
 Alpha  occ. eigenvalues --   -0.41836  -0.41589  -0.41327  -0.41109  -0.41077
 Alpha  occ. eigenvalues --   -0.40714  -0.40441  -0.40180  -0.40064  -0.39948
 Alpha  occ. eigenvalues --   -0.39759  -0.39661  -0.39504  -0.38913  -0.38694
 Alpha  occ. eigenvalues --   -0.38674  -0.38398  -0.38369  -0.38008  -0.37754
 Alpha  occ. eigenvalues --   -0.37498  -0.37409  -0.37110  -0.37078  -0.36821
 Alpha  occ. eigenvalues --   -0.36786  -0.36640  -0.36171  -0.35739  -0.35723
 Alpha  occ. eigenvalues --   -0.35420  -0.35150  -0.35011  -0.34831  -0.34734
 Alpha  occ. eigenvalues --   -0.34305  -0.34167  -0.33786  -0.33683  -0.33501
 Alpha  occ. eigenvalues --   -0.33137  -0.32781  -0.32569  -0.32458  -0.32237
 Alpha  occ. eigenvalues --   -0.32200  -0.31950  -0.31648  -0.30013  -0.29848
 Alpha  occ. eigenvalues --   -0.29824  -0.29719  -0.29410  -0.29229  -0.28136
 Alpha  occ. eigenvalues --   -0.27840  -0.27350  -0.24872  -0.24161  -0.21914
 Alpha  occ. eigenvalues --   -0.19339
 Alpha virt. eigenvalues --   -0.06184  -0.03856   0.00278   0.03430   0.03470
 Alpha virt. eigenvalues --    0.03856   0.04481   0.05528   0.06270   0.06378
 Alpha virt. eigenvalues --    0.06976   0.08624   0.09202   0.09469   0.10218

 Mulliken charges:
               1
     1  Mg   0.787430
     2  C    0.091960
     3  C   -0.193248
     4  C   -0.109768
     5  C   -0.259654
     6  N   -0.630248
     7  C    0.297399
     8  C   -0.172875
     9  C   -0.120103
    10  C    0.304858
    11  C   -0.300778
    12  C   -0.144756
    13  C   -0.245509
    14  C    0.614101
    15  O   -0.499916
    16  O   -0.476845
    17  N   -0.724222
    18  C    0.286626
    19  C   -0.003390
    20  C    0.052305
    21  C    0.306496
    22  C   -0.368928
    23  C   -0.040042
    24  C   -0.256934
    25  N   -0.708999
    26  C    0.335680
    27  C   -0.006941
    28  C    0.026938
    29  C    0.301351
    30  C   -0.361464
    31  C   -0.244532
    32  C   -0.303910
    33  N   -0.735813
    34  C    0.336868
    35  C   -0.042263
    36  C    0.001101
    37  C    0.318793
    38  C   -0.344238
    39  C    0.412830
    40  O   -0.375822
    41  C   -0.351299
    42  C    0.608154
    43  O   -0.494972
    44  O   -0.416289
    45  C   -0.094002
    46  C    0.006349
    47  C   -0.140857
    48  C    0.171443
    49  C   -0.391530
    50  C   -0.205733
    51  C   -0.178241
    52  C   -0.192780
    53  C   -0.048310
    54  C   -0.301062
    55  C   -0.164446
    56  C   -0.174421
    57  C   -0.166753
    58  C   -0.052492
    59  C   -0.321843
    60  C   -0.130021
    61  C   -0.167100
    62  C   -0.164875
    63  C   -0.077418
    64  C   -0.301293
    65  C   -0.280480
    66  H    0.071124
    67  H    0.039942
    68  H    0.073722
    69  H    0.127229
    70  H    0.113521
    71  H    0.101940
    72  H    0.118336
    73  H    0.098959
    74  H    0.115923
    75  H    0.122732
    76  H    0.088992
    77  H    0.130961
    78  H    0.109871
    79  H    0.103836
    80  H    0.115335
    81  H    0.079323
    82  H    0.096421
    83  H    0.088672
    84  H    0.109934
    85  H    0.106572
    86  H    0.118015
    87  H    0.096937
    88  H    0.090899
    89  H    0.108663
    90  H    0.101515
    91  H    0.113824
    92  H    0.138988
    93  H    0.139601
    94  H    0.121188
    95  H    0.157308
    96  H    0.141194
    97  H    0.130232
    98  H    0.122344
    99  H    0.143669
   100  H    0.100763
   101  H    0.098923
   102  H    0.105958
   103  H    0.125086
   104  H    0.135110
   105  H    0.104610
   106  H    0.097200
   107  H    0.088832
   108  H    0.089364
   109  H    0.087093
   110  H    0.085835
   111  H    0.050960
   112  H    0.110441
   113  H    0.086293
   114  H    0.108466
   115  H    0.071302
   116  H    0.086512
   117  H    0.105454
   118  H    0.100773
   119  H    0.056911
   120  H    0.077924
   121  H    0.082788
   122  H    0.112214
   123  H    0.118620
   124  H    0.083732
   125  H    0.103383
   126  H    0.032054
   127  H    0.082949
   128  H    0.081692
   129  H    0.070153
   130  H    0.080475
   131  H    0.079097
   132  H    0.108063
   133  H    0.070417
   134  H    0.103780
   135  H    0.111423
   136  H    0.093469
   137  H    0.100892
 Sum of Mulliken charges =  -0.00000

 Dipole moment (field-independent basis, Debye):
    X=              4.1030    Y=              0.8358    Z=             -0.1308  Tot=              4.1893
 Quadrupole moment (field-independent basis, Debye-Ang):
   XX=           -368.6722   YY=           -387.6777   ZZ=           -396.4039
   XY=              3.2498   XZ=              8.3559   YZ=             -4.8304

 Normal termination of Gaussian 16 at Wed Sep 11 15:52:21 2019.
