 Gaussian 16, Revision A.03,
 Gaussian 16:  ES64L-G16RevA.03 25-Dec-2016

 ----------------------------------------------------------------------
 # td=(NStates=1) iop(3/107=0140000000,3/108=0140000000) CAM-B3LYP/6-31
 G(d,p)
 ----------------------------------------------------------------------

 --
 TD
 --
 Symbolic Z-matrix:
 Charge =  0 Multiplicity = 1

                         Standard orientation:
 ---------------------------------------------------------------------
 Center     Atomic      Atomic             Coordinates (Angstroms)
 Number     Number       Type             X           Y           Z
 ---------------------------------------------------------------------
      1         12           0       -7.185545    0.552205    0.275014
      2          6           0       -4.887024   -1.956318    0.486920
      3          6           0       -4.910922    2.822384    1.132491
      4          6           0       -9.534776    3.016534   -0.273847
      5          6           0       -9.550387   -1.857330   -0.796462
      6          7           0       -5.034283    0.422124    0.671428
      7          6           0       -4.257050   -0.751541    0.629956
      8          6           0       -2.863685   -0.315729    1.118593
      9          6           0       -3.041391    1.172466    1.461722
     10          6           0       -4.452286    1.508959    1.122530
     11          6           0       -2.970950    1.318145    3.067631
     12          6           0       -1.874985   -0.615438   -0.064907
     13          6           0       -0.532029   -0.353899    0.423830
     14          6           0        0.572104   -0.573659   -0.597440
     15          8           0        0.363465   -0.851130   -1.774560
     16          8           0        1.825287   -0.276771   -0.077032
     17          7           0       -7.224023    2.613315    0.367222
     18          6           0       -6.082420    3.388617    0.713593
     19          6           0       -6.447592    4.758127    0.719165
     20          6           0       -7.820159    4.882098    0.271644
     21          6           0       -8.250685    3.499959    0.042960
     22          6           0       -5.518931    5.890314    0.999485
     23          6           0       -8.585434    5.969516    0.121835
     24          6           0       -8.342162    7.335724    0.528093
     25          7           0       -9.135332    0.627631   -0.435017
     26          6           0       -9.921328    1.722443   -0.566528
     27          6           0      -11.258777    1.419335   -1.043326
     28          6           0      -11.259595    0.109636   -1.146340
     29          6           0       -9.883085   -0.404583   -0.735087
     30          6           0      -12.418842    2.418611   -1.254050
     31          6           0      -12.372617   -0.842228   -1.509858
     32          6           0      -12.247100   -1.374683   -3.047731
     33          7           0       -7.250883   -1.405149   -0.193706
     34          6           0       -8.275092   -2.311972   -0.499632
     35          6           0       -7.763151   -3.637054   -0.536324
     36          6           0       -6.471169   -3.540565   -0.188495
     37          6           0       -6.155685   -2.194262    0.060568
     38          6           0       -8.562693   -4.894331   -0.881270
     39          6           0       -5.306559   -4.374471    0.203457
     40          8           0       -5.049633   -5.627772    0.120730
     41          6           0       -4.174022   -3.271290    0.521964
     42          6           0       -3.481513   -3.619862    1.844215
     43          8           0       -3.648606   -3.020528    2.831446
     44          8           0       -2.720494   -4.753049    1.695013
     45          6           0       -2.219761   -5.249089    3.015915
     46          6           0        2.842604   -0.597311   -1.106484
     47          6           0        4.181989   -0.405705   -0.529257
     48          6           0        5.126754    0.538669   -0.926637
     49          6           0        5.060719    1.322533   -2.153129
     50          6           0        6.456314    0.477780   -0.186449
     51          6           0        7.672282   -0.079481   -0.978343
     52          6           0        9.015894   -0.026506   -0.168939
     53          6           0       10.148363   -0.549480   -0.964626
     54          6           0       10.114713   -2.072827   -1.427017
     55          6           0       11.464497   -0.431887   -0.048705
     56          6           0       12.846248   -0.613931   -0.673412
     57          6           0       13.977343   -0.157052    0.176222
     58          6           0       15.282218   -0.257686   -0.407780
     59          6           0       15.670811   -1.625603   -0.910178
     60          6           0       16.386336    0.363424    0.479402
     61          6           0       17.777639    0.589562   -0.190637
     62          6           0       18.757084    1.225694    0.781930
     63          6           0       20.263845    1.270424    0.321298
     64          6           0       20.346862    2.128305   -0.999741
     65          6           0       21.168205    1.894137    1.370101
     66          1           0       -4.238999    3.636949    1.506653
     67          1           0      -10.242198    3.771637   -0.355065
     68          1           0      -10.491576   -2.424531   -0.846786
     69          1           0       -2.636873   -0.882335    2.105752
     70          1           0       -2.290477    2.002163    0.918269
     71          1           0       -1.929423    1.143743    3.444453
     72          1           0       -3.454479    2.378280    3.255048
     73          1           0       -3.613147    0.484388    3.390720
     74          1           0       -1.798402   -1.605264   -0.396698
     75          1           0       -2.062207   -0.119383   -0.893831
     76          1           0       -0.493714    0.600438    0.862397
     77          1           0       -0.205214   -1.035241    1.209646
     78          1           0       -5.748929    6.794385    0.465571
     79          1           0       -5.482352    6.140436    1.955411
     80          1           0       -4.531549    5.589743    0.730343
     81          1           0       -9.498205    5.992665   -0.594878
     82          1           0       -8.850760    8.017199   -0.025933
     83          1           0       -7.540035    7.418676    1.151360
     84          1           0      -12.326081    3.141263   -2.185302
     85          1           0      -13.360254    1.534966   -1.442167
     86          1           0      -12.791725    2.945200   -0.468154
     87          1           0      -12.429835   -1.709895   -0.724592
     88          1           0      -13.300454   -0.220704   -1.606572
     89          1           0      -13.185753   -2.077217   -3.088998
     90          1           0      -12.245097   -0.278740   -3.714086
     91          1           0      -11.370907   -1.879314   -3.038775
     92          1           0       -8.981885   -4.523483   -1.878908
     93          1           0       -7.981672   -5.853958   -0.841158
     94          1           0       -9.439236   -5.004060   -0.390150
     95          1           0       -3.357003   -3.249270   -0.180649
     96          1           0       -1.884205   -4.449601    3.577644
     97          1           0       -3.132130   -5.614233    3.710996
     98          1           0       -1.431325   -5.973616    2.954346
     99          1           0        2.737085   -1.708256   -1.364646
    100          1           0        2.588071   -0.025640   -2.063783
    101          1           0        4.202614   -1.087697    0.245203
    102          1           0        4.141696    1.202429   -2.515707
    103          1           0        5.361390    2.439138   -1.770088
    104          1           0        5.661184    0.925232   -3.016801
    105          1           0        6.722676    1.655243   -0.019816
    106          1           0        6.156722    0.193420    0.873229
    107          1           0        7.567232   -1.018784   -1.320597
    108          1           0        7.833624    0.504629   -1.985543
    109          1           0        9.121347    0.972524    0.160413
    110          1           0        8.989787   -0.548340    0.807678
    111          1           0       10.210213   -0.012911   -1.886201
    112          1           0        9.308457   -2.323962   -2.128438
    113          1           0       10.978411   -2.455822   -1.759132
    114          1           0        9.857341   -2.743014   -0.649193
    115          1           0       11.466282    0.504106    0.356183
    116          1           0       11.296439   -1.168332    0.788872
    117          1           0       13.028800   -1.586869   -1.065705
    118          1           0       12.703309   -0.012188   -1.648468
    119          1           0       13.716465    0.910042    0.626229
    120          1           0       14.116689   -0.567425    1.184915
    121          1           0       15.480365    0.485312   -1.217591
    122          1           0       15.617945   -2.466315   -0.230746
    123          1           0       15.016633   -1.980530   -1.779961
    124          1           0       16.604689   -1.578649   -1.125105
    125          1           0       15.983890    1.374083    0.890222
    126          1           0       16.376224   -0.280834    1.254471
    127          1           0       18.151783   -0.315517   -0.538427
    128          1           0       17.616163    1.201992   -0.927411
    129          1           0       18.484018    2.395403    0.897907
    130          1           0       18.710380    0.530697    1.559608
    131          1           0       20.684610    0.265881    0.252189
    132          1           0       20.194562    3.075794   -0.945426
    133          1           0       21.326536    2.128436   -1.100257
    134          1           0       19.776523    1.752614   -1.812474
    135          1           0       21.327417    1.204380    2.346418
    136          1           0       22.305520    1.861093    1.105224
    137          1           0       20.847217    2.883704    1.605070
 ---------------------------------------------------------------------

 SCF Done:  E(RCAM-B3LYP) =  -2933.47941271     A.U. after   16 cycles

 Excitation energies and oscillator strengths:

 Excited State   1:      Singlet-A      1.9356 eV  640.53 nm  f=0.2861  <S**2>=0.000
     240 -> 243        0.21901
     241 -> 242        0.66771
 This state for optimization and/or second-order correction.
 Total Energy, E(TD-HF/TD-DFT) =  -2933.40827928
 Copying the excited state density for this state as the 1-particle RhoCI density.

 The electronic state is 1-A.
 Alpha  occ. eigenvalues --  -46.80584 -19.21983 -19.21838 -19.17351 -19.16971
 Alpha  occ. eigenvalues --  -19.16479 -14.37582 -14.35516 -14.35508 -14.34888
 Alpha  occ. eigenvalues --  -10.34358 -10.34259 -10.31421 -10.27174 -10.27039
 Alpha  occ. eigenvalues --  -10.26486 -10.26043 -10.25376 -10.25141 -10.24910
 Alpha  occ. eigenvalues --  -10.24706 -10.24603 -10.24411 -10.24376 -10.24356
 Alpha  occ. eigenvalues --  -10.24115 -10.23729 -10.23658 -10.23523 -10.23384
 Alpha  occ. eigenvalues --  -10.23238 -10.23094 -10.23029 -10.23021 -10.22866
 Alpha  occ. eigenvalues --  -10.22837 -10.22622 -10.22248 -10.22039 -10.21919
 Alpha  occ. eigenvalues --  -10.21885 -10.21876 -10.21707 -10.21705 -10.21705
 Alpha  occ. eigenvalues --  -10.21657 -10.21594 -10.21589 -10.21298 -10.21237
 Alpha  occ. eigenvalues --  -10.21061 -10.20760 -10.20601 -10.20558 -10.20539
 Alpha  occ. eigenvalues --  -10.20512 -10.20402 -10.20285 -10.20124 -10.19993
 Alpha  occ. eigenvalues --  -10.19798 -10.18885 -10.18845 -10.18831 -10.17212
 Alpha  occ. eigenvalues --   -3.09041  -1.83986  -1.83502  -1.83444  -1.13379
 Alpha  occ. eigenvalues --   -1.11371  -1.05222  -1.03446  -1.02506  -1.00070
 Alpha  occ. eigenvalues --   -0.99472  -0.98518  -0.96067  -0.88435  -0.86513
 Alpha  occ. eigenvalues --   -0.86169  -0.85594  -0.84271  -0.84088  -0.83856
 Alpha  occ. eigenvalues --   -0.83699  -0.83496  -0.82979  -0.82004  -0.80840
 Alpha  occ. eigenvalues --   -0.80235  -0.79462  -0.78670  -0.78407  -0.77263
 Alpha  occ. eigenvalues --   -0.77047  -0.76269  -0.75785  -0.75624  -0.73696
 Alpha  occ. eigenvalues --   -0.73197  -0.72196  -0.72167  -0.72049  -0.71829
 Alpha  occ. eigenvalues --   -0.71706  -0.71020  -0.69984  -0.69088  -0.68312
 Alpha  occ. eigenvalues --   -0.67538  -0.66813  -0.65223  -0.64467  -0.64424
 Alpha  occ. eigenvalues --   -0.63299  -0.62805  -0.61803  -0.61118  -0.60616
 Alpha  occ. eigenvalues --   -0.60276  -0.60037  -0.59000  -0.58476  -0.58001
 Alpha  occ. eigenvalues --   -0.57994  -0.56710  -0.55992  -0.55606  -0.55388
 Alpha  occ. eigenvalues --   -0.54974  -0.54290  -0.54066  -0.53369  -0.52947
 Alpha  occ. eigenvalues --   -0.52412  -0.51820  -0.51390  -0.51220  -0.51201
 Alpha  occ. eigenvalues --   -0.51048  -0.50622  -0.50194  -0.50012  -0.49447
 Alpha  occ. eigenvalues --   -0.49225  -0.49039  -0.48692  -0.48417  -0.48084
 Alpha  occ. eigenvalues --   -0.47553  -0.47395  -0.47350  -0.47106  -0.47049
 Alpha  occ. eigenvalues --   -0.46805  -0.46547  -0.46434  -0.46247  -0.46046
 Alpha  occ. eigenvalues --   -0.45866  -0.45498  -0.45413  -0.45214  -0.44936
 Alpha  occ. eigenvalues --   -0.44606  -0.44297  -0.44021  -0.43856  -0.43740
 Alpha  occ. eigenvalues --   -0.43606  -0.43284  -0.43162  -0.43033  -0.42733
 Alpha  occ. eigenvalues --   -0.42459  -0.42194  -0.42064  -0.41819  -0.41729
 Alpha  occ. eigenvalues --   -0.41533  -0.41480  -0.41396  -0.41193  -0.41143
 Alpha  occ. eigenvalues --   -0.41001  -0.40966  -0.40854  -0.40137  -0.40023
 Alpha  occ. eigenvalues --   -0.39680  -0.39562  -0.39438  -0.39370  -0.39314
 Alpha  occ. eigenvalues --   -0.39152  -0.38865  -0.38758  -0.38445  -0.38307
 Alpha  occ. eigenvalues --   -0.38241  -0.37874  -0.37624  -0.37536  -0.37043
 Alpha  occ. eigenvalues --   -0.37016  -0.36865  -0.36624  -0.36561  -0.36402
 Alpha  occ. eigenvalues --   -0.36285  -0.35615  -0.35587  -0.35025  -0.34716
 Alpha  occ. eigenvalues --   -0.34556  -0.34515  -0.34349  -0.34293  -0.34286
 Alpha  occ. eigenvalues --   -0.33659  -0.32905  -0.32703  -0.32545  -0.32359
 Alpha  occ. eigenvalues --   -0.31983  -0.31759  -0.31062  -0.30940  -0.30542
 Alpha  occ. eigenvalues --   -0.30272  -0.30037  -0.29974  -0.28787  -0.27340
 Alpha  occ. eigenvalues --   -0.27071  -0.26747  -0.26225  -0.23386  -0.21896
 Alpha  occ. eigenvalues --   -0.19661
 Alpha virt. eigenvalues --   -0.07433  -0.04254  -0.01445   0.01397   0.02680
 Alpha virt. eigenvalues --    0.03231   0.03823   0.04707   0.05320   0.05865
 Alpha virt. eigenvalues --    0.06870   0.07708   0.09380   0.09432   0.10033

 Mulliken charges:
               1
     1  Mg   0.817600
     2  C    0.124218
     3  C   -0.180375
     4  C   -0.169401
     5  C   -0.185086
     6  N   -0.633913
     7  C    0.252018
     8  C   -0.177547
     9  C   -0.155871
    10  C    0.377990
    11  C   -0.312360
    12  C   -0.155474
    13  C   -0.267917
    14  C    0.599889
    15  O   -0.475303
    16  O   -0.482387
    17  N   -0.717393
    18  C    0.325081
    19  C    0.007758
    20  C    0.100302
    21  C    0.289241
    22  C   -0.386561
    23  C   -0.182946
    24  C   -0.222547
    25  N   -0.673560
    26  C    0.283400
    27  C    0.077961
    28  C    0.022046
    29  C    0.292836
    30  C   -0.358878
    31  C   -0.283844
    32  C   -0.284071
    33  N   -0.746164
    34  C    0.287202
    35  C    0.008684
    36  C    0.033337
    37  C    0.294931
    38  C   -0.366069
    39  C    0.371466
    40  O   -0.482196
    41  C   -0.341568
    42  C    0.613378
    43  O   -0.438561
    44  O   -0.459782
    45  C   -0.098630
    46  C   -0.010653
    47  C   -0.100697
    48  C    0.094990
    49  C   -0.333708
    50  C   -0.210100
    51  C   -0.175001
    52  C   -0.164450
    53  C   -0.063758
    54  C   -0.332420
    55  C   -0.177102
    56  C   -0.178595
    57  C   -0.152372
    58  C   -0.050276
    59  C   -0.308315
    60  C   -0.201052
    61  C   -0.179215
    62  C   -0.142783
    63  C   -0.070347
    64  C   -0.312346
    65  C   -0.306465
    66  H    0.073154
    67  H    0.070666
    68  H    0.090559
    69  H    0.126707
    70  H    0.087817
    71  H    0.110363
    72  H    0.101445
    73  H    0.132786
    74  H    0.117666
    75  H    0.131408
    76  H    0.136841
    77  H    0.129069
    78  H    0.124793
    79  H    0.137766
    80  H    0.113415
    81  H    0.080868
    82  H    0.101971
    83  H    0.090356
    84  H    0.115302
    85  H    0.066319
    86  H    0.144813
    87  H    0.099780
    88  H    0.099490
    89  H    0.101390
    90  H    0.089813
    91  H    0.128554
    92  H    0.117955
    93  H    0.147363
    94  H    0.135741
    95  H    0.161701
    96  H    0.141975
    97  H    0.113460
    98  H    0.132772
    99  H    0.113091
   100  H    0.119583
   101  H    0.090899
   102  H    0.116046
   103  H    0.097683
   104  H    0.122921
   105  H    0.059140
   106  H    0.102878
   107  H    0.115611
   108  H    0.081224
   109  H    0.099670
   110  H    0.088380
   111  H    0.084897
   112  H    0.090403
   113  H    0.114874
   114  H    0.102870
   115  H    0.092858
   116  H    0.081063
   117  H    0.098378
   118  H    0.082050
   119  H    0.063050
   120  H    0.086682
   121  H    0.075783
   122  H    0.096019
   123  H    0.093991
   124  H    0.106346
   125  H    0.073798
   126  H    0.091655
   127  H    0.099646
   128  H    0.103655
   129  H    0.066321
   130  H    0.093577
   131  H    0.083170
   132  H    0.108786
   133  H    0.106013
   134  H    0.103801
   135  H    0.076696
   136  H    0.087088
   137  H    0.109053
 Sum of Mulliken charges =  -0.00000

 Dipole moment (field-independent basis, Debye):
    X=              1.6432    Y=              2.8694    Z=              1.2986  Tot=              3.5524
 Quadrupole moment (field-independent basis, Debye-Ang):
   XX=           -332.2179   YY=           -397.6761   ZZ=           -398.7369
   XY=            -15.2263   XZ=             -0.1110   YZ=             -8.4484

 Normal termination of Gaussian 16 at Thu Sep 12 06:04:35 2019.
