 Gaussian 16, Revision A.03,
 Gaussian 16:  ES64L-G16RevA.03 25-Dec-2016

 ----------------------------------------------------------------------
 # td=(NStates=1) iop(3/107=0140000000,3/108=0140000000) CAM-B3LYP/6-31
 G(d,p)
 ----------------------------------------------------------------------

 --
 TD
 --
 Symbolic Z-matrix:
 Charge =  0 Multiplicity = 1

                         Standard orientation:
 ---------------------------------------------------------------------
 Center     Atomic      Atomic             Coordinates (Angstroms)
 Number     Number       Type             X           Y           Z
 ---------------------------------------------------------------------
      1         12           0       -7.056410    0.610310    0.086026
      2          6           0       -4.821475   -1.966244    0.527114
      3          6           0       -4.689335    2.885995    1.118733
      4          6           0       -9.365633    3.209882   -0.534332
      5          6           0       -9.494550   -1.640161   -0.964562
      6          7           0       -5.061879    0.399001    0.716850
      7          6           0       -4.338558   -0.794443    0.860961
      8          6           0       -3.014057   -0.440243    1.327760
      9          6           0       -3.036345    0.979333    1.844848
     10          6           0       -4.343629    1.490369    1.218580
     11          6           0       -2.940413    1.114480    3.305334
     12          6           0       -2.024861   -0.660248    0.135037
     13          6           0       -0.548785   -0.436021    0.647341
     14          6           0        0.352894   -0.638320   -0.511895
     15          8           0        0.082614   -1.173729   -1.607773
     16          8           0        1.611215   -0.500869   -0.155370
     17          7           0       -7.086124    2.635163    0.366749
     18          6           0       -5.946483    3.440301    0.805769
     19          6           0       -6.292037    4.800894    0.700541
     20          6           0       -7.661517    4.900875    0.382249
     21          6           0       -8.010967    3.532086    0.021503
     22          6           0       -5.354575    5.904869    1.262850
     23          6           0       -8.490372    6.085217    0.279512
     24          6           0       -8.239568    7.264144    0.846063
     25          7           0       -9.040797    0.758918   -0.681475
     26          6           0       -9.748517    1.834326   -0.755640
     27          6           0      -11.208421    1.488361   -1.212045
     28          6           0      -11.161394    0.115921   -1.311094
     29          6           0       -9.867592   -0.271630   -0.988801
     30          6           0      -12.295528    2.476747   -1.439908
     31          6           0      -12.395365   -0.604632   -1.789879
     32          6           0      -12.257963   -1.151207   -3.189852
     33          7           0       -7.173992   -1.385659   -0.143764
     34          6           0       -8.248334   -2.243302   -0.560870
     35          6           0       -7.830489   -3.526135   -0.508320
     36          6           0       -6.501164   -3.579669   -0.045480
     37          6           0       -6.209137   -2.163876    0.145380
     38          6           0       -8.676201   -4.761687   -0.999107
     39          6           0       -5.316770   -4.386671    0.211370
     40          8           0       -5.207476   -5.602574    0.107807
     41          6           0       -4.208076   -3.370860    0.544917
     42          6           0       -3.563890   -3.743346    1.874481
     43          8           0       -3.990696   -3.289011    2.987647
     44          8           0       -2.619866   -4.772174    1.759760
     45          6           0       -2.214187   -5.522771    3.050745
     46          6           0        2.658526   -0.632108   -1.133157
     47          6           0        4.017813   -0.550581   -0.479534
     48          6           0        4.981249    0.281882   -0.923242
     49          6           0        4.981164    1.128027   -2.185742
     50          6           0        6.254385    0.399886   -0.073451
     51          6           0        7.591026    0.115869   -0.927187
     52          6           0        8.902324    0.155507   -0.211717
     53          6           0       10.159082   -0.282293   -1.069379
     54          6           0       10.105875   -1.820102   -1.458685
     55          6           0       11.449993   -0.000591   -0.174333
     56          6           0       12.906711   -0.322618   -0.857806
     57          6           0       13.955840   -0.063080    0.166235
     58          6           0       15.368278   -0.282685   -0.503091
     59          6           0       15.618511   -1.812552   -0.846450
     60          6           0       16.504570    0.328492    0.420433
     61          6           0       17.892891    0.303024   -0.140908
     62          6           0       18.823774    1.208088    0.659368
     63          6           0       20.249557    1.228671    0.258261
     64          6           0       20.363444    2.138370   -1.063891
     65          6           0       21.164933    1.852297    1.252604
     66          1           0       -4.059994    3.548532    1.674409
     67          1           0      -10.052942    3.859181   -0.977646
     68          1           0      -10.129933   -2.536052   -1.424207
     69          1           0       -2.670033   -1.077040    2.214063
     70          1           0       -2.221517    1.628401    1.348572
     71          1           0       -1.876174    1.003324    3.552577
     72          1           0       -3.232446    1.999368    3.756845
     73          1           0       -3.612301    0.315036    3.722741
     74          1           0       -2.125156   -1.728879   -0.482239
     75          1           0       -2.265644   -0.014661   -0.734901
     76          1           0       -0.471558    0.623792    1.097767
     77          1           0       -0.175168   -1.158612    1.501386
     78          1           0       -5.473914    6.723781    0.482537
     79          1           0       -5.710770    6.323974    2.268746
     80          1           0       -4.210003    5.567043    1.368704
     81          1           0       -9.640839    5.916127   -0.131554
     82          1           0       -8.918056    7.970605    0.732781
     83          1           0       -7.519846    7.512177    1.636014
     84          1           0      -12.034944    2.873244   -2.638264
     85          1           0      -13.208148    1.902543   -1.354378
     86          1           0      -12.559910    3.233500   -0.579856
     87          1           0      -12.560784   -1.496739   -1.249828
     88          1           0      -13.223102    0.096743   -1.908182
     89          1           0      -13.033118   -1.964109   -3.482145
     90          1           0      -12.327171   -0.417491   -3.935540
     91          1           0      -11.188431   -1.604048   -3.366232
     92          1           0       -9.184908   -4.612024   -2.086650
     93          1           0       -7.817805   -5.614502   -1.365985
     94          1           0       -9.488262   -5.021002   -0.414867
     95          1           0       -3.569286   -3.526970   -0.195001
     96          1           0       -1.931694   -4.664511    3.686072
     97          1           0       -3.149305   -5.946905    3.455558
     98          1           0       -1.379765   -6.170477    2.962953
     99          1           0        2.491817   -1.658076   -1.543063
    100          1           0        2.537602    0.217157   -1.918316
    101          1           0        4.079148   -1.253753    0.352924
    102          1           0        3.976782    1.060079   -2.726092
    103          1           0        5.200951    2.086100   -1.708583
    104          1           0        5.899701    0.803258   -2.779834
    105          1           0        6.317052    1.488231    0.431901
    106          1           0        6.048092   -0.362982    0.771151
    107          1           0        7.567404   -0.937734   -1.063915
    108          1           0        7.600462    0.671210   -1.795207
    109          1           0        9.152142    1.315830    0.220314
    110          1           0        8.725155   -0.678943    0.664743
    111          1           0       10.380121    0.219528   -1.985080
    112          1           0        9.264068   -1.907095   -2.218165
    113          1           0       10.968282   -2.291555   -2.021592
    114          1           0        9.969140   -2.504869   -0.503659
    115          1           0       11.347312    1.021360    0.186605
    116          1           0       11.309630   -0.838977    0.568765
    117          1           0       12.960189   -1.392283   -1.115809
    118          1           0       13.064417    0.269604   -1.733484
    119          1           0       13.934609    0.956247    0.419118
    120          1           0       14.042468   -0.792195    1.006847
    121          1           0       15.477926    0.474354   -1.441414
    122          1           0       15.636439   -2.627173   -0.008397
    123          1           0       14.778426   -2.114732   -1.498317
    124          1           0       16.569864   -1.826268   -1.270446
    125          1           0       16.217819    1.279759    0.821271
    126          1           0       16.408598   -0.363631    1.434127
    127          1           0       18.195985   -0.714970   -0.180191
    128          1           0       17.893623    0.815114   -1.160267
    129          1           0       18.263831    2.223568    0.712157
    130          1           0       18.929151    0.883354    1.794320
    131          1           0       20.449245    0.304787   -0.126304
    132          1           0       20.041779    3.124939   -0.831959
    133          1           0       21.538430    2.172708   -1.251098
    134          1           0       19.682096    1.758017   -1.987481
    135          1           0       21.257341    0.970624    2.054866
    136          1           0       22.335200    2.312273    0.976801
    137          1           0       20.800860    2.849936    1.695288
 ---------------------------------------------------------------------

 SCF Done:  E(RCAM-B3LYP) =  -2933.50998519     A.U. after   16 cycles

 Excitation energies and oscillator strengths:

 Excited State   1:      Singlet-A      1.9022 eV  651.80 nm  f=0.2805  <S**2>=0.000
     240 -> 243       -0.17712
     241 -> 242        0.68203
 This state for optimization and/or second-order correction.
 Total Energy, E(TD-HF/TD-DFT) =  -2933.44008141
 Copying the excited state density for this state as the 1-particle RhoCI density.

 The electronic state is 1-A.
 Alpha  occ. eigenvalues --  -46.80318 -19.21392 -19.21377 -19.16027 -19.15415
 Alpha  occ. eigenvalues --  -19.15087 -14.37520 -14.35634 -14.35528 -14.34721
 Alpha  occ. eigenvalues --  -10.34806 -10.33906 -10.29710 -10.27710 -10.27463
 Alpha  occ. eigenvalues --  -10.27212 -10.26274 -10.25930 -10.24988 -10.24865
 Alpha  occ. eigenvalues --  -10.24747 -10.24732 -10.24539 -10.24409 -10.24407
 Alpha  occ. eigenvalues --  -10.24126 -10.24009 -10.23834 -10.23822 -10.23822
 Alpha  occ. eigenvalues --  -10.23759 -10.23527 -10.23512 -10.23428 -10.23230
 Alpha  occ. eigenvalues --  -10.23139 -10.23106 -10.23032 -10.22976 -10.22973
 Alpha  occ. eigenvalues --  -10.22934 -10.22892 -10.22720 -10.22465 -10.22390
 Alpha  occ. eigenvalues --  -10.22232 -10.22145 -10.22046 -10.21672 -10.21609
 Alpha  occ. eigenvalues --  -10.21546 -10.21359 -10.21306 -10.21242 -10.21206
 Alpha  occ. eigenvalues --  -10.21103 -10.21039 -10.21019 -10.20988 -10.20952
 Alpha  occ. eigenvalues --  -10.20922 -10.20882 -10.20816 -10.20159 -10.20105
 Alpha  occ. eigenvalues --   -3.08830  -1.83783  -1.83284  -1.83248  -1.13291
 Alpha  occ. eigenvalues --   -1.08171  -1.04650  -1.01912  -1.00422  -1.00295
 Alpha  occ. eigenvalues --   -0.99351  -0.97886  -0.97234  -0.87109  -0.85811
 Alpha  occ. eigenvalues --   -0.85432  -0.84793  -0.84737  -0.83999  -0.83873
 Alpha  occ. eigenvalues --   -0.83202  -0.82872  -0.81958  -0.81739  -0.80906
 Alpha  occ. eigenvalues --   -0.79843  -0.79293  -0.78298  -0.78063  -0.77365
 Alpha  occ. eigenvalues --   -0.76834  -0.75977  -0.75317  -0.74534  -0.73634
 Alpha  occ. eigenvalues --   -0.73190  -0.72385  -0.71531  -0.71315  -0.70067
 Alpha  occ. eigenvalues --   -0.70033  -0.69196  -0.68848  -0.68544  -0.68016
 Alpha  occ. eigenvalues --   -0.66483  -0.65459  -0.64991  -0.64491  -0.63741
 Alpha  occ. eigenvalues --   -0.62525  -0.61685  -0.60323  -0.59980  -0.59810
 Alpha  occ. eigenvalues --   -0.59696  -0.59204  -0.58158  -0.58000  -0.57829
 Alpha  occ. eigenvalues --   -0.56671  -0.56228  -0.56018  -0.55363  -0.54976
 Alpha  occ. eigenvalues --   -0.54748  -0.54066  -0.53771  -0.52872  -0.52474
 Alpha  occ. eigenvalues --   -0.52128  -0.51412  -0.51032  -0.50932  -0.50591
 Alpha  occ. eigenvalues --   -0.50385  -0.49965  -0.49813  -0.49565  -0.49285
 Alpha  occ. eigenvalues --   -0.48879  -0.48556  -0.48344  -0.47940  -0.47679
 Alpha  occ. eigenvalues --   -0.47318  -0.47107  -0.46933  -0.46818  -0.46427
 Alpha  occ. eigenvalues --   -0.46321  -0.46103  -0.46000  -0.45756  -0.45608
 Alpha  occ. eigenvalues --   -0.45292  -0.45126  -0.45028  -0.44920  -0.44768
 Alpha  occ. eigenvalues --   -0.44650  -0.44267  -0.44094  -0.43951  -0.43714
 Alpha  occ. eigenvalues --   -0.43576  -0.43313  -0.42960  -0.42609  -0.42338
 Alpha  occ. eigenvalues --   -0.42175  -0.42067  -0.41699  -0.41349  -0.41233
 Alpha  occ. eigenvalues --   -0.41075  -0.40809  -0.40606  -0.40549  -0.40267
 Alpha  occ. eigenvalues --   -0.40047  -0.39954  -0.39795  -0.39710  -0.39536
 Alpha  occ. eigenvalues --   -0.39390  -0.39000  -0.38883  -0.38670  -0.38488
 Alpha  occ. eigenvalues --   -0.38476  -0.38237  -0.38060  -0.37795  -0.37689
 Alpha  occ. eigenvalues --   -0.37578  -0.37478  -0.37084  -0.36931  -0.36571
 Alpha  occ. eigenvalues --   -0.36444  -0.36264  -0.36201  -0.36051  -0.35827
 Alpha  occ. eigenvalues --   -0.35751  -0.35195  -0.35180  -0.35138  -0.35010
 Alpha  occ. eigenvalues --   -0.34633  -0.34478  -0.33839  -0.33790  -0.33586
 Alpha  occ. eigenvalues --   -0.33536  -0.32858  -0.32677  -0.32068  -0.31847
 Alpha  occ. eigenvalues --   -0.31540  -0.31491  -0.30783  -0.30331  -0.30145
 Alpha  occ. eigenvalues --   -0.29650  -0.29390  -0.29083  -0.28695  -0.26867
 Alpha  occ. eigenvalues --   -0.26735  -0.26277  -0.25959  -0.24985  -0.21694
 Alpha  occ. eigenvalues --   -0.19896
 Alpha virt. eigenvalues --   -0.07793  -0.03422   0.00097   0.01839   0.03107
 Alpha virt. eigenvalues --    0.03238   0.04059   0.04627   0.05076   0.05434
 Alpha virt. eigenvalues --    0.07064   0.08494   0.09129   0.09410   0.09696

 Mulliken charges:
               1
     1  Mg   0.812748
     2  C    0.094550
     3  C   -0.190595
     4  C   -0.165031
     5  C   -0.183115
     6  N   -0.652607
     7  C    0.323410
     8  C   -0.170386
     9  C   -0.140638
    10  C    0.315911
    11  C   -0.307105
    12  C   -0.179358
    13  C   -0.264243
    14  C    0.606701
    15  O   -0.498026
    16  O   -0.456726
    17  N   -0.692479
    18  C    0.296218
    19  C   -0.008392
    20  C    0.046612
    21  C    0.308294
    22  C   -0.368226
    23  C   -0.087222
    24  C   -0.232884
    25  N   -0.653279
    26  C    0.294821
    27  C   -0.018227
    28  C    0.089601
    29  C    0.278501
    30  C   -0.374864
    31  C   -0.226148
    32  C   -0.318232
    33  N   -0.735326
    34  C    0.264423
    35  C   -0.010740
    36  C    0.035511
    37  C    0.311469
    38  C   -0.371524
    39  C    0.342957
    40  O   -0.472187
    41  C   -0.265472
    42  C    0.615125
    43  O   -0.502248
    44  O   -0.487217
    45  C   -0.093607
    46  C    0.020504
    47  C   -0.132200
    48  C    0.123265
    49  C   -0.350831
    50  C   -0.231310
    51  C   -0.167668
    52  C   -0.154298
    53  C   -0.065038
    54  C   -0.320617
    55  C   -0.166417
    56  C   -0.188624
    57  C   -0.147223
    58  C   -0.069311
    59  C   -0.320094
    60  C   -0.163149
    61  C   -0.168021
    62  C   -0.152494
    63  C   -0.037370
    64  C   -0.309977
    65  C   -0.288876
    66  H    0.078112
    67  H    0.093323
    68  H    0.090963
    69  H    0.114138
    70  H    0.095374
    71  H    0.107995
    72  H    0.119152
    73  H    0.127447
    74  H    0.115088
    75  H    0.126071
    76  H    0.123684
    77  H    0.139223
    78  H    0.125620
    79  H    0.123366
    80  H    0.098357
    81  H    0.082249
    82  H    0.099909
    83  H    0.105233
    84  H    0.105134
    85  H    0.121778
    86  H    0.118220
    87  H    0.113629
    88  H    0.105257
    89  H    0.090573
    90  H    0.115060
    91  H    0.093651
    92  H    0.091448
    93  H    0.122844
    94  H    0.140293
    95  H    0.158470
    96  H    0.138184
    97  H    0.151137
    98  H    0.141026
    99  H    0.126544
   100  H    0.097255
   101  H    0.092779
   102  H    0.107509
   103  H    0.126181
   104  H    0.128111
   105  H    0.085102
   106  H    0.093188
   107  H    0.117193
   108  H    0.100044
   109  H    0.052200
   110  H    0.072954
   111  H    0.091323
   112  H    0.098763
   113  H    0.103299
   114  H    0.087308
   115  H    0.088151
   116  H    0.086792
   117  H    0.093905
   118  H    0.095458
   119  H    0.093417
   120  H    0.094333
   121  H    0.055035
   122  H    0.091409
   123  H    0.104938
   124  H    0.116154
   125  H    0.089376
   126  H    0.050125
   127  H    0.104176
   128  H    0.087657
   129  H    0.077288
   130  H    0.061624
   131  H    0.105835
   132  H    0.108137
   133  H    0.081948
   134  H    0.076675
   135  H    0.088054
   136  H    0.069246
   137  H    0.107502
 Sum of Mulliken charges =  -0.00000

 Dipole moment (field-independent basis, Debye):
    X=              1.8500    Y=              5.4363    Z=              0.9818  Tot=              5.8258
 Quadrupole moment (field-independent basis, Debye-Ang):
   XX=           -347.5304   YY=           -395.3053   ZZ=           -397.9420
   XY=            -34.2035   XZ=              6.6602   YZ=             -1.0715

 Normal termination of Gaussian 16 at Mon Sep  9 18:32:18 2019.
