 Gaussian 16, Revision A.03,
 Gaussian 16:  ES64L-G16RevA.03 25-Dec-2016

 ----------------------------------------------------------------------
 # td=(NStates=1) iop(3/107=0140000000,3/108=0140000000) CAM-B3LYP/6-31
 G(d,p)
 ----------------------------------------------------------------------

 --
 TD
 --
 Symbolic Z-matrix:
 Charge =  0 Multiplicity = 1

                         Standard orientation:
 ---------------------------------------------------------------------
 Center     Atomic      Atomic             Coordinates (Angstroms)
 Number     Number       Type             X           Y           Z
 ---------------------------------------------------------------------
      1         12           0       -7.040665    0.603597    0.061357
      2          6           0       -4.872890   -1.938009    0.520552
      3          6           0       -4.772112    2.815049    1.299385
      4          6           0       -9.340636    3.106137   -0.504958
      5          6           0       -9.505866   -1.709509   -0.960418
      6          7           0       -5.070929    0.499017    0.759289
      7          6           0       -4.317950   -0.684913    0.811314
      8          6           0       -2.844058   -0.464965    1.384439
      9          6           0       -2.968205    1.003898    1.811112
     10          6           0       -4.350101    1.520595    1.223382
     11          6           0       -2.884608    1.353638    3.253956
     12          6           0       -1.892089   -0.683747    0.302419
     13          6           0       -0.491384   -0.457479    0.696888
     14          6           0        0.414210   -0.652670   -0.471002
     15          8           0        0.161684   -1.062789   -1.526505
     16          8           0        1.712906   -0.263645   -0.137064
     17          7           0       -7.083789    2.611984    0.501276
     18          6           0       -5.988328    3.311487    0.844095
     19          6           0       -6.294560    4.687428    0.778311
     20          6           0       -7.641311    4.786010    0.304991
     21          6           0       -8.117163    3.468173    0.153238
     22          6           0       -5.398960    5.697324    1.145520
     23          6           0       -8.426833    6.012256    0.187134
     24          6           0       -8.315824    7.189658    0.742063
     25          7           0       -9.074354    0.719545   -0.583870
     26          6           0       -9.854665    1.832972   -0.713369
     27          6           0      -11.117117    1.549327   -1.230083
     28          6           0      -11.221012    0.210689   -1.298785
     29          6           0       -9.822115   -0.332970   -1.026230
     30          6           0      -12.213952    2.596767   -1.525767
     31          6           0      -12.308298   -0.667793   -1.831448
     32          6           0      -12.066872   -1.069026   -3.336949
     33          7           0       -7.193600   -1.444407   -0.278616
     34          6           0       -8.262570   -2.290023   -0.571444
     35          6           0       -7.876482   -3.633626   -0.490695
     36          6           0       -6.496931   -3.603622   -0.208568
     37          6           0       -6.162477   -2.225776    0.157242
     38          6           0       -8.651309   -4.824566   -0.944733
     39          6           0       -5.400698   -4.414954    0.161046
     40          8           0       -5.282897   -5.549562    0.236694
     41          6           0       -4.268795   -3.351073    0.504244
     42          6           0       -3.640381   -3.709966    1.884179
     43          8           0       -3.870309   -3.188705    3.003849
     44          8           0       -2.766796   -4.734687    1.744768
     45          6           0       -2.194701   -5.314044    2.940806
     46          6           0        2.817669   -0.511496   -1.147583
     47          6           0        4.098052   -0.406106   -0.417149
     48          6           0        5.092692    0.316316   -0.922920
     49          6           0        5.014933    1.013751   -2.316021
     50          6           0        6.423288    0.434041   -0.172333
     51          6           0        7.621383   -0.124920   -0.966212
     52          6           0        8.916637    0.114753   -0.173659
     53          6           0       10.202351   -0.531820   -0.906902
     54          6           0        9.915923   -2.068949   -1.115644
     55          6           0       11.383272   -0.254185    0.019549
     56          6           0       12.664691   -0.563396   -0.625895
     57          6           0       13.863522   -0.007452    0.170228
     58          6           0       15.276233   -0.192273   -0.587550
     59          6           0       15.582289   -1.675111   -0.964333
     60          6           0       16.401097    0.366923    0.304730
     61          6           0       17.801693    0.498476   -0.365998
     62          6           0       18.763390    1.234703    0.608919
     63          6           0       20.243511    1.265744    0.232195
     64          6           0       20.419181    1.943994   -1.156265
     65          6           0       21.015167    2.042993    1.346253
     66          1           0       -3.896801    3.467070    1.676299
     67          1           0       -9.955365    3.937348   -0.672827
     68          1           0      -10.308621   -2.379769   -1.195302
     69          1           0       -2.703147   -1.015866    2.210452
     70          1           0       -2.069230    1.494288    1.338332
     71          1           0       -1.824660    0.782472    3.604596
     72          1           0       -2.865652    2.487830    3.412544
     73          1           0       -3.888446    0.994735    3.803947
     74          1           0       -1.985149   -1.655891   -0.220205
     75          1           0       -2.167842   -0.108784   -0.681640
     76          1           0       -0.399477    0.605354    1.152324
     77          1           0       -0.240939   -1.141162    1.406279
     78          1           0       -5.852864    6.840197    0.743459
     79          1           0       -5.401340    5.855035    2.360393
     80          1           0       -4.219561    5.542145    0.713347
     81          1           0       -9.222866    5.851087   -0.309967
     82          1           0       -9.022813    7.836993    0.348419
     83          1           0       -7.514486    7.334751    1.518756
     84          1           0      -12.068138    3.249018   -2.485329
     85          1           0      -13.288917    2.152405   -1.716643
     86          1           0      -12.403811    3.493639   -0.680884
     87          1           0      -12.516940   -1.557089   -1.195628
     88          1           0      -13.240592   -0.142423   -1.868508
     89          1           0      -13.039660   -1.603711   -3.850471
     90          1           0      -12.038879   -0.267650   -3.955140
     91          1           0      -11.265022   -1.857786   -3.446218
     92          1           0       -8.651106   -4.702405   -2.257337
     93          1           0       -8.137725   -5.705651   -0.487704
     94          1           0       -9.646178   -4.600223   -0.521010
     95          1           0       -3.377185   -3.422065   -0.370980
     96          1           0       -1.787697   -4.419377    3.570574
     97          1           0       -2.730809   -6.249164    3.388855
     98          1           0       -1.387625   -5.855529    2.419970
     99          1           0        2.700465   -1.423594   -1.383305
    100          1           0        2.671973    0.182349   -1.891285
    101          1           0        3.988951   -0.975662    0.531399
    102          1           0        3.943155    1.475311   -2.525898
    103          1           0        5.541971    2.007374   -2.070150
    104          1           0        5.426457    0.493702   -3.301081
    105          1           0        6.680112    1.506485    0.005085
    106          1           0        6.397847   -0.072294    0.948606
    107          1           0        7.123293   -1.096408   -1.247355
    108          1           0        7.902420    0.484362   -1.774333
    109          1           0        9.305202    1.367582   -0.279391
    110          1           0        8.821576   -0.219767    0.879189
    111          1           0       10.156571    0.012276   -1.781578
    112          1           0        8.997994   -2.072660   -1.893953
    113          1           0       10.918199   -2.376196   -1.670568
    114          1           0        9.354205   -2.576334   -0.163209
    115          1           0       11.267090    0.740817    0.192962
    116          1           0       11.232173   -0.926086    1.047876
    117          1           0       12.685440   -1.516508   -0.847932
    118          1           0       12.699315   -0.096387   -1.522062
    119          1           0       13.845900    1.132341    0.480908
    120          1           0       14.060575   -0.612350    1.115019
    121          1           0       15.337867    0.191290   -1.506837
    122          1           0       15.586917   -2.244303    0.112958
    123          1           0       14.958505   -2.135032   -1.636050
    124          1           0       16.675688   -1.656868   -1.293481
    125          1           0       16.193824    1.317717    0.635004
    126          1           0       16.443276   -0.363243    0.989412
    127          1           0       18.108669   -0.508096   -0.446920
    128          1           0       17.893594    0.943549   -1.460007
    129          1           0       18.255326    2.108195    0.663513
    130          1           0       18.693441    0.825495    1.549033
    131          1           0       20.649744    0.195113    0.099381
    132          1           0       19.894395    3.033264   -1.078135
    133          1           0       21.555426    2.006887   -1.317205
    134          1           0       19.941766    1.497355   -1.950849
    135          1           0       20.640369    1.589747    2.350304
    136          1           0       22.063349    1.878272    1.195761
    137          1           0       20.616897    3.039455    1.383980
 ---------------------------------------------------------------------

 SCF Done:  E(RCAM-B3LYP) =  -2933.42101171     A.U. after   16 cycles

 Excitation energies and oscillator strengths:

 Excited State   1:      Singlet-A      2.0457 eV  606.06 nm  f=0.2643  <S**2>=0.000
     240 -> 243       -0.24604
     241 -> 242        0.65876
 This state for optimization and/or second-order correction.
 Total Energy, E(TD-HF/TD-DFT) =  -2933.34583209
 Copying the excited state density for this state as the 1-particle RhoCI density.

 The electronic state is 1-A.
 Alpha  occ. eigenvalues --  -46.80588 -19.21743 -19.19260 -19.16938 -19.16191
 Alpha  occ. eigenvalues --  -19.16064 -14.38075 -14.35414 -14.34945 -14.34720
 Alpha  occ. eigenvalues --  -10.34409 -10.33624 -10.29557 -10.27901 -10.27089
 Alpha  occ. eigenvalues --  -10.25988 -10.25233 -10.25165 -10.25054 -10.24896
 Alpha  occ. eigenvalues --  -10.24811 -10.24751 -10.24497 -10.24449 -10.24448
 Alpha  occ. eigenvalues --  -10.24333 -10.24162 -10.24090 -10.24077 -10.23670
 Alpha  occ. eigenvalues --  -10.23508 -10.23478 -10.23309 -10.23263 -10.23228
 Alpha  occ. eigenvalues --  -10.22893 -10.22729 -10.22697 -10.22635 -10.22513
 Alpha  occ. eigenvalues --  -10.22473 -10.22253 -10.22249 -10.22024 -10.22024
 Alpha  occ. eigenvalues --  -10.22023 -10.21927 -10.21881 -10.21716 -10.21645
 Alpha  occ. eigenvalues --  -10.21272 -10.21213 -10.21200 -10.20799 -10.20739
 Alpha  occ. eigenvalues --  -10.20665 -10.20585 -10.20452 -10.20451 -10.20421
 Alpha  occ. eigenvalues --  -10.20285 -10.20162 -10.18845 -10.18596 -10.18519
 Alpha  occ. eigenvalues --   -3.08985  -1.83947  -1.83462  -1.83364  -1.12687
 Alpha  occ. eigenvalues --   -1.11634  -1.10379  -1.03213  -1.01837  -0.99223
 Alpha  occ. eigenvalues --   -0.98483  -0.98218  -0.97406  -0.87483  -0.86904
 Alpha  occ. eigenvalues --   -0.86075  -0.85397  -0.84548  -0.84424  -0.83783
 Alpha  occ. eigenvalues --   -0.83298  -0.82739  -0.82652  -0.82290  -0.81603
 Alpha  occ. eigenvalues --   -0.80840  -0.79809  -0.78425  -0.78131  -0.77840
 Alpha  occ. eigenvalues --   -0.76498  -0.76184  -0.76081  -0.74860  -0.73745
 Alpha  occ. eigenvalues --   -0.72992  -0.71167  -0.70609  -0.70448  -0.70195
 Alpha  occ. eigenvalues --   -0.70152  -0.69748  -0.69289  -0.68002  -0.67750
 Alpha  occ. eigenvalues --   -0.66972  -0.65743  -0.65445  -0.64684  -0.63779
 Alpha  occ. eigenvalues --   -0.63039  -0.61967  -0.61558  -0.60749  -0.60380
 Alpha  occ. eigenvalues --   -0.59509  -0.59211  -0.58476  -0.58455  -0.58175
 Alpha  occ. eigenvalues --   -0.57188  -0.56799  -0.56391  -0.56238  -0.55296
 Alpha  occ. eigenvalues --   -0.54745  -0.54182  -0.53748  -0.53324  -0.52375
 Alpha  occ. eigenvalues --   -0.52079  -0.51775  -0.51510  -0.51115  -0.51073
 Alpha  occ. eigenvalues --   -0.50796  -0.50432  -0.50314  -0.49733  -0.49339
 Alpha  occ. eigenvalues --   -0.49052  -0.48992  -0.48867  -0.48348  -0.47981
 Alpha  occ. eigenvalues --   -0.47682  -0.47274  -0.47017  -0.46695  -0.46664
 Alpha  occ. eigenvalues --   -0.46561  -0.46303  -0.46182  -0.46117  -0.45687
 Alpha  occ. eigenvalues --   -0.45488  -0.45327  -0.45074  -0.44899  -0.44660
 Alpha  occ. eigenvalues --   -0.44554  -0.44265  -0.43958  -0.43700  -0.43668
 Alpha  occ. eigenvalues --   -0.43195  -0.42938  -0.42590  -0.42505  -0.42190
 Alpha  occ. eigenvalues --   -0.42152  -0.41949  -0.41807  -0.41712  -0.41635
 Alpha  occ. eigenvalues --   -0.41426  -0.41281  -0.41129  -0.40771  -0.40438
 Alpha  occ. eigenvalues --   -0.40359  -0.40167  -0.40000  -0.39950  -0.39813
 Alpha  occ. eigenvalues --   -0.39743  -0.39357  -0.39160  -0.38972  -0.38870
 Alpha  occ. eigenvalues --   -0.38572  -0.38404  -0.38325  -0.38172  -0.38120
 Alpha  occ. eigenvalues --   -0.37824  -0.37668  -0.37328  -0.36958  -0.36827
 Alpha  occ. eigenvalues --   -0.36457  -0.36444  -0.36093  -0.35701  -0.35698
 Alpha  occ. eigenvalues --   -0.35602  -0.35397  -0.35198  -0.35187  -0.34828
 Alpha  occ. eigenvalues --   -0.34484  -0.34450  -0.33947  -0.33925  -0.33560
 Alpha  occ. eigenvalues --   -0.33319  -0.32953  -0.32719  -0.32535  -0.32337
 Alpha  occ. eigenvalues --   -0.32155  -0.31858  -0.31253  -0.30564  -0.30244
 Alpha  occ. eigenvalues --   -0.29796  -0.29700  -0.29274  -0.28990  -0.27476
 Alpha  occ. eigenvalues --   -0.27129  -0.26709  -0.26208  -0.24164  -0.21641
 Alpha  occ. eigenvalues --   -0.20530
 Alpha virt. eigenvalues --   -0.07622  -0.03838  -0.00242   0.02677   0.03411
 Alpha virt. eigenvalues --    0.03941   0.04440   0.05095   0.05584   0.05729
 Alpha virt. eigenvalues --    0.06348   0.07989   0.08422   0.08704   0.09764

 Mulliken charges:
               1
     1  Mg   0.803020
     2  C    0.113285
     3  C   -0.192001
     4  C   -0.153554
     5  C   -0.176408
     6  N   -0.642796
     7  C    0.243154
     8  C   -0.094445
     9  C   -0.146666
    10  C    0.359095
    11  C   -0.281502
    12  C   -0.190011
    13  C   -0.255637
    14  C    0.599154
    15  O   -0.433166
    16  O   -0.541449
    17  N   -0.728960
    18  C    0.349892
    19  C    0.088498
    20  C   -0.013017
    21  C    0.286253
    22  C   -0.409431
    23  C   -0.027549
    24  C   -0.234555
    25  N   -0.667011
    26  C    0.308657
    27  C    0.086685
    28  C    0.010818
    29  C    0.286510
    30  C   -0.383890
    31  C   -0.253855
    32  C   -0.301371
    33  N   -0.704198
    34  C    0.323931
    35  C   -0.011705
    36  C   -0.004248
    37  C    0.244607
    38  C   -0.341391
    39  C    0.377594
    40  O   -0.409667
    41  C   -0.348736
    42  C    0.610528
    43  O   -0.498449
    44  O   -0.436758
    45  C   -0.088352
    46  C    0.053258
    47  C   -0.113296
    48  C    0.101600
    49  C   -0.366747
    50  C   -0.222345
    51  C   -0.156062
    52  C   -0.186378
    53  C   -0.069299
    54  C   -0.293550
    55  C   -0.133171
    56  C   -0.164165
    57  C   -0.169686
    58  C   -0.076050
    59  C   -0.313452
    60  C   -0.163903
    61  C   -0.205686
    62  C   -0.162030
    63  C   -0.062325
    64  C   -0.290285
    65  C   -0.300666
    66  H    0.082733
    67  H    0.080333
    68  H    0.082292
    69  H    0.124077
    70  H    0.093270
    71  H    0.078315
    72  H    0.110356
    73  H    0.112544
    74  H    0.119079
    75  H    0.106077
    76  H    0.127128
    77  H    0.147126
    78  H    0.083395
    79  H    0.105627
    80  H    0.091985
    81  H    0.057643
    82  H    0.096789
    83  H    0.099775
    84  H    0.115338
    85  H    0.108117
    86  H    0.097197
    87  H    0.107207
    88  H    0.106248
    89  H    0.067184
    90  H    0.130174
    91  H    0.109761
    92  H    0.102405
    93  H    0.148678
    94  H    0.122487
    95  H    0.134317
    96  H    0.132133
    97  H    0.129533
    98  H    0.124679
    99  H    0.125456
   100  H    0.112277
   101  H    0.098850
   102  H    0.109660
   103  H    0.109502
   104  H    0.124435
   105  H    0.095142
   106  H    0.076033
   107  H    0.102748
   108  H    0.106244
   109  H    0.042529
   110  H    0.091418
   111  H    0.093210
   112  H    0.085450
   113  H    0.095736
   114  H    0.098955
   115  H    0.090688
   116  H    0.060508
   117  H    0.103523
   118  H    0.098418
   119  H    0.076001
   120  H    0.079957
   121  H    0.089729
   122  H    0.064111
   123  H    0.111485
   124  H    0.098063
   125  H    0.089108
   126  H    0.102497
   127  H    0.097390
   128  H    0.072126
   129  H    0.096989
   130  H    0.091437
   131  H    0.074377
   132  H    0.070308
   133  H    0.086282
   134  H    0.115340
   135  H    0.084528
   136  H    0.106701
   137  H    0.112120
 Sum of Mulliken charges =  -0.00000

 Dipole moment (field-independent basis, Debye):
    X=              1.2744    Y=              2.9048    Z=             -1.3380  Tot=              3.4427
 Quadrupole moment (field-independent basis, Debye-Ang):
   XX=           -349.1940   YY=           -399.5798   ZZ=           -398.1594
   XY=            -15.7759   XZ=             13.0754   YZ=             -3.4879

 Normal termination of Gaussian 16 at Sat Sep  7 13:12:01 2019.
