 Gaussian 16, Revision A.03,
 Gaussian 16:  ES64L-G16RevA.03 25-Dec-2016

 ----------------------------------------------------------------------
 # td=(NStates=1) iop(3/107=0140000000,3/108=0140000000) CAM-B3LYP/6-31
 G(d,p)
 ----------------------------------------------------------------------

 --
 TD
 --
 Symbolic Z-matrix:
 Charge =  0 Multiplicity = 1

                         Standard orientation:
 ---------------------------------------------------------------------
 Center     Atomic      Atomic             Coordinates (Angstroms)
 Number     Number       Type             X           Y           Z
 ---------------------------------------------------------------------
      1         12           0       -7.053526    0.537381    0.125113
      2          6           0       -4.800323   -1.973371    0.558600
      3          6           0       -4.730542    2.886386    1.030629
      4          6           0       -9.407249    3.118424   -0.440417
      5          6           0       -9.482887   -1.763985   -0.775221
      6          7           0       -5.006310    0.421394    0.860304
      7          6           0       -4.290232   -0.664373    0.842344
      8          6           0       -2.834075   -0.411401    1.266716
      9          6           0       -2.942043    1.070138    1.714679
     10          6           0       -4.280339    1.519666    1.039824
     11          6           0       -3.064513    1.137544    3.289226
     12          6           0       -1.838672   -0.630416    0.108055
     13          6           0       -0.404175   -0.524093    0.521422
     14          6           0        0.458760   -0.726249   -0.723587
     15          8           0        0.105076   -0.989131   -1.930001
     16          8           0        1.808356   -0.498020   -0.398756
     17          7           0       -7.077522    2.611678    0.218987
     18          6           0       -6.063046    3.374980    0.685737
     19          6           0       -6.414707    4.745407    0.732306
     20          6           0       -7.749470    4.813199    0.398676
     21          6           0       -8.163758    3.504037   -0.014881
     22          6           0       -5.548510    5.909364    1.136373
     23          6           0       -8.570312    6.044895    0.247487
     24          6           0       -8.297499    7.161445    0.885381
     25          7           0       -9.054743    0.613775   -0.531751
     26          6           0       -9.722614    1.705766   -0.675482
     27          6           0      -11.090461    1.499238   -1.079827
     28          6           0      -11.233439    0.086295   -1.077809
     29          6           0       -9.894793   -0.432891   -0.881901
     30          6           0      -12.175800    2.471168   -1.224539
     31          6           0      -12.345888   -0.735665   -1.694734
     32          6           0      -12.223796   -1.133384   -3.204846
     33          7           0       -7.148835   -1.365872   -0.025211
     34          6           0       -8.257893   -2.247274   -0.479131
     35          6           0       -7.778272   -3.570039   -0.430120
     36          6           0       -6.512424   -3.611030    0.075510
     37          6           0       -6.150807   -2.181403    0.138018
     38          6           0       -8.654084   -4.773163   -0.736230
     39          6           0       -5.282134   -4.400510    0.249954
     40          8           0       -5.167695   -5.580235    0.208122
     41          6           0       -4.184467   -3.283512    0.549494
     42          6           0       -3.546589   -3.680299    1.878884
     43          8           0       -3.728768   -3.061053    2.891671
     44          8           0       -2.643860   -4.622757    1.804389
     45          6           0       -2.063887   -5.155479    3.018283
     46          6           0        2.740770   -0.443549   -1.600697
     47          6           0        4.064910   -0.376255   -0.901127
     48          6           0        5.077779    0.419309   -1.178792
     49          6           0        5.054961    1.388647   -2.347872
     50          6           0        6.259772    0.470151   -0.324227
     51          6           0        7.589234   -0.092848   -1.203063
     52          6           0        8.971416   -0.067232   -0.289353
     53          6           0       10.272805   -0.462563   -0.992149
     54          6           0       10.081472   -1.916047   -1.522349
     55          6           0       11.414659   -0.331950   -0.013681
     56          6           0       12.761739   -0.623615   -0.686761
     57          6           0       13.925642   -0.107956    0.181682
     58          6           0       15.347566   -0.246747   -0.384533
     59          6           0       15.623252   -1.583913   -0.879704
     60          6           0       16.337751    0.107848    0.676572
     61          6           0       17.721688    0.561338    0.038401
     62          6           0       18.707626    1.153701    1.046303
     63          6           0       20.057490    1.350215    0.293351
     64          6           0       20.093001    2.216427   -0.886929
     65          6           0       20.990493    1.984757    1.410846
     66          1           0       -4.130041    3.564996    1.352602
     67          1           0      -10.172609    3.959728   -0.630694
     68          1           0      -10.121996   -2.757663   -1.091410
     69          1           0       -2.670499   -1.126549    2.063583
     70          1           0       -1.909194    1.563054    1.557479
     71          1           0       -2.192459    0.753889    3.868352
     72          1           0       -3.136985    2.159891    3.610750
     73          1           0       -4.091321    0.368669    3.436913
     74          1           0       -2.043345   -1.661289   -0.304178
     75          1           0       -2.023161   -0.036350   -0.855229
     76          1           0       -0.247609    0.517272    0.758467
     77          1           0       -0.114712   -1.147553    1.303043
     78          1           0       -5.546115    6.839928    0.329014
     79          1           0       -5.870989    6.159675    2.298238
     80          1           0       -4.483034    5.645271    1.363013
     81          1           0       -9.586662    5.743923   -0.382329
     82          1           0       -9.055586    8.039935    0.928464
     83          1           0       -7.503840    7.189973    1.569318
     84          1           0      -11.887145    3.102962   -2.244042
     85          1           0      -13.219025    2.215133   -1.611850
     86          1           0      -12.393015    3.124585   -0.423930
     87          1           0      -12.502188   -1.736424   -1.190143
     88          1           0      -13.311203   -0.109718   -1.554267
     89          1           0      -12.944723   -1.937851   -3.385392
     90          1           0      -12.039976   -0.389477   -4.061658
     91          1           0      -11.269554   -1.775721   -3.270471
     92          1           0       -8.864800   -5.058912   -1.770094
     93          1           0       -8.270529   -5.698949   -0.397374
     94          1           0       -9.485292   -4.803795   -0.143289
     95          1           0       -3.498964   -3.468285   -0.225161
     96          1           0       -1.470826   -4.530309    3.524780
     97          1           0       -2.892577   -5.554470    3.827697
     98          1           0       -1.492711   -6.098345    2.602114
     99          1           0        2.548883   -1.438191   -2.166994
    100          1           0        2.536727    0.330723   -2.446359
    101          1           0        4.211598   -1.152422   -0.139361
    102          1           0        4.045940    1.510954   -2.859048
    103          1           0        5.617925    2.366137   -2.104896
    104          1           0        5.790498    1.037072   -3.301685
    105          1           0        6.447172    1.429053    0.005821
    106          1           0        6.357354   -0.397942    0.397160
    107          1           0        7.286121   -1.139387   -1.665130
    108          1           0        7.714995    0.725255   -2.070919
    109          1           0        8.750415    0.936746    0.348055
    110          1           0        8.692249   -0.719526    0.275352
    111          1           0       10.587072    0.200492   -1.834229
    112          1           0        9.245791   -1.827348   -2.465734
    113          1           0       10.898559   -2.487462   -1.900060
    114          1           0        9.841394   -2.855536   -0.726310
    115          1           0       11.138840    0.709630    0.170397
    116          1           0       11.201422   -1.010190    0.831158
    117          1           0       12.874621   -1.697737   -0.911903
    118          1           0       12.900106   -0.049632   -1.588840
    119          1           0       13.800039    0.900447    0.570896
    120          1           0       14.055155   -0.738149    1.070333
    121          1           0       15.344533    0.322746   -1.421320
    122          1           0       15.767559   -2.249498   -0.134900
    123          1           0       14.917721   -2.158273   -1.376511
    124          1           0       16.495221   -1.623332   -1.515744
    125          1           0       15.890034    1.057928    1.270098
    126          1           0       16.431878   -0.522864    1.399189
    127          1           0       18.065734   -0.294218   -0.544863
    128          1           0       17.605647    1.339506   -0.807041
    129          1           0       18.364848    2.057816    1.527847
    130          1           0       18.858691    0.525202    1.892613
    131          1           0       20.438136    0.435768    0.020176
    132          1           0       19.641095    3.216127   -0.492264
    133          1           0       21.250648    2.195880   -1.292660
    134          1           0       19.504144    1.801312   -1.709824
    135          1           0       21.019612    1.470463    2.292773
    136          1           0       22.055058    2.149593    0.965563
    137          1           0       20.600026    2.884995    1.637051
 ---------------------------------------------------------------------

 SCF Done:  E(RCAM-B3LYP) =  -2933.45525829     A.U. after   16 cycles

 Excitation energies and oscillator strengths:

 Excited State   1:      Singlet-A      2.1711 eV  571.06 nm  f=0.1602  <S**2>=0.000
     240 -> 242        0.18778
     240 -> 243       -0.28593
     241 -> 242        0.60132
     241 -> 243        0.12062
 This state for optimization and/or second-order correction.
 Total Energy, E(TD-HF/TD-DFT) =  -2933.37547057
 Copying the excited state density for this state as the 1-particle RhoCI density.

 The electronic state is 1-A.
 Alpha  occ. eigenvalues --  -46.79987 -19.22326 -19.21756 -19.17039 -19.16679
 Alpha  occ. eigenvalues --  -19.15553 -14.37474 -14.35296 -14.34941 -14.34845
 Alpha  occ. eigenvalues --  -10.35210 -10.33756 -10.30672 -10.28509 -10.28344
 Alpha  occ. eigenvalues --  -10.27174 -10.26326 -10.25597 -10.24825 -10.24528
 Alpha  occ. eigenvalues --  -10.24319 -10.24319 -10.24225 -10.24106 -10.24051
 Alpha  occ. eigenvalues --  -10.23971 -10.23872 -10.23839 -10.23809 -10.23731
 Alpha  occ. eigenvalues --  -10.23612 -10.23204 -10.23160 -10.22896 -10.22819
 Alpha  occ. eigenvalues --  -10.22772 -10.22627 -10.22579 -10.22559 -10.22441
 Alpha  occ. eigenvalues --  -10.22312 -10.22278 -10.22213 -10.21881 -10.21878
 Alpha  occ. eigenvalues --  -10.21718 -10.21528 -10.21518 -10.21368 -10.21321
 Alpha  occ. eigenvalues --  -10.21163 -10.21106 -10.21099 -10.21039 -10.20923
 Alpha  occ. eigenvalues --  -10.20894 -10.20663 -10.20521 -10.20294 -10.20290
 Alpha  occ. eigenvalues --  -10.20231 -10.20086 -10.19849 -10.18594 -10.17558
 Alpha  occ. eigenvalues --   -3.08640  -1.83574  -1.83096  -1.83069  -1.14345
 Alpha  occ. eigenvalues --   -1.09058  -1.08131  -1.04272  -1.01094  -1.00822
 Alpha  occ. eigenvalues --   -0.99306  -0.98061  -0.97610  -0.87351  -0.86371
 Alpha  occ. eigenvalues --   -0.85889  -0.85115  -0.84864  -0.84129  -0.83989
 Alpha  occ. eigenvalues --   -0.83845  -0.82870  -0.82355  -0.81843  -0.80626
 Alpha  occ. eigenvalues --   -0.79455  -0.79118  -0.78463  -0.77536  -0.77312
 Alpha  occ. eigenvalues --   -0.76879  -0.76325  -0.75557  -0.74192  -0.73627
 Alpha  occ. eigenvalues --   -0.72891  -0.72084  -0.71708  -0.71460  -0.71113
 Alpha  occ. eigenvalues --   -0.70698  -0.70513  -0.69968  -0.68127  -0.67743
 Alpha  occ. eigenvalues --   -0.67133  -0.65714  -0.64847  -0.64578  -0.63762
 Alpha  occ. eigenvalues --   -0.62191  -0.62014  -0.60954  -0.60670  -0.60452
 Alpha  occ. eigenvalues --   -0.59613  -0.59353  -0.58951  -0.58605  -0.58415
 Alpha  occ. eigenvalues --   -0.58206  -0.56240  -0.56003  -0.55403  -0.55211
 Alpha  occ. eigenvalues --   -0.54512  -0.54387  -0.54041  -0.53358  -0.52383
 Alpha  occ. eigenvalues --   -0.51833  -0.51612  -0.51262  -0.51191  -0.50413
 Alpha  occ. eigenvalues --   -0.50254  -0.50090  -0.49945  -0.49757  -0.49462
 Alpha  occ. eigenvalues --   -0.49082  -0.48334  -0.48233  -0.47844  -0.47710
 Alpha  occ. eigenvalues --   -0.47594  -0.47546  -0.47155  -0.46880  -0.46668
 Alpha  occ. eigenvalues --   -0.46493  -0.46135  -0.45977  -0.45831  -0.45797
 Alpha  occ. eigenvalues --   -0.45602  -0.45440  -0.45189  -0.44937  -0.44646
 Alpha  occ. eigenvalues --   -0.44549  -0.44255  -0.44084  -0.43592  -0.43208
 Alpha  occ. eigenvalues --   -0.43196  -0.42623  -0.42458  -0.42321  -0.42150
 Alpha  occ. eigenvalues --   -0.42001  -0.41803  -0.41767  -0.41601  -0.41420
 Alpha  occ. eigenvalues --   -0.41313  -0.41152  -0.41012  -0.40927  -0.40721
 Alpha  occ. eigenvalues --   -0.40615  -0.40202  -0.40108  -0.40073  -0.39900
 Alpha  occ. eigenvalues --   -0.39715  -0.39470  -0.39273  -0.38903  -0.38489
 Alpha  occ. eigenvalues --   -0.38390  -0.38323  -0.38283  -0.37841  -0.37736
 Alpha  occ. eigenvalues --   -0.37678  -0.37336  -0.37202  -0.36974  -0.36863
 Alpha  occ. eigenvalues --   -0.36704  -0.36310  -0.36085  -0.35826  -0.35733
 Alpha  occ. eigenvalues --   -0.35159  -0.35093  -0.34968  -0.34917  -0.34630
 Alpha  occ. eigenvalues --   -0.34550  -0.34250  -0.34031  -0.33954  -0.33693
 Alpha  occ. eigenvalues --   -0.33646  -0.33330  -0.33141  -0.32805  -0.32548
 Alpha  occ. eigenvalues --   -0.32101  -0.31855  -0.31621  -0.30352  -0.30160
 Alpha  occ. eigenvalues --   -0.29979  -0.29538  -0.29189  -0.28539  -0.27294
 Alpha  occ. eigenvalues --   -0.26873  -0.26290  -0.25341  -0.24920  -0.21344
 Alpha  occ. eigenvalues --   -0.20313
 Alpha virt. eigenvalues --   -0.06507  -0.04181   0.00082   0.02265   0.03087
 Alpha virt. eigenvalues --    0.04076   0.04713   0.05008   0.05154   0.05785
 Alpha virt. eigenvalues --    0.06623   0.08965   0.09398   0.09589   0.09749

 Mulliken charges:
               1
     1  Mg   0.816587
     2  C    0.119579
     3  C   -0.153334
     4  C   -0.169364
     5  C   -0.186963
     6  N   -0.610507
     7  C    0.327724
     8  C   -0.150681
     9  C   -0.157004
    10  C    0.323487
    11  C   -0.286792
    12  C   -0.187676
    13  C   -0.244611
    14  C    0.602136
    15  O   -0.495102
    16  O   -0.492070
    17  N   -0.717182
    18  C    0.332619
    19  C    0.044142
    20  C    0.005706
    21  C    0.299391
    22  C   -0.386584
    23  C   -0.027900
    24  C   -0.260551
    25  N   -0.682613
    26  C    0.354675
    27  C    0.038689
    28  C    0.005238
    29  C    0.258432
    30  C   -0.392789
    31  C   -0.223891
    32  C   -0.308686
    33  N   -0.757681
    34  C    0.290013
    35  C    0.000672
    36  C    0.029356
    37  C    0.280799
    38  C   -0.406386
    39  C    0.360332
    40  O   -0.432083
    41  C   -0.369530
    42  C    0.609007
    43  O   -0.472153
    44  O   -0.425891
    45  C   -0.084361
    46  C    0.001948
    47  C   -0.127098
    48  C    0.188467
    49  C   -0.362264
    50  C   -0.248933
    51  C   -0.217885
    52  C   -0.145755
    53  C   -0.064155
    54  C   -0.304205
    55  C   -0.152855
    56  C   -0.184943
    57  C   -0.172857
    58  C   -0.049884
    59  C   -0.312176
    60  C   -0.161329
    61  C   -0.185620
    62  C   -0.170667
    63  C   -0.059916
    64  C   -0.279284
    65  C   -0.310713
    66  H    0.041535
    67  H    0.100883
    68  H    0.089924
    69  H    0.130365
    70  H    0.081898
    71  H    0.108024
    72  H    0.110016
    73  H    0.095292
    74  H    0.110463
    75  H    0.120970
    76  H    0.146156
    77  H    0.145758
    78  H    0.122078
    79  H    0.107334
    80  H    0.111735
    81  H    0.068433
    82  H    0.096380
    83  H    0.110917
    84  H    0.088288
    85  H    0.114410
    86  H    0.132293
    87  H    0.096688
    88  H    0.087004
    89  H    0.107752
    90  H    0.108936
    91  H    0.093250
    92  H    0.127727
    93  H    0.139823
    94  H    0.133747
    95  H    0.161306
    96  H    0.144254
    97  H    0.113405
    98  H    0.121634
    99  H    0.127998
   100  H    0.117813
   101  H    0.089857
   102  H    0.107387
   103  H    0.106079
   104  H    0.095587
   105  H    0.112474
   106  H    0.104444
   107  H    0.095133
   108  H    0.070046
   109  H    0.070351
   110  H    0.115772
   111  H    0.089697
   112  H    0.078762
   113  H    0.112562
   114  H    0.065109
   115  H    0.096726
   116  H    0.089341
   117  H    0.098527
   118  H    0.094773
   119  H    0.091451
   120  H    0.076590
   121  H    0.059276
   122  H    0.098938
   123  H    0.097209
   124  H    0.099081
   125  H    0.054435
   126  H    0.105177
   127  H    0.094166
   128  H    0.087117
   129  H    0.090670
   130  H    0.093854
   131  H    0.093850
   132  H    0.089235
   133  H    0.079123
   134  H    0.103029
   135  H    0.102006
   136  H    0.073385
   137  H    0.108219
 Sum of Mulliken charges =  -0.00000

 Dipole moment (field-independent basis, Debye):
    X=              2.4794    Y=              2.8363    Z=              1.1797  Tot=              3.9476
 Quadrupole moment (field-independent basis, Debye-Ang):
   XX=           -360.4106   YY=           -387.3623   ZZ=           -397.2719
   XY=            -27.1953   XZ=              9.3997   YZ=             -0.2245

 Normal termination of Gaussian 16 at Fri Sep 13 08:28:21 2019.
