 Gaussian 16, Revision A.03,
 Gaussian 16:  ES64L-G16RevA.03 25-Dec-2016

 ----------------------------------------------------------------------
 # td=(NStates=1) iop(3/107=0140000000,3/108=0140000000) CAM-B3LYP/6-31
 G(d,p)
 ----------------------------------------------------------------------

 --
 TD
 --
 Symbolic Z-matrix:
 Charge =  0 Multiplicity = 1

                         Standard orientation:
 ---------------------------------------------------------------------
 Center     Atomic      Atomic             Coordinates (Angstroms)
 Number     Number       Type             X           Y           Z
 ---------------------------------------------------------------------
      1         12           0       -7.156203    0.623542    0.212798
      2          6           0       -4.866103   -1.977858    0.468790
      3          6           0       -4.701574    2.806632    1.212598
      4          6           0       -9.338320    3.081553   -0.331690
      5          6           0       -9.496722   -1.793134   -0.861004
      6          7           0       -5.093148    0.387377    0.932056
      7          6           0       -4.349658   -0.701218    0.886187
      8          6           0       -2.891242   -0.439509    1.159422
      9          6           0       -2.937639    1.031857    1.654417
     10          6           0       -4.320186    1.474326    1.212695
     11          6           0       -3.008249    1.064051    3.244418
     12          6           0       -1.881370   -0.568529    0.022633
     13          6           0       -0.540118   -0.375542    0.364194
     14          6           0        0.528029   -0.573271   -0.727981
     15          8           0        0.124273   -0.778910   -1.926303
     16          8           0        1.726482   -0.398178   -0.289637
     17          7           0       -7.091185    2.603011    0.362502
     18          6           0       -5.986346    3.372750    0.715118
     19          6           0       -6.312106    4.776286    0.739235
     20          6           0       -7.617028    4.789957    0.318880
     21          6           0       -8.119618    3.501243    0.033352
     22          6           0       -5.485711    5.913810    1.216248
     23          6           0       -8.491436    5.955917    0.201885
     24          6           0       -8.361581    7.236249    0.715103
     25          7           0       -9.045680    0.566237   -0.512208
     26          6           0       -9.759193    1.775823   -0.636429
     27          6           0      -11.104159    1.436138   -1.139931
     28          6           0      -11.262997    0.056802   -1.334512
     29          6           0       -9.832770   -0.416561   -0.899643
     30          6           0      -12.131790    2.514240   -1.284270
     31          6           0      -12.381028   -0.780542   -1.802828
     32          6           0      -12.153263   -1.106131   -3.309865
     33          7           0       -7.239468   -1.396786    0.003320
     34          6           0       -8.228676   -2.170975   -0.498603
     35          6           0       -7.827124   -3.543801   -0.583610
     36          6           0       -6.451015   -3.645170   -0.163297
     37          6           0       -6.218871   -2.217409    0.195243
     38          6           0       -8.738644   -4.702701   -0.871112
     39          6           0       -5.358241   -4.413261    0.077532
     40          8           0       -5.142266   -5.651757    0.049145
     41          6           0       -4.216855   -3.346738    0.592967
     42          6           0       -3.669265   -3.760475    1.962330
     43          8           0       -3.798504   -3.258551    3.031203
     44          8           0       -2.836008   -4.777134    1.750861
     45          6           0       -2.164845   -5.116347    2.929214
     46          6           0        2.847044   -0.520902   -1.157902
     47          6           0        4.199740   -0.331417   -0.542359
     48          6           0        5.177569    0.529045   -0.994907
     49          6           0        5.091262    1.457628   -2.258461
     50          6           0        6.441305    0.639688   -0.250881
     51          6           0        7.543013    0.010406   -1.042638
     52          6           0        8.805005   -0.102972   -0.213625
     53          6           0       10.091675   -0.563125   -0.918619
     54          6           0       10.034232   -2.004573   -1.390348
     55          6           0       11.330979   -0.256540   -0.024450
     56          6           0       12.693746   -0.524346   -0.723552
     57          6           0       13.908758   -0.020786    0.207063
     58          6           0       15.258543   -0.212899   -0.354029
     59          6           0       15.533273   -1.702301   -0.788021
     60          6           0       16.391507    0.276215    0.495579
     61          6           0       17.843960    0.418631   -0.108418
     62          6           0       18.812799    1.113145    0.756079
     63          6           0       20.297538    1.244530    0.250274
     64          6           0       20.251896    1.968538   -1.109850
     65          6           0       21.163874    1.945477    1.289276
     66          1           0       -4.017928    3.566216    1.678457
     67          1           0      -10.347644    3.754196   -0.806684
     68          1           0      -10.014364   -2.553330   -1.063996
     69          1           0       -2.504361   -1.132696    1.902663
     70          1           0       -2.257313    1.754180    1.240391
     71          1           0       -2.015398    0.647238    3.684468
     72          1           0       -3.504300    1.869958    3.572138
     73          1           0       -3.718657    0.295918    3.689667
     74          1           0       -1.976936   -1.671263   -0.401218
     75          1           0       -2.168627    0.176547   -0.721964
     76          1           0       -0.123125    0.565590    0.777323
     77          1           0       -0.254174   -1.072878    1.037142
     78          1           0       -5.487463    7.074432    0.750129
     79          1           0       -5.715115    6.081014    2.292476
     80          1           0       -4.298695    5.783030    0.882662
     81          1           0       -9.481663    5.624079   -0.144249
     82          1           0       -8.853965    8.170912    0.232957
     83          1           0       -7.347520    7.379352    1.205926
     84          1           0      -11.933329    3.283479   -1.990935
     85          1           0      -13.176053    2.111907   -1.501140
     86          1           0      -12.199294    2.878219   -0.234700
     87          1           0      -12.347225   -1.810869   -1.310561
     88          1           0      -13.358433   -0.277444   -1.555170
     89          1           0      -12.989270   -1.861882   -3.486322
     90          1           0      -12.236715   -0.166775   -3.595275
     91          1           0      -11.191257   -1.469622   -3.175878
     92          1           0       -9.028475   -4.602517   -1.873428
     93          1           0       -8.177187   -5.619674   -0.825774
     94          1           0       -9.709274   -4.560484   -0.105252
     95          1           0       -3.270623   -3.247440   -0.120498
     96          1           0       -1.367226   -4.386957    3.118882
     97          1           0       -2.826458   -5.219250    3.701079
     98          1           0       -1.653991   -5.973038    2.581081
     99          1           0        2.903842   -1.561569   -1.566048
    100          1           0        2.520106    0.019489   -2.150551
    101          1           0        4.118899   -0.950564    0.292266
    102          1           0        4.149058    1.250793   -2.597935
    103          1           0        5.266047    2.465137   -1.744942
    104          1           0        5.845676    0.983526   -2.892913
    105          1           0        6.661050    1.590194    0.061845
    106          1           0        6.223814   -0.252183    0.558920
    107          1           0        7.166045   -1.111687   -1.420115
    108          1           0        7.685675    0.448736   -2.017687
    109          1           0        8.910752    0.798657    0.150833
    110          1           0        8.661748   -0.674536    0.647553
    111          1           0       10.240269    0.042898   -1.734108
    112          1           0        9.263715   -2.321913   -2.076624
    113          1           0       10.888382   -2.149162   -1.909506
    114          1           0        9.863623   -2.551443   -0.499754
    115          1           0       11.200237    0.900565    0.431620
    116          1           0       11.268530   -0.836986    0.990706
    117          1           0       12.819936   -1.521922   -0.996064
    118          1           0       12.598731   -0.067729   -1.580402
    119          1           0       13.737006    0.959623    0.401816
    120          1           0       13.995286   -0.711924    1.180511
    121          1           0       15.496656    0.411579   -1.178896
    122          1           0       15.518972   -2.418698    0.138095
    123          1           0       14.769743   -1.940709   -1.612165
    124          1           0       16.435864   -1.840500   -1.124382
    125          1           0       16.225651    1.146771    0.974736
    126          1           0       16.278157   -0.350109    1.312976
    127          1           0       18.462404   -0.529971   -0.352536
    128          1           0       17.884785    0.839512   -1.111512
    129          1           0       18.147218    2.009676    1.106729
    130          1           0       18.798535    0.735687    1.767753
    131          1           0       20.629562    0.173116    0.164918
    132          1           0       19.898066    3.062860   -0.797351
    133          1           0       21.219622    2.119280   -1.501309
    134          1           0       19.739600    1.356430   -1.837670
    135          1           0       21.152071    1.687103    2.384255
    136          1           0       22.254794    1.689660    1.031009
    137          1           0       20.968875    3.013603    1.108724
 ---------------------------------------------------------------------

 SCF Done:  E(RCAM-B3LYP) =  -2933.43131725     A.U. after   16 cycles

 Excitation energies and oscillator strengths:

 Excited State   1:      Singlet-A      1.9511 eV  635.47 nm  f=0.2915  <S**2>=0.000
     240 -> 243        0.23240
     241 -> 242        0.66501
 This state for optimization and/or second-order correction.
 Total Energy, E(TD-HF/TD-DFT) =  -2933.35961715
 Copying the excited state density for this state as the 1-particle RhoCI density.

 The electronic state is 1-A.
 Alpha  occ. eigenvalues --  -46.80327 -19.24225 -19.20874 -19.16281 -19.15345
 Alpha  occ. eigenvalues --  -19.15280 -14.37772 -14.35976 -14.35822 -14.35462
 Alpha  occ. eigenvalues --  -10.34633 -10.33436 -10.29907 -10.28626 -10.26832
 Alpha  occ. eigenvalues --  -10.26361 -10.25961 -10.25786 -10.25109 -10.25003
 Alpha  occ. eigenvalues --  -10.24894 -10.24872 -10.24656 -10.24534 -10.24529
 Alpha  occ. eigenvalues --  -10.24473 -10.24118 -10.24076 -10.23142 -10.22932
 Alpha  occ. eigenvalues --  -10.22918 -10.22871 -10.22834 -10.22743 -10.22689
 Alpha  occ. eigenvalues --  -10.22665 -10.22606 -10.22600 -10.22422 -10.22304
 Alpha  occ. eigenvalues --  -10.22255 -10.22235 -10.22143 -10.22131 -10.22119
 Alpha  occ. eigenvalues --  -10.22084 -10.22022 -10.21965 -10.21638 -10.21574
 Alpha  occ. eigenvalues --  -10.21427 -10.21336 -10.21158 -10.21121 -10.20990
 Alpha  occ. eigenvalues --  -10.20973 -10.20794 -10.20284 -10.20249 -10.19968
 Alpha  occ. eigenvalues --  -10.19882 -10.19863 -10.19094 -10.18891 -10.18712
 Alpha  occ. eigenvalues --   -3.08992  -1.83927  -1.83479  -1.83393  -1.15489
 Alpha  occ. eigenvalues --   -1.14540  -1.05006  -1.03052  -1.01334  -1.00628
 Alpha  occ. eigenvalues --   -0.99794  -0.98319  -0.97406  -0.87364  -0.87239
 Alpha  occ. eigenvalues --   -0.86539  -0.85910  -0.84799  -0.84536  -0.84308
 Alpha  occ. eigenvalues --   -0.83648  -0.83530  -0.83292  -0.82724  -0.82030
 Alpha  occ. eigenvalues --   -0.80683  -0.79804  -0.79486  -0.78774  -0.77638
 Alpha  occ. eigenvalues --   -0.77412  -0.76904  -0.76030  -0.75485  -0.74059
 Alpha  occ. eigenvalues --   -0.73099  -0.72839  -0.72303  -0.71190  -0.71077
 Alpha  occ. eigenvalues --   -0.71033  -0.70627  -0.70555  -0.69871  -0.68380
 Alpha  occ. eigenvalues --   -0.67720  -0.66668  -0.65260  -0.65015  -0.64419
 Alpha  occ. eigenvalues --   -0.62969  -0.62471  -0.62019  -0.61379  -0.60980
 Alpha  occ. eigenvalues --   -0.60651  -0.60104  -0.59766  -0.59347  -0.58121
 Alpha  occ. eigenvalues --   -0.58065  -0.57537  -0.56629  -0.55892  -0.55322
 Alpha  occ. eigenvalues --   -0.54894  -0.54441  -0.54034  -0.53399  -0.52531
 Alpha  occ. eigenvalues --   -0.52215  -0.52118  -0.51934  -0.51652  -0.51476
 Alpha  occ. eigenvalues --   -0.51139  -0.50471  -0.50114  -0.50013  -0.49889
 Alpha  occ. eigenvalues --   -0.49805  -0.49636  -0.48775  -0.48644  -0.48528
 Alpha  occ. eigenvalues --   -0.48349  -0.48012  -0.47629  -0.47580  -0.47415
 Alpha  occ. eigenvalues --   -0.47077  -0.46990  -0.46820  -0.46604  -0.46398
 Alpha  occ. eigenvalues --   -0.46306  -0.46224  -0.45914  -0.45671  -0.44746
 Alpha  occ. eigenvalues --   -0.44636  -0.44275  -0.44104  -0.43860  -0.43647
 Alpha  occ. eigenvalues --   -0.43481  -0.43273  -0.43156  -0.42919  -0.42827
 Alpha  occ. eigenvalues --   -0.42743  -0.42712  -0.42468  -0.42277  -0.42080
 Alpha  occ. eigenvalues --   -0.41939  -0.41400  -0.41313  -0.41179  -0.40906
 Alpha  occ. eigenvalues --   -0.40583  -0.40350  -0.40024  -0.39899  -0.39722
 Alpha  occ. eigenvalues --   -0.39645  -0.39431  -0.39291  -0.39198  -0.39079
 Alpha  occ. eigenvalues --   -0.39044  -0.38353  -0.38337  -0.38197  -0.38133
 Alpha  occ. eigenvalues --   -0.37912  -0.37761  -0.37592  -0.37354  -0.37303
 Alpha  occ. eigenvalues --   -0.37141  -0.36669  -0.36501  -0.36158  -0.35985
 Alpha  occ. eigenvalues --   -0.35710  -0.35449  -0.35237  -0.35055  -0.34778
 Alpha  occ. eigenvalues --   -0.34457  -0.33880  -0.33792  -0.33757  -0.33600
 Alpha  occ. eigenvalues --   -0.33391  -0.33320  -0.32851  -0.32722  -0.32449
 Alpha  occ. eigenvalues --   -0.32399  -0.31840  -0.31283  -0.30757  -0.30713
 Alpha  occ. eigenvalues --   -0.30496  -0.29602  -0.28418  -0.28084  -0.27311
 Alpha  occ. eigenvalues --   -0.26877  -0.26347  -0.25947  -0.24587  -0.21776
 Alpha  occ. eigenvalues --   -0.20102
 Alpha virt. eigenvalues --   -0.07698  -0.04113  -0.01120   0.01971   0.03513
 Alpha virt. eigenvalues --    0.04351   0.04388   0.04793   0.05013   0.05433
 Alpha virt. eigenvalues --    0.06224   0.08451   0.08604   0.09210   0.09834

 Mulliken charges:
               1
     1  Mg   0.827487
     2  C    0.024704
     3  C   -0.199243
     4  C   -0.177941
     5  C   -0.084146
     6  N   -0.609555
     7  C    0.346898
     8  C   -0.154802
     9  C   -0.138429
    10  C    0.316126
    11  C   -0.315751
    12  C   -0.157502
    13  C   -0.236050
    14  C    0.580050
    15  O   -0.513690
    16  O   -0.419920
    17  N   -0.726989
    18  C    0.276096
    19  C    0.067339
    20  C    0.010819
    21  C    0.332745
    22  C   -0.396622
    23  C   -0.058647
    24  C   -0.268478
    25  N   -0.688895
    26  C    0.302779
    27  C    0.001062
    28  C    0.058008
    29  C    0.265068
    30  C   -0.410498
    31  C   -0.293296
    32  C   -0.275914
    33  N   -0.702071
    34  C    0.309783
    35  C   -0.022512
    36  C    0.137366
    37  C    0.265332
    38  C   -0.365382
    39  C    0.280803
    40  O   -0.488384
    41  C   -0.319943
    42  C    0.606308
    43  O   -0.471522
    44  O   -0.414695
    45  C   -0.081902
    46  C   -0.022447
    47  C   -0.123484
    48  C    0.069446
    49  C   -0.328958
    50  C   -0.203200
    51  C   -0.181618
    52  C   -0.152944
    53  C   -0.076368
    54  C   -0.301900
    55  C   -0.172099
    56  C   -0.187530
    57  C   -0.147333
    58  C   -0.076612
    59  C   -0.300159
    60  C   -0.175207
    61  C   -0.176394
    62  C   -0.162556
    63  C   -0.068336
    64  C   -0.299641
    65  C   -0.304499
    66  H    0.087746
    67  H    0.091298
    68  H    0.031333
    69  H    0.108935
    70  H    0.105520
    71  H    0.100944
    72  H    0.119836
    73  H    0.122795
    74  H    0.099966
    75  H    0.113118
    76  H    0.125759
    77  H    0.128276
    78  H    0.110697
    79  H    0.142602
    80  H    0.093355
    81  H    0.074871
    82  H    0.105315
    83  H    0.079777
    84  H    0.136716
    85  H    0.103222
    86  H    0.136447
    87  H    0.100601
    88  H    0.102011
    89  H    0.101271
    90  H    0.125915
    91  H    0.117750
    92  H    0.138573
    93  H    0.151016
    94  H    0.110333
    95  H    0.135828
    96  H    0.104114
    97  H    0.140550
    98  H    0.120787
    99  H    0.124887
   100  H    0.117317
   101  H    0.097656
   102  H    0.121459
   103  H    0.119917
   104  H    0.133362
   105  H    0.108468
   106  H    0.089410
   107  H    0.060646
   108  H    0.095298
   109  H    0.092584
   110  H    0.093002
   111  H    0.085999
   112  H    0.099943
   113  H    0.106147
   114  H    0.105668
   115  H    0.053957
   116  H    0.072293
   117  H    0.112053
   118  H    0.104133
   119  H    0.098351
   120  H    0.068184
   121  H    0.082489
   122  H    0.078795
   123  H    0.088655
   124  H    0.116311
   125  H    0.089685
   126  H    0.087851
   127  H    0.067170
   128  H    0.095552
   129  H    0.057118
   130  H    0.089461
   131  H    0.086128
   132  H    0.092764
   133  H    0.105662
   134  H    0.113267
   135  H    0.105325
   136  H    0.089212
   137  H    0.102395
 Sum of Mulliken charges =  -0.00000

 Dipole moment (field-independent basis, Debye):
    X=              2.9724    Y=              4.2567    Z=              0.1796  Tot=              5.1949
 Quadrupole moment (field-independent basis, Debye-Ang):
   XX=           -317.0573   YY=           -407.8695   ZZ=           -402.5410
   XY=             -8.1001   XZ=              7.4054   YZ=             -1.7479

 Normal termination of Gaussian 16 at Wed Sep 18 02:52:04 2019.
