 Gaussian 16, Revision A.03,
 Gaussian 16:  ES64L-G16RevA.03 25-Dec-2016

 ----------------------------------------------------------------------
 # td=(NStates=1) iop(3/107=0140000000,3/108=0140000000) CAM-B3LYP/6-31
 G(d,p)
 ----------------------------------------------------------------------

 --
 TD
 --
 Symbolic Z-matrix:
 Charge =  0 Multiplicity = 1

                         Standard orientation:
 ---------------------------------------------------------------------
 Center     Atomic      Atomic             Coordinates (Angstroms)
 Number     Number       Type             X           Y           Z
 ---------------------------------------------------------------------
      1         12           0       -7.152470    0.649969    0.140751
      2          6           0       -4.804832   -2.026074    0.431910
      3          6           0       -4.756947    2.801233    1.181889
      4          6           0       -9.421440    3.088379   -0.346328
      5          6           0       -9.460815   -1.711094   -1.066748
      6          7           0       -5.159305    0.325136    0.711384
      7          6           0       -4.362330   -0.754814    0.768926
      8          6           0       -2.942272   -0.351424    1.302997
      9          6           0       -3.107717    0.968828    1.818312
     10          6           0       -4.403694    1.468875    1.159217
     11          6           0       -3.250556    1.097907    3.380278
     12          6           0       -2.012406   -0.633372    0.194547
     13          6           0       -0.488162   -0.481693    0.624748
     14          6           0        0.456812   -0.655918   -0.580896
     15          8           0        0.250957   -1.061727   -1.682091
     16          8           0        1.848788   -0.458555   -0.233758
     17          7           0       -7.073144    2.579266    0.364534
     18          6           0       -6.021463    3.295126    0.788648
     19          6           0       -6.313117    4.711075    0.871144
     20          6           0       -7.627946    4.858010    0.379079
     21          6           0       -8.041476    3.474113    0.134891
     22          6           0       -5.401228    5.737524    1.295395
     23          6           0       -8.462368    6.046480    0.248683
     24          6           0       -8.243357    7.300210    0.742147
     25          7           0       -9.095015    0.697599   -0.433459
     26          6           0       -9.859014    1.822424   -0.673242
     27          6           0      -11.100218    1.561276   -1.267679
     28          6           0      -11.113867    0.150568   -1.291125
     29          6           0       -9.936975   -0.315077   -0.933166
     30          6           0      -12.278827    2.470774   -1.435043
     31          6           0      -12.356348   -0.703202   -1.791320
     32          6           0      -12.240421   -0.881157   -3.365429
     33          7           0       -7.231999   -1.393755   -0.217808
     34          6           0       -8.232250   -2.293259   -0.593635
     35          6           0       -7.836882   -3.642353   -0.477957
     36          6           0       -6.470283   -3.557193   -0.086092
     37          6           0       -6.167041   -2.269741    0.048203
     38          6           0       -8.511639   -4.868998   -0.905367
     39          6           0       -5.365676   -4.416907    0.194326
     40          8           0       -5.250202   -5.639177    0.323714
     41          6           0       -4.206616   -3.399358    0.490603
     42          6           0       -3.510532   -3.787340    1.778296
     43          8           0       -3.676075   -3.213350    2.878279
     44          8           0       -2.714456   -4.789118    1.644394
     45          6           0       -2.199150   -5.371709    2.882131
     46          6           0        2.808356   -0.658981   -1.263401
     47          6           0        4.100864   -0.400862   -0.561714
     48          6           0        5.099693    0.456657   -0.937495
     49          6           0        5.000288    1.440602   -1.998222
     50          6           0        6.343708    0.433658   -0.159414
     51          6           0        7.644051   -0.011991   -0.997267
     52          6           0        8.877692    0.055617   -0.089293
     53          6           0       10.124639   -0.379721   -0.851848
     54          6           0       10.137995   -1.841063   -1.375356
     55          6           0       11.467707   -0.096747   -0.044377
     56          6           0       12.811309   -0.347958   -0.751532
     57          6           0       13.967445    0.016529    0.114792
     58          6           0       15.302629   -0.220099   -0.470137
     59          6           0       15.662741   -1.670871   -0.801472
     60          6           0       16.382631    0.284699    0.545197
     61          6           0       17.788159    0.338086   -0.081793
     62          6           0       18.765766    1.146997    0.804934
     63          6           0       20.169490    1.240785    0.108381
     64          6           0       20.206645    2.155180   -1.105954
     65          6           0       21.170215    1.805374    1.202165
     66          1           0       -4.024092    3.473273    1.532161
     67          1           0      -10.194442    3.902690   -0.506246
     68          1           0      -10.139505   -2.435895   -1.364166
     69          1           0       -2.657656   -1.159769    2.113498
     70          1           0       -2.336459    1.861445    1.234027
     71          1           0       -2.422474    0.747764    3.805091
     72          1           0       -3.466656    2.218851    3.543964
     73          1           0       -3.911613    0.398662    3.705179
     74          1           0       -1.894048   -1.643727   -0.459888
     75          1           0       -2.354829    0.058315   -0.610246
     76          1           0        0.005387    0.572102    1.183689
     77          1           0       -0.326667   -1.121909    1.344743
     78          1           0       -5.615086    6.992233    1.110801
     79          1           0       -5.435976    5.864379    2.475671
     80          1           0       -4.325571    5.569754    0.942206
     81          1           0       -9.327421    6.150468   -0.346384
     82          1           0       -9.112893    8.180125    0.522932
     83          1           0       -7.434035    7.489987    1.427585
     84          1           0      -11.800515    3.269725   -2.277876
     85          1           0      -13.037272    1.843107   -2.104427
     86          1           0      -12.631324    3.022273   -0.541986
     87          1           0      -12.441181   -1.763127   -1.378166
     88          1           0      -13.285768   -0.385342   -1.298961
     89          1           0      -13.105661   -1.620732   -3.626465
     90          1           0      -12.507973    0.093483   -4.057418
     91          1           0      -11.177400   -0.986104   -3.863695
     92          1           0       -8.882456   -4.821513   -1.907302
     93          1           0       -7.976464   -5.866194   -0.709073
     94          1           0       -9.437914   -4.860581   -0.321016
     95          1           0       -3.388671   -3.467924   -0.243897
     96          1           0       -1.747595   -4.653015    3.597982
     97          1           0       -3.070420   -5.857551    3.490297
     98          1           0       -1.390278   -5.996072    2.425334
     99          1           0        2.749238   -1.596905   -1.922043
    100          1           0        2.715976    0.257271   -1.858582
    101          1           0        4.252887   -1.085861    0.293171
    102          1           0        4.023840    1.206624   -2.595712
    103          1           0        4.942824    2.558803   -1.678845
    104          1           0        5.865275    1.320916   -2.756023
    105          1           0        6.599194    1.417392    0.153170
    106          1           0        6.334632   -0.262712    0.638671
    107          1           0        7.192935   -0.918827   -1.460047
    108          1           0        7.927527    0.895762   -1.923136
    109          1           0        9.044122    0.945884    0.391304
    110          1           0        8.909788   -0.763092    0.800301
    111          1           0       10.086392    0.418528   -1.845795
    112          1           0        9.341125   -2.055807   -2.051614
    113          1           0       11.014285   -2.067938   -2.122369
    114          1           0       10.173390   -2.595973   -0.508252
    115          1           0       11.374172    1.089682    0.320370
    116          1           0       11.343178   -0.743287    0.871760
    117          1           0       12.929577   -1.393322   -1.148084
    118          1           0       12.699289    0.195510   -1.729575
    119          1           0       13.758316    0.951253    0.434308
    120          1           0       13.893478   -0.563838    0.928595
    121          1           0       15.450498    0.170313   -1.460781
    122          1           0       15.602730   -2.399163    0.037972
    123          1           0       15.047206   -1.899440   -1.659347
    124          1           0       16.427447   -1.561172   -1.370330
    125          1           0       16.215140    1.257661    0.811378
    126          1           0       16.421828   -0.320274    1.449887
    127          1           0       18.023634   -0.813943   -0.209503
    128          1           0       17.818144    0.718385   -1.145906
    129          1           0       18.327863    2.174285    0.881545
    130          1           0       18.681277    0.572671    1.792903
    131          1           0       20.385458    0.111234   -0.272751
    132          1           0       19.885983    3.159082   -0.775282
    133          1           0       21.087952    2.206855   -1.732563
    134          1           0       19.521950    1.887760   -1.920291
    135          1           0       21.183235    1.088030    1.976481
    136          1           0       22.179079    1.689777    0.694440
    137          1           0       20.812031    2.848691    1.595538
 ---------------------------------------------------------------------

 SCF Done:  E(RCAM-B3LYP) =  -2933.46081501     A.U. after   16 cycles

 Excitation energies and oscillator strengths:

 Excited State   1:      Singlet-A      1.9675 eV  630.17 nm  f=0.2193  <S**2>=0.000
     240 -> 242       -0.13587
     240 -> 243        0.24746
     241 -> 242        0.64117
 This state for optimization and/or second-order correction.
 Total Energy, E(TD-HF/TD-DFT) =  -2933.38851124
 Copying the excited state density for this state as the 1-particle RhoCI density.

 The electronic state is 1-A.
 Alpha  occ. eigenvalues --  -46.79187 -19.22894 -19.19687 -19.17634 -19.16183
 Alpha  occ. eigenvalues --  -19.15107 -14.37644 -14.36068 -14.34532 -14.34455
 Alpha  occ. eigenvalues --  -10.34846 -10.33857 -10.30395 -10.28287 -10.26484
 Alpha  occ. eigenvalues --  -10.26334 -10.26299 -10.26175 -10.25592 -10.24940
 Alpha  occ. eigenvalues --  -10.24890 -10.24846 -10.24601 -10.24502 -10.24405
 Alpha  occ. eigenvalues --  -10.24285 -10.24237 -10.24008 -10.23995 -10.23948
 Alpha  occ. eigenvalues --  -10.23768 -10.23755 -10.23727 -10.23712 -10.23684
 Alpha  occ. eigenvalues --  -10.23324 -10.23319 -10.23179 -10.23102 -10.22890
 Alpha  occ. eigenvalues --  -10.22763 -10.22731 -10.22446 -10.22358 -10.22283
 Alpha  occ. eigenvalues --  -10.21979 -10.21943 -10.21816 -10.21760 -10.21758
 Alpha  occ. eigenvalues --  -10.21497 -10.21299 -10.21090 -10.20961 -10.20849
 Alpha  occ. eigenvalues --  -10.20762 -10.20646 -10.20336 -10.20308 -10.20292
 Alpha  occ. eigenvalues --  -10.20126 -10.19906 -10.18988 -10.18270 -10.17659
 Alpha  occ. eigenvalues --   -3.07969  -1.82892  -1.82428  -1.82417  -1.14533
 Alpha  occ. eigenvalues --   -1.11728  -1.05106  -1.03534  -1.01853  -1.00404
 Alpha  occ. eigenvalues --   -0.98509  -0.97980  -0.97226  -0.87893  -0.85956
 Alpha  occ. eigenvalues --   -0.85736  -0.85544  -0.84299  -0.83956  -0.83407
 Alpha  occ. eigenvalues --   -0.82707  -0.82615  -0.82434  -0.82026  -0.80861
 Alpha  occ. eigenvalues --   -0.79704  -0.79175  -0.79030  -0.77704  -0.76971
 Alpha  occ. eigenvalues --   -0.76414  -0.76368  -0.75921  -0.75136  -0.73909
 Alpha  occ. eigenvalues --   -0.73362  -0.72361  -0.71683  -0.71436  -0.70899
 Alpha  occ. eigenvalues --   -0.70709  -0.70425  -0.69127  -0.68664  -0.68114
 Alpha  occ. eigenvalues --   -0.66836  -0.65709  -0.64658  -0.64051  -0.63460
 Alpha  occ. eigenvalues --   -0.62460  -0.60978  -0.60674  -0.60197  -0.59773
 Alpha  occ. eigenvalues --   -0.59526  -0.59028  -0.58156  -0.57908  -0.57430
 Alpha  occ. eigenvalues --   -0.56954  -0.56486  -0.56391  -0.55586  -0.55226
 Alpha  occ. eigenvalues --   -0.54600  -0.54536  -0.53496  -0.53195  -0.52704
 Alpha  occ. eigenvalues --   -0.51895  -0.51782  -0.51696  -0.51337  -0.50683
 Alpha  occ. eigenvalues --   -0.50514  -0.50072  -0.49653  -0.49525  -0.49264
 Alpha  occ. eigenvalues --   -0.48815  -0.48499  -0.48045  -0.47811  -0.47506
 Alpha  occ. eigenvalues --   -0.47350  -0.46964  -0.46863  -0.46646  -0.46557
 Alpha  occ. eigenvalues --   -0.46435  -0.46295  -0.45951  -0.45801  -0.45550
 Alpha  occ. eigenvalues --   -0.45224  -0.44990  -0.44955  -0.44634  -0.44454
 Alpha  occ. eigenvalues --   -0.44350  -0.44263  -0.43724  -0.43628  -0.43526
 Alpha  occ. eigenvalues --   -0.43224  -0.43210  -0.42713  -0.42558  -0.42412
 Alpha  occ. eigenvalues --   -0.42151  -0.41992  -0.41770  -0.41608  -0.41461
 Alpha  occ. eigenvalues --   -0.41390  -0.41226  -0.41076  -0.40854  -0.40652
 Alpha  occ. eigenvalues --   -0.40589  -0.40286  -0.40221  -0.39836  -0.39735
 Alpha  occ. eigenvalues --   -0.39556  -0.39336  -0.39232  -0.38981  -0.38779
 Alpha  occ. eigenvalues --   -0.38583  -0.38458  -0.38399  -0.38189  -0.37972
 Alpha  occ. eigenvalues --   -0.37868  -0.37613  -0.37509  -0.37240  -0.37093
 Alpha  occ. eigenvalues --   -0.36320  -0.36062  -0.35835  -0.35600  -0.35338
 Alpha  occ. eigenvalues --   -0.35150  -0.34996  -0.34907  -0.34475  -0.34303
 Alpha  occ. eigenvalues --   -0.34211  -0.33942  -0.33926  -0.33776  -0.33592
 Alpha  occ. eigenvalues --   -0.33232  -0.33065  -0.32713  -0.32700  -0.32504
 Alpha  occ. eigenvalues --   -0.32192  -0.31761  -0.31258  -0.30753  -0.30281
 Alpha  occ. eigenvalues --   -0.29779  -0.29169  -0.29143  -0.28486  -0.27088
 Alpha  occ. eigenvalues --   -0.26277  -0.25550  -0.25428  -0.24998  -0.21217
 Alpha  occ. eigenvalues --   -0.20566
 Alpha virt. eigenvalues --   -0.07852  -0.04661  -0.00160   0.01944   0.03234
 Alpha virt. eigenvalues --    0.04084   0.04168   0.04691   0.05095   0.05575
 Alpha virt. eigenvalues --    0.06785   0.08175   0.08934   0.09143   0.09193

 Mulliken charges:
               1
     1  Mg   0.809304
     2  C    0.079027
     3  C   -0.173582
     4  C   -0.189883
     5  C   -0.169186
     6  N   -0.634637
     7  C    0.305149
     8  C   -0.144583
     9  C   -0.134681
    10  C    0.308305
    11  C   -0.290953
    12  C   -0.176925
    13  C   -0.245198
    14  C    0.590535
    15  O   -0.434801
    16  O   -0.514011
    17  N   -0.723224
    18  C    0.326628
    19  C    0.063737
    20  C    0.037044
    21  C    0.272055
    22  C   -0.408285
    23  C   -0.069693
    24  C   -0.245591
    25  N   -0.694129
    26  C    0.329444
    27  C    0.036040
    28  C    0.009147
    29  C    0.306214
    30  C   -0.363881
    31  C   -0.237642
    32  C   -0.300256
    33  N   -0.693771
    34  C    0.262386
    35  C    0.049562
    36  C    0.052030
    37  C    0.275495
    38  C   -0.394695
    39  C    0.354559
    40  O   -0.479656
    41  C   -0.339743
    42  C    0.608860
    43  O   -0.519385
    44  O   -0.405443
    45  C   -0.093890
    46  C    0.036698
    47  C   -0.138420
    48  C    0.155974
    49  C   -0.374846
    50  C   -0.226805
    51  C   -0.164650
    52  C   -0.139296
    53  C   -0.043231
    54  C   -0.305868
    55  C   -0.162964
    56  C   -0.187210
    57  C   -0.130551
    58  C   -0.078338
    59  C   -0.301170
    60  C   -0.166711
    61  C   -0.190963
    62  C   -0.159286
    63  C   -0.056145
    64  C   -0.308095
    65  C   -0.299055
    66  H    0.079554
    67  H    0.085230
    68  H    0.074041
    69  H    0.115143
    70  H    0.064363
    71  H    0.121516
    72  H    0.104847
    73  H    0.141982
    74  H    0.122851
    75  H    0.114419
    76  H    0.102557
    77  H    0.156622
    78  H    0.095816
    79  H    0.115474
    80  H    0.117650
    81  H    0.093180
    82  H    0.082540
    83  H    0.094244
    84  H    0.090770
    85  H    0.118041
    86  H    0.137283
    87  H    0.099547
    88  H    0.112899
    89  H    0.100061
    90  H    0.079405
    91  H    0.122159
    92  H    0.136345
    93  H    0.148397
    94  H    0.124722
    95  H    0.153067
    96  H    0.139285
    97  H    0.139097
    98  H    0.128142
    99  H    0.122495
   100  H    0.101851
   101  H    0.081665
   102  H    0.097725
   103  H    0.114011
   104  H    0.113609
   105  H    0.098564
   106  H    0.105371
   107  H    0.109589
   108  H    0.043674
   109  H    0.109498
   110  H    0.062402
   111  H    0.031367
   112  H    0.110894
   113  H    0.092837
   114  H    0.093030
   115  H    0.053164
   116  H    0.080450
   117  H    0.090861
   118  H    0.082984
   119  H    0.093304
   120  H    0.095455
   121  H    0.074904
   122  H    0.099829
   123  H    0.085832
   124  H    0.113316
   125  H    0.090338
   126  H    0.086642
   127  H    0.074636
   128  H    0.081957
   129  H    0.086090
   130  H    0.087003
   131  H    0.065626
   132  H    0.097257
   133  H    0.107075
   134  H    0.096019
   135  H    0.110194
   136  H    0.094487
   137  H    0.095874
 Sum of Mulliken charges =  -0.00000

 Dipole moment (field-independent basis, Debye):
    X=             -0.4858    Y=              3.0805    Z=              0.5929  Tot=              3.1744
 Quadrupole moment (field-independent basis, Debye-Ang):
   XX=           -345.4486   YY=           -392.9045   ZZ=           -395.4904
   XY=            -17.8810   XZ=              8.4793   YZ=              0.9584

 Normal termination of Gaussian 16 at Wed Sep  4 23:20:42 2019.
