 Gaussian 16, Revision A.03,
 Gaussian 16:  ES64L-G16RevA.03 25-Dec-2016

 ----------------------------------------------------------------------
 # td=(NStates=1) iop(3/107=0140000000,3/108=0140000000) CAM-B3LYP/6-31
 G(d,p)
 ----------------------------------------------------------------------

 --
 TD
 --
 Symbolic Z-matrix:
 Charge =  0 Multiplicity = 1

                         Standard orientation:
 ---------------------------------------------------------------------
 Center     Atomic      Atomic             Coordinates (Angstroms)
 Number     Number       Type             X           Y           Z
 ---------------------------------------------------------------------
      1         12           0       -7.235836    0.622676    0.167712
      2          6           0       -4.825798   -1.971658    0.459506
      3          6           0       -4.792264    2.923148    1.078969
      4          6           0       -9.460919    3.016422   -0.364867
      5          6           0       -9.561986   -1.771511   -0.760942
      6          7           0       -5.149632    0.475132    0.809362
      7          6           0       -4.421367   -0.658059    0.761036
      8          6           0       -2.935224   -0.330796    1.137063
      9          6           0       -2.987722    1.131481    1.723412
     10          6           0       -4.400327    1.624685    1.161534
     11          6           0       -2.852588    1.284689    3.272668
     12          6           0       -1.906193   -0.691654   -0.012667
     13          6           0       -0.524531   -0.461738    0.555034
     14          6           0        0.570636   -0.751841   -0.572202
     15          8           0        0.253687   -1.045384   -1.730138
     16          8           0        1.723862   -0.345529   -0.126195
     17          7           0       -7.113203    2.555885    0.259170
     18          6           0       -6.068901    3.324268    0.669845
     19          6           0       -6.460567    4.734507    0.781671
     20          6           0       -7.796337    4.849132    0.280020
     21          6           0       -8.198325    3.409475    0.034633
     22          6           0       -5.504730    5.922147    0.922581
     23          6           0       -8.590188    6.052062    0.211724
     24          6           0       -8.478903    7.303607    0.623214
     25          7           0       -9.070530    0.598436   -0.567182
     26          6           0       -9.930815    1.743499   -0.728545
     27          6           0      -11.246685    1.460661   -1.107856
     28          6           0      -11.329017    0.090387   -1.141842
     29          6           0       -9.871006   -0.469278   -0.864005
     30          6           0      -12.399114    2.376632   -1.299613
     31          6           0      -12.394416   -0.827418   -1.508062
     32          6           0      -12.317346   -1.294003   -3.047153
     33          7           0       -7.217073   -1.437128   -0.088746
     34          6           0       -8.207297   -2.281694   -0.440473
     35          6           0       -7.818108   -3.594058   -0.603572
     36          6           0       -6.486206   -3.549150   -0.006947
     37          6           0       -6.130039   -2.193515    0.108393
     38          6           0       -8.587881   -4.903662   -0.976828
     39          6           0       -5.225826   -4.296946    0.207099
     40          8           0       -5.034848   -5.520344    0.122396
     41          6           0       -4.220207   -3.315583    0.534755
     42          6           0       -3.559933   -3.574164    1.899315
     43          8           0       -3.871509   -3.061232    2.900115
     44          8           0       -2.708823   -4.680086    1.728086
     45          6           0       -2.130037   -5.179250    2.948506
     46          6           0        2.840947   -0.557440   -1.163806
     47          6           0        4.070446   -0.406436   -0.552462
     48          6           0        5.144285    0.312099   -1.010663
     49          6           0        5.028053    1.377121   -2.160137
     50          6           0        6.439091    0.326450   -0.215007
     51          6           0        7.719268   -0.113753   -1.007637
     52          6           0        8.916982   -0.102493   -0.230539
     53          6           0       10.190537   -0.489298   -0.924434
     54          6           0       10.095567   -1.838459   -1.415099
     55          6           0       11.482511   -0.305619   -0.051355
     56          6           0       12.881746   -0.544041   -0.786551
     57          6           0       13.963341   -0.075342    0.190065
     58          6           0       15.356979   -0.187974   -0.432818
     59          6           0       15.731083   -1.699098   -0.772509
     60          6           0       16.537693    0.412077    0.504676
     61          6           0       17.835718    0.525566   -0.155843
     62          6           0       18.884251    1.113976    0.790612
     63          6           0       20.296255    1.361597    0.253744
     64          6           0       20.358660    2.083743   -1.067615
     65          6           0       21.116010    1.928235    1.281035
     66          1           0       -4.136872    3.596151    1.457474
     67          1           0      -10.106896    3.774172   -0.458800
     68          1           0      -10.299853   -2.406948   -1.224116
     69          1           0       -2.683205   -1.075565    1.909817
     70          1           0       -2.073772    1.744264    1.219892
     71          1           0       -1.846793    0.895447    3.697801
     72          1           0       -3.199937    2.198861    3.329021
     73          1           0       -3.614020    0.675435    3.509045
     74          1           0       -2.123915   -1.635195   -0.266999
     75          1           0       -2.125270    0.023166   -0.846932
     76          1           0       -0.231283    0.491707    1.037784
     77          1           0       -0.453819   -1.133514    1.467732
     78          1           0       -5.818982    6.848931    0.312335
     79          1           0       -5.534849    6.155082    1.813014
     80          1           0       -4.499011    5.675201    0.448471
     81          1           0       -9.737289    5.985577   -0.492282
     82          1           0       -9.109356    8.108911    0.394023
     83          1           0       -7.687903    7.708449    1.402403
     84          1           0      -12.120231    3.069939   -2.140400
     85          1           0      -13.265496    1.821478   -1.621237
     86          1           0      -12.661067    2.969332   -0.474146
     87          1           0      -12.391183   -1.881880   -1.075447
     88          1           0      -13.417388   -0.260711   -1.308126
     89          1           0      -13.081967   -1.866426   -3.152587
     90          1           0      -12.331070   -0.456672   -3.833364
     91          1           0      -11.415155   -1.913850   -3.346602
     92          1           0       -8.834703   -4.728497   -2.253475
     93          1           0       -7.866357   -5.748276   -1.028061
     94          1           0       -9.316089   -5.025790   -0.444663
     95          1           0       -3.306745   -3.428339   -0.115795
     96          1           0       -1.395874   -4.464523    3.456045
     97          1           0       -2.941189   -5.468017    3.772598
     98          1           0       -1.493093   -6.054410    2.692834
     99          1           0        2.656475   -1.607134   -1.426059
    100          1           0        2.572476   -0.150342   -1.859432
    101          1           0        4.215240   -1.274241    0.216694
    102          1           0        3.897785    1.712192   -2.364029
    103          1           0        5.780674    2.381256   -1.935017
    104          1           0        5.587627    0.982159   -3.095875
    105          1           0        6.530267    1.392140    0.228994
    106          1           0        6.337918   -0.585164    0.499082
    107          1           0        7.388155   -1.204408   -0.980243
    108          1           0        7.818676    0.447863   -1.992938
    109          1           0        9.251561    0.930757    0.169529
    110          1           0        8.819725   -0.657901    0.650891
    111          1           0       10.350396    0.375412   -1.962945
    112          1           0        9.139430   -2.170902   -1.833929
    113          1           0       10.962881   -2.196796   -1.982302
    114          1           0       10.051092   -2.483096   -0.611175
    115          1           0       11.447536    0.660574    0.537150
    116          1           0       11.390042   -1.022394    0.777069
    117          1           0       12.963703   -1.627748   -1.067963
    118          1           0       12.862602    0.047482   -1.633251
    119          1           0       13.650596    0.897722    0.429164
    120          1           0       13.731460   -0.507181    1.253118
    121          1           0       15.528412    0.268323   -1.290809
    122          1           0       15.668276   -2.225217    0.022340
    123          1           0       14.879604   -2.042666   -1.411348
    124          1           0       16.790066   -1.789203   -1.506718
    125          1           0       16.165827    1.431444    0.701075
    126          1           0       16.519177   -0.245803    1.492075
    127          1           0       18.055962   -0.364123   -0.610985
    128          1           0       17.619245    1.194718   -1.033183
    129          1           0       18.624493    2.294335    1.017121
    130          1           0       19.056705    0.355776    1.480492
    131          1           0       20.715972    0.297416    0.341452
    132          1           0       20.161950    3.215563   -0.927399
    133          1           0       21.311167    1.969830   -1.315712
    134          1           0       19.589110    1.572107   -1.613198
    135          1           0       20.883429    1.397546    2.179019
    136          1           0       22.171988    2.059916    1.066625
    137          1           0       20.721562    2.968118    1.446096
 ---------------------------------------------------------------------

 SCF Done:  E(RCAM-B3LYP) =  -2933.32654546     A.U. after   16 cycles

 Excitation energies and oscillator strengths:

 Excited State   1:      Singlet-A      1.8919 eV  655.35 nm  f=0.3496  <S**2>=0.000
     240 -> 243        0.19409
     241 -> 242        0.67782
 This state for optimization and/or second-order correction.
 Total Energy, E(TD-HF/TD-DFT) =  -2933.25702061
 Copying the excited state density for this state as the 1-particle RhoCI density.

 The electronic state is 1-A.
 Alpha  occ. eigenvalues --  -46.78881 -19.22117 -19.21794 -19.18099 -19.15827
 Alpha  occ. eigenvalues --  -19.14253 -14.37615 -14.35921 -14.35312 -14.34013
 Alpha  occ. eigenvalues --  -10.34654 -10.33885 -10.28746 -10.27755 -10.26466
 Alpha  occ. eigenvalues --  -10.26162 -10.25913 -10.25868 -10.25699 -10.25182
 Alpha  occ. eigenvalues --  -10.25174 -10.25155 -10.25105 -10.24527 -10.24345
 Alpha  occ. eigenvalues --  -10.24159 -10.24103 -10.23810 -10.23741 -10.23498
 Alpha  occ. eigenvalues --  -10.23460 -10.23107 -10.22999 -10.22960 -10.22917
 Alpha  occ. eigenvalues --  -10.22765 -10.22595 -10.22447 -10.22318 -10.22293
 Alpha  occ. eigenvalues --  -10.22122 -10.22099 -10.22040 -10.22016 -10.21934
 Alpha  occ. eigenvalues --  -10.21734 -10.21456 -10.21335 -10.21267 -10.21120
 Alpha  occ. eigenvalues --  -10.21073 -10.21070 -10.21046 -10.21024 -10.21005
 Alpha  occ. eigenvalues --  -10.20801 -10.20681 -10.20614 -10.20220 -10.19929
 Alpha  occ. eigenvalues --  -10.19885 -10.19750 -10.19116 -10.18997 -10.18907
 Alpha  occ. eigenvalues --   -3.07737  -1.82655  -1.82217  -1.82159  -1.13216
 Alpha  occ. eigenvalues --   -1.12779  -1.05818  -1.03384  -1.02839  -0.99299
 Alpha  occ. eigenvalues --   -0.97994  -0.96752  -0.96116  -0.88776  -0.87457
 Alpha  occ. eigenvalues --   -0.86274  -0.86099  -0.84488  -0.84257  -0.84145
 Alpha  occ. eigenvalues --   -0.83592  -0.83411  -0.82554  -0.81992  -0.81078
 Alpha  occ. eigenvalues --   -0.80412  -0.79951  -0.78617  -0.78454  -0.78304
 Alpha  occ. eigenvalues --   -0.77647  -0.76218  -0.75901  -0.75288  -0.73442
 Alpha  occ. eigenvalues --   -0.72976  -0.72733  -0.72461  -0.71508  -0.71290
 Alpha  occ. eigenvalues --   -0.71158  -0.70387  -0.69994  -0.69154  -0.68686
 Alpha  occ. eigenvalues --   -0.67877  -0.66110  -0.65402  -0.64891  -0.63534
 Alpha  occ. eigenvalues --   -0.63172  -0.62552  -0.61339  -0.61056  -0.60570
 Alpha  occ. eigenvalues --   -0.59602  -0.59355  -0.58703  -0.57992  -0.57820
 Alpha  occ. eigenvalues --   -0.57016  -0.56510  -0.56217  -0.55755  -0.54430
 Alpha  occ. eigenvalues --   -0.54303  -0.53705  -0.53492  -0.53049  -0.52831
 Alpha  occ. eigenvalues --   -0.52515  -0.52181  -0.51461  -0.51017  -0.50893
 Alpha  occ. eigenvalues --   -0.50367  -0.50158  -0.49660  -0.49576  -0.49141
 Alpha  occ. eigenvalues --   -0.48950  -0.48785  -0.48653  -0.48399  -0.48351
 Alpha  occ. eigenvalues --   -0.48054  -0.47976  -0.47821  -0.47507  -0.47384
 Alpha  occ. eigenvalues --   -0.47223  -0.46977  -0.46714  -0.46663  -0.46224
 Alpha  occ. eigenvalues --   -0.46142  -0.45921  -0.45739  -0.45247  -0.45042
 Alpha  occ. eigenvalues --   -0.44901  -0.44672  -0.44255  -0.43933  -0.43769
 Alpha  occ. eigenvalues --   -0.43670  -0.43486  -0.43208  -0.43112  -0.42913
 Alpha  occ. eigenvalues --   -0.42626  -0.42442  -0.42298  -0.41923  -0.41855
 Alpha  occ. eigenvalues --   -0.41614  -0.41166  -0.41029  -0.40833  -0.40700
 Alpha  occ. eigenvalues --   -0.40598  -0.40432  -0.40401  -0.40009  -0.39879
 Alpha  occ. eigenvalues --   -0.39620  -0.39168  -0.39163  -0.39015  -0.38942
 Alpha  occ. eigenvalues --   -0.38690  -0.38620  -0.38472  -0.38206  -0.37910
 Alpha  occ. eigenvalues --   -0.37625  -0.37609  -0.37456  -0.37163  -0.37066
 Alpha  occ. eigenvalues --   -0.36929  -0.36293  -0.36257  -0.36135  -0.35999
 Alpha  occ. eigenvalues --   -0.35816  -0.35722  -0.35385  -0.34901  -0.34882
 Alpha  occ. eigenvalues --   -0.34500  -0.34406  -0.33846  -0.33817  -0.33296
 Alpha  occ. eigenvalues --   -0.33086  -0.32904  -0.32771  -0.32709  -0.32498
 Alpha  occ. eigenvalues --   -0.32055  -0.31971  -0.31004  -0.30938  -0.30257
 Alpha  occ. eigenvalues --   -0.30023  -0.29672  -0.29374  -0.28569  -0.27184
 Alpha  occ. eigenvalues --   -0.26205  -0.25938  -0.25234  -0.25157  -0.21986
 Alpha  occ. eigenvalues --   -0.19465
 Alpha virt. eigenvalues --   -0.07627  -0.03558   0.00193   0.01350   0.02049
 Alpha virt. eigenvalues --    0.04358   0.04488   0.04784   0.05524   0.06208
 Alpha virt. eigenvalues --    0.06682   0.08253   0.08468   0.08867   0.09469

 Mulliken charges:
               1
     1  Mg   0.822599
     2  C    0.144697
     3  C   -0.148992
     4  C   -0.162663
     5  C   -0.181264
     6  N   -0.642052
     7  C    0.312031
     8  C   -0.180756
     9  C   -0.161756
    10  C    0.290352
    11  C   -0.279970
    12  C   -0.135810
    13  C   -0.279358
    14  C    0.605403
    15  O   -0.493619
    16  O   -0.463238
    17  N   -0.740411
    18  C    0.326845
    19  C   -0.044086
    20  C    0.040779
    21  C    0.310997
    22  C   -0.349659
    23  C   -0.048135
    24  C   -0.260069
    25  N   -0.698853
    26  C    0.276838
    27  C    0.083254
    28  C    0.041321
    29  C    0.324031
    30  C   -0.374709
    31  C   -0.279195
    32  C   -0.313713
    33  N   -0.718929
    34  C    0.289841
    35  C   -0.005044
    36  C   -0.043044
    37  C    0.283933
    38  C   -0.329000
    39  C    0.375676
    40  O   -0.490990
    41  C   -0.328401
    42  C    0.615042
    43  O   -0.416202
    44  O   -0.453436
    45  C   -0.087550
    46  C    0.055543
    47  C   -0.116355
    48  C    0.131308
    49  C   -0.355358
    50  C   -0.231490
    51  C   -0.164452
    52  C   -0.149024
    53  C   -0.014208
    54  C   -0.312115
    55  C   -0.198940
    56  C   -0.174892
    57  C   -0.179463
    58  C   -0.059865
    59  C   -0.302905
    60  C   -0.163888
    61  C   -0.185434
    62  C   -0.133060
    63  C   -0.081653
    64  C   -0.292134
    65  C   -0.281820
    66  H    0.078374
    67  H    0.056963
    68  H    0.079899
    69  H    0.099445
    70  H    0.073042
    71  H    0.107291
    72  H    0.112545
    73  H    0.135972
    74  H    0.117190
    75  H    0.113644
    76  H    0.132818
    77  H    0.109123
    78  H    0.116466
    79  H    0.136770
    80  H    0.111855
    81  H    0.042909
    82  H    0.113974
    83  H    0.083799
    84  H    0.120363
    85  H    0.116359
    86  H    0.135501
    87  H    0.114744
    88  H    0.089144
    89  H    0.125184
    90  H    0.100341
    91  H    0.109026
    92  H    0.071789
    93  H    0.153185
    94  H    0.132834
    95  H    0.166717
    96  H    0.108909
    97  H    0.118792
    98  H    0.127908
    99  H    0.131439
   100  H    0.092051
   101  H    0.082999
   102  H    0.119360
   103  H    0.087709
   104  H    0.128079
   105  H    0.104920
   106  H    0.089906
   107  H    0.096653
   108  H    0.093365
   109  H    0.073433
   110  H    0.092066
   111  H    0.002632
   112  H    0.100823
   113  H    0.102712
   114  H    0.103850
   115  H    0.079861
   116  H    0.088079
   117  H    0.098264
   118  H    0.111172
   119  H    0.103818
   120  H    0.078504
   121  H    0.092714
   122  H    0.120054
   123  H    0.090902
   124  H    0.066723
   125  H    0.085900
   126  H    0.063607
   127  H    0.098859
   128  H    0.083106
   129  H    0.061086
   130  H    0.097342
   131  H    0.064384
   132  H    0.085069
   133  H    0.116472
   134  H    0.108227
   135  H    0.096321
   136  H    0.098341
   137  H    0.073789
 Sum of Mulliken charges =  -0.00000

 Dipole moment (field-independent basis, Debye):
    X=              1.5619    Y=              4.4323    Z=              0.6049  Tot=              4.7382
 Quadrupole moment (field-independent basis, Debye-Ang):
   XX=           -326.7876   YY=           -397.2000   ZZ=           -399.5783
   XY=            -30.0676   XZ=              9.4822   YZ=             -4.0533

 Normal termination of Gaussian 16 at Mon Sep 16 04:58:32 2019.
