 Gaussian 09, Revision D.01,
 Gaussian 09:  ES64L-G09RevD.01 24-Apr-2013

 -------------------------------------
 # td=(NStates=1) CAM-B3LYP/6-31G(d,p)
 -------------------------------------

 --
 TD
 --
 Symbolic Z-matrix:
 Charge =  0 Multiplicity = 1

                         Standard orientation:
 ---------------------------------------------------------------------
 Center     Atomic      Atomic             Coordinates (Angstroms)
 Number     Number       Type             X           Y           Z
 ---------------------------------------------------------------------
      1         12           0       -7.239953    0.601321    0.226493
      2          6           0       -4.970109   -1.918250    0.724334
      3          6           0       -4.824922    2.835576    1.221518
      4          6           0       -9.375695    3.042593   -0.421234
      5          6           0       -9.470960   -1.740493   -0.917714
      6          7           0       -5.146205    0.437146    0.974172
      7          6           0       -4.425909   -0.686142    1.061432
      8          6           0       -2.966777   -0.343024    1.364552
      9          6           0       -2.943664    1.135493    1.684265
     10          6           0       -4.372497    1.559394    1.113112
     11          6           0       -2.884533    1.430052    3.205071
     12          6           0       -2.032748   -0.632088    0.182662
     13          6           0       -0.481112   -0.460089    0.633424
     14          6           0        0.505116   -0.675861   -0.515372
     15          8           0        0.108286   -1.142451   -1.550125
     16          8           0        1.812398   -0.431524   -0.253329
     17          7           0       -7.172848    2.566626    0.248251
     18          6           0       -6.081319    3.297385    0.794974
     19          6           0       -6.370821    4.744878    0.800002
     20          6           0       -7.715242    4.855910    0.306589
     21          6           0       -8.106396    3.495709    0.069050
     22          6           0       -5.439303    5.893870    1.293997
     23          6           0       -8.559191    5.971617    0.160402
     24          6           0       -8.460665    7.148772    0.811693
     25          7           0       -9.080074    0.665269   -0.583004
     26          6           0       -9.831383    1.780068   -0.734001
     27          6           0      -11.174529    1.394741   -1.221726
     28          6           0      -11.142582    0.110512   -1.409156
     29          6           0       -9.851712   -0.426137   -0.877739
     30          6           0      -12.233271    2.292965   -1.527722
     31          6           0      -12.270629   -0.785782   -1.846737
     32          6           0      -12.063878   -1.160283   -3.419326
     33          7           0       -7.213404   -1.364152   -0.108042
     34          6           0       -8.208979   -2.253364   -0.573246
     35          6           0       -7.841576   -3.644408   -0.448914
     36          6           0       -6.535472   -3.570173    0.011393
     37          6           0       -6.238871   -2.153600    0.285409
     38          6           0       -8.414863   -4.967019   -0.897929
     39          6           0       -5.293072   -4.363948    0.237235
     40          8           0       -5.107202   -5.593893    0.204551
     41          6           0       -4.211504   -3.304904    0.674476
     42          6           0       -3.565128   -3.599008    2.010342
     43          8           0       -3.797359   -3.065873    3.057183
     44          8           0       -2.637806   -4.549704    1.866408
     45          6           0       -2.006595   -5.152761    3.056810
     46          6           0        2.836109   -0.696136   -1.259087
     47          6           0        4.188148   -0.448840   -0.800304
     48          6           0        5.092627    0.418325   -1.336837
     49          6           0        4.957994    1.350492   -2.491382
     50          6           0        6.335032    0.462637   -0.423921
     51          6           0        7.546264   -0.335184   -1.057360
     52          6           0        8.759274   -0.160395   -0.124336
     53          6           0       10.115865   -0.475808   -0.882625
     54          6           0       10.192100   -1.882378   -1.454190
     55          6           0       11.340481   -0.251351    0.006271
     56          6           0       12.731960   -0.314597   -0.799703
     57          6           0       13.943318   -0.021835    0.055000
     58          6           0       15.318761   -0.111218   -0.586635
     59          6           0       15.543422   -1.616362   -0.908437
     60          6           0       16.401431    0.361642    0.264660
     61          6           0       17.767636    0.411554   -0.118103
     62          6           0       18.806908    1.085437    0.791281
     63          6           0       20.314658    1.276296    0.418303
     64          6           0       20.578281    2.051735   -0.874855
     65          6           0       21.142189    1.793466    1.457872
     66          1           0       -4.025138    3.581063    1.391621
     67          1           0      -10.096953    3.659836   -0.705720
     68          1           0      -10.384285   -2.330803   -1.274673
     69          1           0       -2.553121   -0.859097    1.995132
     70          1           0       -2.371684    1.824275    1.090231
     71          1           0       -2.058554    0.924608    3.704377
     72          1           0       -2.859785    2.375125    3.518275
     73          1           0       -3.513915    0.809501    3.847898
     74          1           0       -2.103717   -1.813104   -0.130886
     75          1           0       -2.189401   -0.030744   -0.638641
     76          1           0       -0.550137    0.554387    0.974588
     77          1           0       -0.218320   -1.155666    1.540880
     78          1           0       -5.905112    6.689164    0.419827
     79          1           0       -5.550594    6.287303    2.288222
     80          1           0       -4.360620    5.697670    0.779427
     81          1           0       -9.167939    6.141516   -0.591868
     82          1           0       -9.062372    7.949918    0.567333
     83          1           0       -7.840382    7.344122    1.651155
     84          1           0      -12.035098    2.735780   -2.551009
     85          1           0      -13.224550    1.882329   -1.900089
     86          1           0      -12.658339    3.076673   -0.863675
     87          1           0      -12.548256   -1.742777   -1.116477
     88          1           0      -13.079136   -0.173997   -1.811367
     89          1           0      -12.849941   -1.881740   -3.743650
     90          1           0      -12.164532   -0.363912   -4.127879
     91          1           0      -11.233224   -1.516006   -3.606134
     92          1           0       -8.835295   -4.989856   -1.913772
     93          1           0       -7.885230   -5.785969   -0.723211
     94          1           0       -9.247346   -5.190000   -0.318572
     95          1           0       -3.531365   -3.155411   -0.284461
     96          1           0       -1.320778   -4.573478    3.483624
     97          1           0       -2.748675   -5.604943    3.617908
     98          1           0       -1.358253   -5.847819    2.600538
     99          1           0        2.583525   -1.756507   -1.560512
    100          1           0        2.636165   -0.049463   -1.999582
    101          1           0        4.636984   -1.019167    0.077694
    102          1           0        3.960562    1.392028   -3.019489
    103          1           0        5.077309    2.441841   -2.240400
    104          1           0        5.851378    1.451847   -3.265719
    105          1           0        6.713567    1.411493   -0.341767
    106          1           0        6.160670    0.060264    0.413591
    107          1           0        7.075826   -1.225626   -1.358047
    108          1           0        7.598246    0.098945   -2.008631
    109          1           0        8.563886    1.025177    0.126865
    110          1           0        8.589089   -0.898738    0.707284
    111          1           0       10.205203    0.200246   -1.696845
    112          1           0        9.423121   -2.384566   -2.032553
    113          1           0       11.096311   -2.111173   -2.135142
    114          1           0       10.271105   -2.682997   -0.661234
    115          1           0       11.222783    0.778461    0.563232
    116          1           0       11.197333   -0.873254    0.910199
    117          1           0       12.676829   -1.197850   -1.183670
    118          1           0       12.523543    0.477299   -1.429332
    119          1           0       13.737450    1.143442    0.491934
    120          1           0       14.092086   -0.657573    0.960167
    121          1           0       15.339570    0.370405   -1.563369
    122          1           0       15.490098   -2.206115   -0.080551
    123          1           0       14.915733   -1.894274   -1.838631
    124          1           0       16.460531   -1.652020   -1.327471
    125          1           0       16.004786    1.471055    0.600934
    126          1           0       16.276888   -0.061355    1.402019
    127          1           0       18.204083   -0.582911   -0.451757
    128          1           0       17.793615    0.983393   -1.181112
    129          1           0       18.381580    2.184179    1.066878
    130          1           0       18.531060    0.720719    1.902218
    131          1           0       20.349473    0.172107    0.092171
    132          1           0       20.159433    2.992026   -0.823824
    133          1           0       21.583049    2.322696   -1.438701
    134          1           0       19.810110    1.621884   -1.771028
    135          1           0       20.980226    1.367999    2.548314
    136          1           0       22.138745    1.707799    1.125189
    137          1           0       21.050722    2.959705    1.611434
 ---------------------------------------------------------------------

 SCF Done:  E(RCAM-B3LYP) =  -2932.55007299     A.U. after   16 cycles

 Excitation energies and oscillator strengths:

 Excited State   1:      Singlet-A      1.9501 eV  635.80 nm  f=0.3123  <S**2>=0.000
     240 -> 243       -0.23500
     241 -> 242        0.66348
 This state for optimization and/or second-order correction.
 Total Energy, E(TD-HF/TD-KS) =  -2932.47840954
 Copying the excited state density for this state as the 1-particle RhoCI density.

 The electronic state is 1-A.
 Alpha  occ. eigenvalues --  -46.83606 -19.25266 -19.25029 -19.20423 -19.20365
 Alpha  occ. eigenvalues --  -19.20006 -14.41348 -14.39394 -14.39385 -14.38641
 Alpha  occ. eigenvalues --  -10.38827 -10.38749 -10.35499 -10.30929 -10.30332
 Alpha  occ. eigenvalues --  -10.29719 -10.29639 -10.29499 -10.29472 -10.29141
 Alpha  occ. eigenvalues --  -10.28969 -10.28850 -10.28618 -10.28372 -10.28370
 Alpha  occ. eigenvalues --  -10.28309 -10.28147 -10.28129 -10.28007 -10.27814
 Alpha  occ. eigenvalues --  -10.27700 -10.27519 -10.27380 -10.27350 -10.27150
 Alpha  occ. eigenvalues --  -10.26929 -10.26786 -10.26673 -10.26493 -10.26473
 Alpha  occ. eigenvalues --  -10.26465 -10.26422 -10.26387 -10.26384 -10.26230
 Alpha  occ. eigenvalues --  -10.26164 -10.25668 -10.25642 -10.25552 -10.25537
 Alpha  occ. eigenvalues --  -10.25440 -10.25433 -10.25390 -10.25330 -10.25281
 Alpha  occ. eigenvalues --  -10.25246 -10.25106 -10.24883 -10.24319 -10.24291
 Alpha  occ. eigenvalues --  -10.24197 -10.23851 -10.23758 -10.23666 -10.23098
 Alpha  occ. eigenvalues --   -3.12867  -1.87546  -1.87095  -1.87080  -1.17636
 Alpha  occ. eigenvalues --   -1.17011  -1.09211  -1.08794  -1.08683  -1.04496
 Alpha  occ. eigenvalues --   -1.03407  -1.03313  -1.02203  -0.91875  -0.91661
 Alpha  occ. eigenvalues --   -0.91602  -0.90160  -0.89814  -0.89476  -0.89137
 Alpha  occ. eigenvalues --   -0.89123  -0.88411  -0.87531  -0.87238  -0.86260
 Alpha  occ. eigenvalues --   -0.84754  -0.84318  -0.83524  -0.83140  -0.82452
 Alpha  occ. eigenvalues --   -0.82100  -0.81792  -0.80829  -0.80128  -0.78883
 Alpha  occ. eigenvalues --   -0.78043  -0.77306  -0.76814  -0.76654  -0.75770
 Alpha  occ. eigenvalues --   -0.75666  -0.75261  -0.74601  -0.73338  -0.72903
 Alpha  occ. eigenvalues --   -0.72327  -0.71149  -0.70591  -0.69403  -0.68385
 Alpha  occ. eigenvalues --   -0.67515  -0.67415  -0.66425  -0.65465  -0.64730
 Alpha  occ. eigenvalues --   -0.63870  -0.63762  -0.62621  -0.62568  -0.62170
 Alpha  occ. eigenvalues --   -0.62162  -0.61156  -0.60521  -0.59940  -0.59681
 Alpha  occ. eigenvalues --   -0.58986  -0.58568  -0.58115  -0.57165  -0.56687
 Alpha  occ. eigenvalues --   -0.56590  -0.56443  -0.55890  -0.55652  -0.55128
 Alpha  occ. eigenvalues --   -0.54554  -0.53940  -0.53647  -0.53341  -0.53030
 Alpha  occ. eigenvalues --   -0.52498  -0.52394  -0.52349  -0.52111  -0.51866
 Alpha  occ. eigenvalues --   -0.51349  -0.51108  -0.51000  -0.50878  -0.50428
 Alpha  occ. eigenvalues --   -0.50375  -0.50170  -0.50115  -0.49604  -0.49377
 Alpha  occ. eigenvalues --   -0.49124  -0.48809  -0.48793  -0.48681  -0.48342
 Alpha  occ. eigenvalues --   -0.48113  -0.48053  -0.47735  -0.47525  -0.47221
 Alpha  occ. eigenvalues --   -0.47169  -0.46842  -0.46452  -0.46339  -0.45930
 Alpha  occ. eigenvalues --   -0.45879  -0.45734  -0.45520  -0.45248  -0.45128
 Alpha  occ. eigenvalues --   -0.44780  -0.44740  -0.44464  -0.44336  -0.44086
 Alpha  occ. eigenvalues --   -0.43658  -0.43461  -0.43389  -0.43205  -0.42978
 Alpha  occ. eigenvalues --   -0.42785  -0.42649  -0.42475  -0.42209  -0.42159
 Alpha  occ. eigenvalues --   -0.42009  -0.41862  -0.41603  -0.41528  -0.41391
 Alpha  occ. eigenvalues --   -0.41382  -0.40949  -0.40812  -0.40428  -0.40408
 Alpha  occ. eigenvalues --   -0.40051  -0.39982  -0.39549  -0.39018  -0.38989
 Alpha  occ. eigenvalues --   -0.38884  -0.38548  -0.38389  -0.38148  -0.37830
 Alpha  occ. eigenvalues --   -0.37680  -0.37469  -0.37381  -0.37316  -0.36838
 Alpha  occ. eigenvalues --   -0.36298  -0.36082  -0.35886  -0.35473  -0.35031
 Alpha  occ. eigenvalues --   -0.34817  -0.34524  -0.33502  -0.33385  -0.33107
 Alpha  occ. eigenvalues --   -0.32822  -0.32747  -0.32023  -0.30976  -0.30166
 Alpha  occ. eigenvalues --   -0.29628  -0.29314  -0.28776  -0.27248  -0.22496
 Alpha  occ. eigenvalues --   -0.20532
 Alpha virt. eigenvalues --   -0.06531  -0.01838   0.01432   0.04294   0.04341
 Alpha virt. eigenvalues --    0.05815   0.06664   0.07065   0.07224   0.08329
 Alpha virt. eigenvalues --    0.08561   0.11291   0.11567   0.11588   0.11692

 Mulliken charges:
               1
     1  Mg   0.837577
     2  C    0.028745
     3  C   -0.172158
     4  C   -0.166717
     5  C   -0.182646
     6  N   -0.611837
     7  C    0.335882
     8  C   -0.089547
     9  C   -0.136677
    10  C    0.263451
    11  C   -0.315659
    12  C   -0.184781
    13  C   -0.278641
    14  C    0.603598
    15  O   -0.460053
    16  O   -0.500951
    17  N   -0.709004
    18  C    0.284167
    19  C   -0.021243
    20  C    0.060858
    21  C    0.318553
    22  C   -0.360193
    23  C   -0.091963
    24  C   -0.240739
    25  N   -0.711040
    26  C    0.290753
    27  C    0.097800
    28  C    0.015059
    29  C    0.294626
    30  C   -0.433317
    31  C   -0.245662
    32  C   -0.321252
    33  N   -0.714158
    34  C    0.232710
    35  C    0.031226
    36  C   -0.010784
    37  C    0.317408
    38  C   -0.368548
    39  C    0.378901
    40  O   -0.472627
    41  C   -0.314924
    42  C    0.630144
    43  O   -0.466584
    44  O   -0.470578
    45  C   -0.076771
    46  C    0.044183
    47  C   -0.149650
    48  C    0.147232
    49  C   -0.400143
    50  C   -0.227389
    51  C   -0.192801
    52  C   -0.167116
    53  C   -0.047404
    54  C   -0.327618
    55  C   -0.197498
    56  C   -0.160671
    57  C   -0.146990
    58  C   -0.067567
    59  C   -0.310474
    60  C   -0.140760
    61  C   -0.157365
    62  C   -0.179153
    63  C   -0.025239
    64  C   -0.316811
    65  C   -0.303548
    66  H    0.081992
    67  H    0.058167
    68  H    0.095430
    69  H    0.086074
    70  H    0.108804
    71  H    0.099156
    72  H    0.118954
    73  H    0.124833
    74  H    0.093265
    75  H    0.121373
    76  H    0.134556
    77  H    0.122129
    78  H    0.103169
    79  H    0.142492
    80  H    0.108647
    81  H    0.095269
    82  H    0.097053
    83  H    0.097954
    84  H    0.122609
    85  H    0.112599
    86  H    0.128364
    87  H    0.092924
    88  H    0.110283
    89  H    0.094035
    90  H    0.108513
    91  H    0.129039
    92  H    0.123447
    93  H    0.152879
    94  H    0.126458
    95  H    0.170100
    96  H    0.130432
    97  H    0.144121
    98  H    0.130525
    99  H    0.121520
   100  H    0.114549
   101  H    0.089124
   102  H    0.124669
   103  H    0.124848
   104  H    0.116043
   105  H    0.098332
   106  H    0.110545
   107  H    0.100858
   108  H    0.094616
   109  H    0.079688
   110  H    0.099920
   111  H    0.091921
   112  H    0.107339
   113  H    0.096939
   114  H    0.093257
   115  H    0.066501
   116  H    0.085710
   117  H    0.112205
   118  H    0.109512
   119  H    0.044828
   120  H    0.088462
   121  H    0.083535
   122  H    0.109953
   123  H    0.086031
   124  H    0.109080
   125  H    0.068080
   126  H    0.058590
   127  H    0.090622
   128  H    0.072332
   129  H    0.056689
   130  H    0.081360
   131  H    0.090844
   132  H    0.120742
   133  H    0.103669
   134  H    0.064064
   135  H    0.092651
   136  H    0.118054
   137  H    0.091056
 Sum of Mulliken charges =   0.00000

 Dipole moment (field-independent basis, Debye):
    X=              2.0510    Y=              4.2070    Z=             -0.3191  Tot=              4.6911
 Quadrupole moment (field-independent basis, Debye-Ang):
   XX=           -333.8447   YY=           -390.0961   ZZ=           -391.3176
   XY=            -16.7731   XZ=              7.0248   YZ=             -6.7475

 Normal termination of Gaussian 09 at Fri Jul  5 05:03:30 2019.
