 Gaussian 16, Revision A.03,
 Gaussian 16:  ES64L-G16RevA.03 25-Dec-2016

 ----------------------------------------------------------------------
 # td=(NStates=1) iop(3/107=0140000000,3/108=0140000000) CAM-B3LYP/6-31
 G(d,p)
 ----------------------------------------------------------------------

 --
 TD
 --
 Symbolic Z-matrix:
 Charge =  0 Multiplicity = 1

                         Standard orientation:
 ---------------------------------------------------------------------
 Center     Atomic      Atomic             Coordinates (Angstroms)
 Number     Number       Type             X           Y           Z
 ---------------------------------------------------------------------
      1         12           0       -7.160793    0.561838    0.178504
      2          6           0       -4.865852   -2.016019    0.560423
      3          6           0       -4.747221    2.753757    1.279080
      4          6           0       -9.381382    3.120215   -0.356896
      5          6           0       -9.542633   -1.695457   -0.993401
      6          7           0       -5.147807    0.487853    0.706198
      7          6           0       -4.438591   -0.741634    0.835864
      8          6           0       -2.983882   -0.445505    1.186733
      9          6           0       -3.079741    1.024222    1.679485
     10          6           0       -4.369045    1.423671    1.187650
     11          6           0       -2.932335    1.155161    3.224752
     12          6           0       -1.927370   -0.707876    0.080614
     13          6           0       -0.549737   -0.536119    0.593109
     14          6           0        0.512965   -0.767973   -0.592045
     15          8           0        0.220613   -1.021727   -1.756267
     16          8           0        1.772720   -0.573218   -0.166553
     17          7           0       -7.050284    2.594794    0.487929
     18          6           0       -6.050009    3.336524    0.923776
     19          6           0       -6.439797    4.767830    0.962781
     20          6           0       -7.630095    4.765508    0.407614
     21          6           0       -8.091587    3.403395    0.163737
     22          6           0       -5.501847    5.871561    1.323133
     23          6           0       -8.400421    5.950456    0.191025
     24          6           0       -8.209632    7.251192    0.584937
     25          7           0       -9.067919    0.720977   -0.606604
     26          6           0       -9.809190    1.860487   -0.641415
     27          6           0      -11.204830    1.557906   -1.107959
     28          6           0      -11.195513    0.268758   -1.262091
     29          6           0       -9.863064   -0.309150   -0.929679
     30          6           0      -12.254856    2.603099   -1.421213
     31          6           0      -12.406395   -0.494049   -1.901586
     32          6           0      -12.305583   -0.901875   -3.337267
     33          7           0       -7.264713   -1.391184   -0.192020
     34          6           0       -8.303929   -2.238457   -0.575346
     35          6           0       -7.873649   -3.587733   -0.558580
     36          6           0       -6.584289   -3.507587   -0.030261
     37          6           0       -6.235786   -2.196282    0.154405
     38          6           0       -8.583310   -4.806012   -0.924817
     39          6           0       -5.429745   -4.344030    0.146003
     40          8           0       -5.277551   -5.548088    0.128034
     41          6           0       -4.211941   -3.233905    0.500225
     42          6           0       -3.611497   -3.706767    1.791799
     43          8           0       -3.863695   -3.312414    2.959874
     44          8           0       -2.738910   -4.744260    1.686389
     45          6           0       -2.302085   -5.429021    2.896240
     46          6           0        2.805876   -0.711869   -1.274117
     47          6           0        4.079597   -0.603602   -0.644382
     48          6           0        5.078336    0.353508   -0.990018
     49          6           0        5.138192    1.324352   -2.198062
     50          6           0        6.378749    0.391918   -0.189580
     51          6           0        7.625247   -0.171991   -0.931777
     52          6           0        8.924960   -0.076239   -0.149832
     53          6           0       10.217610   -0.484143   -0.900464
     54          6           0       10.052313   -1.980742   -1.385735
     55          6           0       11.507819   -0.272916   -0.018179
     56          6           0       12.818129   -0.262759   -0.651130
     57          6           0       13.979030   -0.017254    0.246354
     58          6           0       15.448736   -0.173767   -0.315101
     59          6           0       15.618014   -1.587065   -0.845581
     60          6           0       16.413031    0.434836    0.513259
     61          6           0       17.821410    0.547447   -0.063696
     62          6           0       18.829282    1.327949    0.717599
     63          6           0       20.273506    1.349694    0.163040
     64          6           0       20.209784    2.143941   -1.180207
     65          6           0       21.394566    1.686736    1.221112
     66          1           0       -3.960480    3.567262    1.771308
     67          1           0      -10.006095    4.029422   -0.325746
     68          1           0      -10.244558   -2.396403   -1.193074
     69          1           0       -2.765588   -1.113731    2.006185
     70          1           0       -2.315020    1.695165    1.225995
     71          1           0       -2.067562    0.810263    3.644747
     72          1           0       -3.122497    2.156447    3.423542
     73          1           0       -3.604430    0.359807    3.782435
     74          1           0       -1.921962   -1.660634   -0.097760
     75          1           0       -1.911072    0.033320   -0.717815
     76          1           0       -0.174980    0.294078    1.144581
     77          1           0       -0.304959   -1.262619    1.402124
     78          1           0       -5.680066    6.563325    0.581288
     79          1           0       -5.776875    6.464720    2.271954
     80          1           0       -4.483194    5.650398    1.077408
     81          1           0       -9.280982    5.799588   -0.438698
     82          1           0       -8.907719    7.977458    0.394316
     83          1           0       -7.434031    7.365957    1.264072
     84          1           0      -11.835790    3.100020   -2.486842
     85          1           0      -13.138484    2.202414   -1.702130
     86          1           0      -12.179017    3.389669   -0.477635
     87          1           0      -12.592873   -1.503458   -1.275950
     88          1           0      -13.315358    0.085863   -1.612994
     89          1           0      -13.186446   -1.676810   -3.620075
     90          1           0      -12.539203   -0.173293   -3.973881
     91          1           0      -11.187930   -1.512554   -3.482151
     92          1           0       -8.729414   -4.880333   -2.003264
     93          1           0       -7.897757   -5.759017   -0.560771
     94          1           0       -9.663975   -4.728383   -0.559926
     95          1           0       -3.436590   -3.539367   -0.241063
     96          1           0       -1.391633   -4.638799    3.492805
     97          1           0       -3.027703   -5.714856    3.780855
     98          1           0       -1.642391   -6.280781    2.571483
     99          1           0        2.626015   -1.627937   -1.646567
    100          1           0        2.516429    0.017512   -2.100123
    101          1           0        4.128418   -1.088795    0.433115
    102          1           0        4.221788    1.007487   -2.680697
    103          1           0        5.165274    2.484645   -1.776615
    104          1           0        5.937690    1.159715   -2.975882
    105          1           0        6.922739    1.345563    0.068313
    106          1           0        6.192531    0.023400    0.768016
    107          1           0        7.399361   -1.188891   -1.362716
    108          1           0        7.749834    0.366950   -1.713215
    109          1           0        9.104413    1.001747    0.324940
    110          1           0        8.726153   -0.502351    0.814456
    111          1           0       10.146458   -0.036072   -1.787500
    112          1           0        9.295138   -2.156883   -2.259939
    113          1           0       11.113686   -2.392995   -1.570176
    114          1           0        9.710270   -2.536313   -0.575742
    115          1           0       11.417409    0.695349    0.377514
    116          1           0       11.542286   -1.190384    0.738743
    117          1           0       12.929786   -1.367842   -1.279911
    118          1           0       12.730746    0.526498   -1.529286
    119          1           0       14.041397    1.114206    0.494669
    120          1           0       13.836771   -0.665842    1.243042
    121          1           0       15.297449    0.400854   -1.380422
    122          1           0       15.721013   -2.426192   -0.083838
    123          1           0       14.926319   -2.043900   -1.588754
    124          1           0       16.601617   -1.684799   -1.549091
    125          1           0       16.013208    1.381654    0.752830
    126          1           0       16.327934   -0.112622    1.385337
    127          1           0       18.402224   -0.531657   -0.090579
    128          1           0       17.752167    0.950287   -1.084492
    129          1           0       18.506351    2.298180    0.732431
    130          1           0       18.655553    0.894071    1.703403
    131          1           0       20.498559    0.466938   -0.182715
    132          1           0       19.609788    3.194734   -1.062111
    133          1           0       21.212876    2.333084   -1.809820
    134          1           0       19.446670    1.773295   -1.882450
    135          1           0       21.389987    0.980067    2.043467
    136          1           0       22.441611    1.641415    0.630657
    137          1           0       21.345971    2.762265    1.687999
 ---------------------------------------------------------------------

 SCF Done:  E(RCAM-B3LYP) =  -2933.44912362     A.U. after   16 cycles

 Excitation energies and oscillator strengths:

 Excited State   1:      Singlet-A      1.9883 eV  623.55 nm  f=0.3081  <S**2>=0.000
     240 -> 243        0.19319
     241 -> 242        0.67882
 This state for optimization and/or second-order correction.
 Total Energy, E(TD-HF/TD-DFT) =  -2933.37605325
 Copying the excited state density for this state as the 1-particle RhoCI density.

 The electronic state is 1-A.
 Alpha  occ. eigenvalues --  -46.79930 -19.21776 -19.21771 -19.16660 -19.16299
 Alpha  occ. eigenvalues --  -19.14904 -14.37724 -14.35926 -14.35619 -14.35033
 Alpha  occ. eigenvalues --  -10.34298 -10.33826 -10.30682 -10.29487 -10.27014
 Alpha  occ. eigenvalues --  -10.25949 -10.25942 -10.25735 -10.25392 -10.25324
 Alpha  occ. eigenvalues --  -10.25160 -10.25076 -10.24412 -10.24271 -10.23956
 Alpha  occ. eigenvalues --  -10.23854 -10.23670 -10.23558 -10.23240 -10.22940
 Alpha  occ. eigenvalues --  -10.22907 -10.22865 -10.22819 -10.22784 -10.22753
 Alpha  occ. eigenvalues --  -10.22717 -10.22699 -10.22674 -10.22654 -10.22543
 Alpha  occ. eigenvalues --  -10.22535 -10.22321 -10.22274 -10.22273 -10.22236
 Alpha  occ. eigenvalues --  -10.22142 -10.21743 -10.21654 -10.21580 -10.21519
 Alpha  occ. eigenvalues --  -10.21502 -10.21476 -10.21457 -10.21411 -10.21395
 Alpha  occ. eigenvalues --  -10.21298 -10.21139 -10.20919 -10.20751 -10.20745
 Alpha  occ. eigenvalues --  -10.20629 -10.20185 -10.19922 -10.19756 -10.19479
 Alpha  occ. eigenvalues --   -3.08625  -1.83562  -1.83132  -1.83003  -1.11785
 Alpha  occ. eigenvalues --   -1.11153  -1.06342  -1.02970  -1.00680  -1.00535
 Alpha  occ. eigenvalues --   -0.99574  -0.99341  -0.98433  -0.88827  -0.86899
 Alpha  occ. eigenvalues --   -0.85824  -0.85555  -0.85343  -0.84508  -0.83892
 Alpha  occ. eigenvalues --   -0.83812  -0.83498  -0.82959  -0.82193  -0.81680
 Alpha  occ. eigenvalues --   -0.80881  -0.79387  -0.78919  -0.78742  -0.78113
 Alpha  occ. eigenvalues --   -0.76827  -0.76356  -0.75719  -0.75490  -0.74224
 Alpha  occ. eigenvalues --   -0.73170  -0.72635  -0.71475  -0.71197  -0.70840
 Alpha  occ. eigenvalues --   -0.70791  -0.70107  -0.69896  -0.68887  -0.68234
 Alpha  occ. eigenvalues --   -0.67468  -0.66247  -0.64817  -0.64351  -0.64161
 Alpha  occ. eigenvalues --   -0.63214  -0.62921  -0.61453  -0.61156  -0.60960
 Alpha  occ. eigenvalues --   -0.60332  -0.59866  -0.59026  -0.58736  -0.57253
 Alpha  occ. eigenvalues --   -0.57208  -0.56408  -0.56060  -0.55814  -0.55463
 Alpha  occ. eigenvalues --   -0.55035  -0.54329  -0.54147  -0.52931  -0.52636
 Alpha  occ. eigenvalues --   -0.52271  -0.51870  -0.51598  -0.51327  -0.50866
 Alpha  occ. eigenvalues --   -0.50400  -0.49817  -0.49671  -0.49612  -0.49565
 Alpha  occ. eigenvalues --   -0.48833  -0.48707  -0.48506  -0.48234  -0.48097
 Alpha  occ. eigenvalues --   -0.47905  -0.47577  -0.47297  -0.47143  -0.46901
 Alpha  occ. eigenvalues --   -0.46586  -0.46535  -0.46179  -0.46073  -0.45937
 Alpha  occ. eigenvalues --   -0.45794  -0.45620  -0.45427  -0.45370  -0.45139
 Alpha  occ. eigenvalues --   -0.44725  -0.44378  -0.44117  -0.43963  -0.43547
 Alpha  occ. eigenvalues --   -0.43395  -0.43360  -0.43044  -0.42878  -0.42631
 Alpha  occ. eigenvalues --   -0.42439  -0.42411  -0.42048  -0.41742  -0.41420
 Alpha  occ. eigenvalues --   -0.41335  -0.41239  -0.41124  -0.40851  -0.40767
 Alpha  occ. eigenvalues --   -0.40359  -0.40302  -0.40210  -0.40099  -0.40017
 Alpha  occ. eigenvalues --   -0.39751  -0.39527  -0.39433  -0.39294  -0.39274
 Alpha  occ. eigenvalues --   -0.38906  -0.38796  -0.38596  -0.38470  -0.38299
 Alpha  occ. eigenvalues --   -0.37994  -0.37759  -0.37586  -0.37137  -0.36837
 Alpha  occ. eigenvalues --   -0.36771  -0.36185  -0.36063  -0.35968  -0.35790
 Alpha  occ. eigenvalues --   -0.35618  -0.35270  -0.34955  -0.34678  -0.34458
 Alpha  occ. eigenvalues --   -0.34283  -0.34129  -0.34046  -0.33702  -0.33609
 Alpha  occ. eigenvalues --   -0.33331  -0.33234  -0.33111  -0.32914  -0.32764
 Alpha  occ. eigenvalues --   -0.32407  -0.32094  -0.31179  -0.30800  -0.30761
 Alpha  occ. eigenvalues --   -0.29936  -0.29744  -0.28588  -0.28219  -0.27274
 Alpha  occ. eigenvalues --   -0.26730  -0.26630  -0.26556  -0.25576  -0.22052
 Alpha  occ. eigenvalues --   -0.20005
 Alpha virt. eigenvalues --   -0.07590  -0.03045   0.00104   0.01355   0.01981
 Alpha virt. eigenvalues --    0.03717   0.04352   0.04830   0.05367   0.05406
 Alpha virt. eigenvalues --    0.06673   0.08409   0.09426   0.09429   0.09839

 Mulliken charges:
               1
     1  Mg   0.814078
     2  C    0.189340
     3  C   -0.231825
     4  C   -0.166086
     5  C   -0.142732
     6  N   -0.646551
     7  C    0.284707
     8  C   -0.181954
     9  C   -0.166537
    10  C    0.430301
    11  C   -0.307262
    12  C   -0.115316
    13  C   -0.295204
    14  C    0.598345
    15  O   -0.485307
    16  O   -0.484488
    17  N   -0.711119
    18  C    0.294941
    19  C    0.018479
    20  C    0.033668
    21  C    0.327846
    22  C   -0.399552
    23  C   -0.093660
    24  C   -0.233959
    25  N   -0.693330
    26  C    0.300917
    27  C    0.068760
    28  C   -0.009468
    29  C    0.314533
    30  C   -0.335502
    31  C   -0.240649
    32  C   -0.274146
    33  N   -0.758765
    34  C    0.252723
    35  C    0.076277
    36  C    0.012814
    37  C    0.294333
    38  C   -0.402215
    39  C    0.345725
    40  O   -0.455828
    41  C   -0.409158
    42  C    0.622416
    43  O   -0.509036
    44  O   -0.444263
    45  C   -0.055635
    46  C    0.014924
    47  C   -0.137519
    48  C    0.091524
    49  C   -0.345207
    50  C   -0.221125
    51  C   -0.171619
    52  C   -0.187486
    53  C   -0.045457
    54  C   -0.326673
    55  C   -0.152921
    56  C   -0.154175
    57  C   -0.156445
    58  C   -0.042134
    59  C   -0.310281
    60  C   -0.149806
    61  C   -0.174973
    62  C   -0.172645
    63  C   -0.021084
    64  C   -0.327070
    65  C   -0.312805
    66  H    0.069150
    67  H    0.091402
    68  H    0.075034
    69  H    0.119625
    70  H    0.106533
    71  H    0.122708
    72  H    0.113613
    73  H    0.110716
    74  H    0.119879
    75  H    0.122604
    76  H    0.131817
    77  H    0.121569
    78  H    0.142497
    79  H    0.124520
    80  H    0.120740
    81  H    0.070702
    82  H    0.103132
    83  H    0.083408
    84  H    0.101365
    85  H    0.123785
    86  H    0.107436
    87  H    0.079990
    88  H    0.096845
    89  H    0.081556
    90  H    0.125770
    91  H    0.084439
    92  H    0.134171
    93  H    0.138378
    94  H    0.115407
    95  H    0.162604
    96  H    0.057499
    97  H    0.143646
    98  H    0.129849
    99  H    0.143516
   100  H    0.129983
   101  H    0.104531
   102  H    0.106403
   103  H    0.111427
   104  H    0.127227
   105  H    0.089662
   106  H    0.095089
   107  H    0.090210
   108  H    0.109696
   109  H    0.056105
   110  H    0.098084
   111  H    0.096100
   112  H    0.093066
   113  H    0.087747
   114  H    0.116036
   115  H    0.099935
   116  H    0.077687
   117  H    0.053267
   118  H    0.074112
   119  H    0.077997
   120  H    0.069375
   121  H    0.054555
   122  H    0.086994
   123  H    0.111982
   124  H    0.074243
   125  H    0.096644
   126  H    0.100570
   127  H    0.067187
   128  H    0.089316
   129  H    0.096927
   130  H    0.084511
   131  H    0.107105
   132  H    0.069436
   133  H    0.088859
   134  H    0.114091
   135  H    0.113699
   136  H    0.082806
   137  H    0.093758
 Sum of Mulliken charges =  -0.00000

 Dipole moment (field-independent basis, Debye):
    X=              0.8516    Y=              5.0519    Z=             -0.0964  Tot=              5.1241
 Quadrupole moment (field-independent basis, Debye-Ang):
   XX=           -339.1447   YY=           -396.9477   ZZ=           -398.8880
   XY=            -24.6421   XZ=             15.3834   YZ=              0.3763

 Normal termination of Gaussian 16 at Wed Sep 11 23:29:24 2019.
