 Gaussian 09, Revision D.01,
 Gaussian 09:  ES64L-G09RevD.01 24-Apr-2013

 -------------------------------------
 # td=(NStates=1) CAM-B3LYP/6-31G(d,p)
 -------------------------------------

 --
 TD
 --
 Symbolic Z-matrix:
 Charge =  0 Multiplicity = 1

                         Standard orientation:
 ---------------------------------------------------------------------
 Center     Atomic      Atomic             Coordinates (Angstroms)
 Number     Number       Type             X           Y           Z
 ---------------------------------------------------------------------
      1         12           0       -7.168182    0.637693    0.111148
      2          6           0       -4.775441   -1.933341    0.404251
      3          6           0       -4.882449    2.793898    1.163645
      4          6           0       -9.421264    3.054439   -0.407695
      5          6           0       -9.644921   -1.792664   -0.800873
      6          7           0       -5.177240    0.475129    0.744876
      7          6           0       -4.340955   -0.685088    0.704906
      8          6           0       -2.892179   -0.373409    1.119309
      9          6           0       -3.075560    1.056715    1.697699
     10          6           0       -4.481924    1.459964    1.156639
     11          6           0       -3.043862    1.180032    3.272538
     12          6           0       -1.856940   -0.530404   -0.000572
     13          6           0       -0.428303   -0.457622    0.513123
     14          6           0        0.575027   -0.679660   -0.601050
     15          8           0        0.278177   -0.888265   -1.789580
     16          8           0        1.856960   -0.551718   -0.108469
     17          7           0       -7.079717    2.647050    0.272322
     18          6           0       -6.084664    3.329494    0.771846
     19          6           0       -6.437087    4.745303    0.885416
     20          6           0       -7.689915    4.875826    0.475096
     21          6           0       -8.171820    3.453417    0.094469
     22          6           0       -5.431871    5.879944    1.077524
     23          6           0       -8.571156    6.082657    0.150139
     24          6           0       -8.521413    7.172697    0.884792
     25          7           0       -9.221768    0.641202   -0.511806
     26          6           0       -9.865092    1.776273   -0.651500
     27          6           0      -11.250109    1.455318   -1.209414
     28          6           0      -11.280664    0.129221   -1.251602
     29          6           0       -9.997455   -0.493044   -0.785265
     30          6           0      -12.228717    2.450691   -1.530254
     31          6           0      -12.371541   -0.693931   -1.811532
     32          6           0      -12.312089   -1.137214   -3.239402
     33          7           0       -7.211691   -1.474607   -0.252557
     34          6           0       -8.332719   -2.313265   -0.527091
     35          6           0       -7.921527   -3.622216   -0.464714
     36          6           0       -6.531234   -3.636039   -0.040732
     37          6           0       -6.158599   -2.221026    0.095009
     38          6           0       -8.702331   -4.879646   -0.889554
     39          6           0       -5.350954   -4.407121    0.258548
     40          8           0       -5.256444   -5.607395    0.211127
     41          6           0       -4.161141   -3.313055    0.522794
     42          6           0       -3.514236   -3.646192    1.789435
     43          8           0       -3.795311   -3.116600    2.851430
     44          8           0       -2.725134   -4.722577    1.620441
     45          6           0       -2.200391   -5.175370    2.942494
     46          6           0        2.902018   -0.692296   -1.181582
     47          6           0        4.172187   -0.313904   -0.443575
     48          6           0        5.173143    0.432163   -0.894726
     49          6           0        5.132096    1.290326   -2.065655
     50          6           0        6.556185    0.503997   -0.201789
     51          6           0        7.653125   -0.067844   -0.945138
     52          6           0        8.934963    0.146496   -0.049342
     53          6           0       10.249881   -0.510677   -0.794844
     54          6           0       10.057314   -2.017617   -0.970063
     55          6           0       11.545136   -0.267234    0.097459
     56          6           0       12.833834   -0.524428   -0.640323
     57          6           0       13.963052    0.021094    0.160650
     58          6           0       15.273588   -0.227627   -0.549034
     59          6           0       15.629260   -1.689014   -0.849218
     60          6           0       16.448454    0.325954    0.352837
     61          6           0       17.881378    0.540956   -0.250670
     62          6           0       18.922828    1.175583    0.705964
     63          6           0       20.300802    1.236902    0.128317
     64          6           0       20.271445    2.150544   -1.175834
     65          6           0       21.224473    1.732634    1.175220
     66          1           0       -4.312398    3.780394    1.606184
     67          1           0      -10.153846    3.773817   -0.707670
     68          1           0      -10.496562   -2.447023   -0.903533
     69          1           0       -2.634858   -0.991831    2.032055
     70          1           0       -2.320554    1.756347    1.438509
     71          1           0       -2.091606    1.044142    3.774945
     72          1           0       -3.242838    2.316963    3.562981
     73          1           0       -3.717987    0.363169    3.680697
     74          1           0       -1.844753   -1.470291   -0.471624
     75          1           0       -2.046670    0.141741   -0.627835
     76          1           0       -0.082573    0.573125    1.093935
     77          1           0       -0.070865   -1.310354    1.186656
     78          1           0       -5.760731    6.821698    0.654351
     79          1           0       -5.148909    6.034436    2.173307
     80          1           0       -4.550753    5.695122    0.504546
     81          1           0       -8.945701    6.226736   -0.853732
     82          1           0       -9.189038    7.967550    0.386381
     83          1           0       -7.910660    7.337365    1.710777
     84          1           0      -11.972152    3.008317   -2.325149
     85          1           0      -13.093407    2.045704   -1.888977
     86          1           0      -12.129064    3.107947   -0.601778
     87          1           0      -12.595071   -1.475460   -0.990052
     88          1           0      -13.304589   -0.170431   -1.513300
     89          1           0      -13.084780   -2.027473   -3.578350
     90          1           0      -12.356210   -0.082283   -3.806532
     91          1           0      -11.398319   -1.733163   -3.389304
     92          1           0       -8.864496   -4.795878   -2.045498
     93          1           0       -8.130934   -5.739292   -0.942462
     94          1           0       -9.696642   -4.864971   -0.274592
     95          1           0       -3.364558   -3.541877   -0.328913
     96          1           0       -1.556124   -4.418387    3.342005
     97          1           0       -3.083866   -5.463375    3.584024
     98          1           0       -1.788362   -6.287318    2.687632
     99          1           0        2.922218   -1.600939   -1.497840
    100          1           0        2.448078    0.140892   -1.888212
    101          1           0        4.359141   -1.019805    0.306948
    102          1           0        4.225484    1.265825   -2.430888
    103          1           0        5.528002    2.408616   -2.025719
    104          1           0        5.762208    1.059911   -2.993403
    105          1           0        6.602056    1.426443   -0.039588
    106          1           0        6.564030   -0.076263    0.785133
    107          1           0        7.543173   -1.087170   -1.136736
    108          1           0        7.619650    0.318051   -1.864017
    109          1           0        8.859270    1.272301    0.124864
    110          1           0        8.787115   -0.245654    1.031189
    111          1           0       10.433110    0.088053   -1.695365
    112          1           0        9.162157   -2.157989   -1.639589
    113          1           0       10.946751   -2.569954   -1.324421
    114          1           0        9.912905   -2.477275   -0.018270
    115          1           0       11.621137    0.911489    0.453608
    116          1           0       11.309340   -0.785127    1.036334
    117          1           0       12.890194   -1.595329   -0.729820
    118          1           0       12.881085    0.039553   -1.771710
    119          1           0       13.895107    1.090694    0.559156
    120          1           0       13.992625   -0.687972    1.107171
    121          1           0       15.358440    0.422920   -1.535649
    122          1           0       15.353129   -2.570301   -0.145631
    123          1           0       14.894688   -1.866147   -1.568843
    124          1           0       16.747806   -1.878575   -1.307674
    125          1           0       16.064542    1.362283    0.793172
    126          1           0       16.560774   -0.262754    1.212095
    127          1           0       18.329029   -0.270257   -0.651048
    128          1           0       17.717291    1.141412   -1.165618
    129          1           0       18.451568    2.234674    0.945533
    130          1           0       18.756486    0.787405    1.602342
    131          1           0       20.636661    0.281077   -0.434225
    132          1           0       19.929779    3.114035   -1.173615
    133          1           0       21.406666    2.051418   -1.397605
    134          1           0       19.569593    1.544630   -1.913495
    135          1           0       20.995636    1.088881    1.934433
    136          1           0       22.237012    1.717056    0.858596
    137          1           0       21.033044    2.717905    1.783057
 ---------------------------------------------------------------------

 SCF Done:  E(RCAM-B3LYP) =  -2932.63661404     A.U. after   16 cycles

 Excitation energies and oscillator strengths:

 Excited State   1:      Singlet-A      2.2323 eV  555.40 nm  f=0.2716  <S**2>=0.000
     240 -> 242       -0.17205
     240 -> 243       -0.17733
     241 -> 242        0.65018
     241 -> 243       -0.10298
 This state for optimization and/or second-order correction.
 Total Energy, E(TD-HF/TD-KS) =  -2932.55457742
 Copying the excited state density for this state as the 1-particle RhoCI density.

 The electronic state is 1-A.
 Alpha  occ. eigenvalues --  -46.85343 -19.25845 -19.25528 -19.20875 -19.19682
 Alpha  occ. eigenvalues --  -19.18456 -14.42421 -14.39898 -14.39426 -14.38329
 Alpha  occ. eigenvalues --  -10.39056 -10.37784 -10.33579 -10.32105 -10.31764
 Alpha  occ. eigenvalues --  -10.31635 -10.31479 -10.30355 -10.30123 -10.29683
 Alpha  occ. eigenvalues --  -10.28947 -10.28378 -10.28339 -10.28108 -10.27946
 Alpha  occ. eigenvalues --  -10.27843 -10.27638 -10.27560 -10.27480 -10.27428
 Alpha  occ. eigenvalues --  -10.27389 -10.27364 -10.27261 -10.27227 -10.27026
 Alpha  occ. eigenvalues --  -10.27009 -10.26991 -10.26938 -10.26926 -10.26905
 Alpha  occ. eigenvalues --  -10.26527 -10.26509 -10.26477 -10.26436 -10.26373
 Alpha  occ. eigenvalues --  -10.26167 -10.26101 -10.26088 -10.25689 -10.25662
 Alpha  occ. eigenvalues --  -10.25598 -10.25512 -10.25449 -10.25409 -10.25220
 Alpha  occ. eigenvalues --  -10.24814 -10.24769 -10.24751 -10.24666 -10.24061
 Alpha  occ. eigenvalues --  -10.23865 -10.23747 -10.23637 -10.23421 -10.23290
 Alpha  occ. eigenvalues --   -3.14168  -1.88897  -1.88408  -1.88318  -1.16945
 Alpha  occ. eigenvalues --   -1.15746  -1.09739  -1.07857  -1.07532  -1.06126
 Alpha  occ. eigenvalues --   -1.04928  -1.03180  -1.00931  -0.92344  -0.91551
 Alpha  occ. eigenvalues --   -0.90711  -0.90200  -0.90020  -0.89703  -0.89642
 Alpha  occ. eigenvalues --   -0.88970  -0.88171  -0.87381  -0.86347  -0.85652
 Alpha  occ. eigenvalues --   -0.85058  -0.84881  -0.83968  -0.83410  -0.82978
 Alpha  occ. eigenvalues --   -0.82002  -0.81148  -0.80601  -0.80312  -0.78216
 Alpha  occ. eigenvalues --   -0.77624  -0.77447  -0.76042  -0.75889  -0.75097
 Alpha  occ. eigenvalues --   -0.74952  -0.74877  -0.74232  -0.73503  -0.72575
 Alpha  occ. eigenvalues --   -0.71333  -0.70890  -0.69595  -0.69348  -0.67790
 Alpha  occ. eigenvalues --   -0.67628  -0.66776  -0.65488  -0.65169  -0.64649
 Alpha  occ. eigenvalues --   -0.64197  -0.63249  -0.63017  -0.62313  -0.61598
 Alpha  occ. eigenvalues --   -0.61438  -0.60773  -0.60324  -0.59893  -0.59233
 Alpha  occ. eigenvalues --   -0.58556  -0.58284  -0.57494  -0.57200  -0.55971
 Alpha  occ. eigenvalues --   -0.55872  -0.55535  -0.55154  -0.54872  -0.54704
 Alpha  occ. eigenvalues --   -0.54209  -0.54079  -0.53454  -0.53391  -0.53171
 Alpha  occ. eigenvalues --   -0.52867  -0.52588  -0.52458  -0.52097  -0.51866
 Alpha  occ. eigenvalues --   -0.51573  -0.51418  -0.51109  -0.51025  -0.50772
 Alpha  occ. eigenvalues --   -0.50128  -0.49903  -0.49772  -0.49586  -0.49465
 Alpha  occ. eigenvalues --   -0.49324  -0.49132  -0.49065  -0.48625  -0.48433
 Alpha  occ. eigenvalues --   -0.48070  -0.47810  -0.47673  -0.47568  -0.47431
 Alpha  occ. eigenvalues --   -0.47028  -0.46810  -0.46481  -0.46288  -0.46064
 Alpha  occ. eigenvalues --   -0.46031  -0.45780  -0.45634  -0.45501  -0.45299
 Alpha  occ. eigenvalues --   -0.45122  -0.44675  -0.44544  -0.44345  -0.44257
 Alpha  occ. eigenvalues --   -0.44104  -0.43742  -0.43468  -0.43274  -0.42952
 Alpha  occ. eigenvalues --   -0.42888  -0.42746  -0.42295  -0.42218  -0.42024
 Alpha  occ. eigenvalues --   -0.41915  -0.41892  -0.41416  -0.41226  -0.40933
 Alpha  occ. eigenvalues --   -0.40731  -0.40638  -0.40533  -0.40379  -0.40062
 Alpha  occ. eigenvalues --   -0.39748  -0.39685  -0.39132  -0.38990  -0.38686
 Alpha  occ. eigenvalues --   -0.38672  -0.38578  -0.38235  -0.38036  -0.37785
 Alpha  occ. eigenvalues --   -0.37755  -0.36989  -0.36892  -0.36831  -0.36613
 Alpha  occ. eigenvalues --   -0.36479  -0.36046  -0.35916  -0.35716  -0.35253
 Alpha  occ. eigenvalues --   -0.34802  -0.34312  -0.34265  -0.33300  -0.32898
 Alpha  occ. eigenvalues --   -0.32707  -0.32139  -0.31994  -0.31398  -0.30304
 Alpha  occ. eigenvalues --   -0.30275  -0.28710  -0.28294  -0.26801  -0.23673
 Alpha  occ. eigenvalues --   -0.21375
 Alpha virt. eigenvalues --   -0.06208  -0.01434   0.02551   0.04424   0.05580
 Alpha virt. eigenvalues --    0.05729   0.06330   0.06501   0.06766   0.07627
 Alpha virt. eigenvalues --    0.08488   0.10705   0.11009   0.11761   0.11792

 Mulliken charges:
               1
     1  Mg   0.821087
     2  C    0.108360
     3  C   -0.211049
     4  C   -0.190780
     5  C   -0.150380
     6  N   -0.631910
     7  C    0.249959
     8  C   -0.169396
     9  C   -0.143543
    10  C    0.388144
    11  C   -0.318712
    12  C   -0.119834
    13  C   -0.269929
    14  C    0.610719
    15  O   -0.495560
    16  O   -0.510425
    17  N   -0.731942
    18  C    0.357705
    19  C    0.014759
    20  C   -0.004381
    21  C    0.290854
    22  C   -0.383474
    23  C   -0.088945
    24  C   -0.210705
    25  N   -0.719773
    26  C    0.344651
    27  C    0.042083
    28  C   -0.012046
    29  C    0.309399
    30  C   -0.361101
    31  C   -0.265276
    32  C   -0.277980
    33  N   -0.715175
    34  C    0.258797
    35  C   -0.007488
    36  C   -0.006516
    37  C    0.258918
    38  C   -0.351771
    39  C    0.351327
    40  O   -0.463230
    41  C   -0.340086
    42  C    0.637955
    43  O   -0.498385
    44  O   -0.459310
    45  C   -0.088255
    46  C    0.018481
    47  C   -0.139873
    48  C    0.111985
    49  C   -0.366940
    50  C   -0.200079
    51  C   -0.170169
    52  C   -0.184545
    53  C   -0.062518
    54  C   -0.314281
    55  C   -0.173358
    56  C   -0.156078
    57  C   -0.157632
    58  C   -0.053889
    59  C   -0.311978
    60  C   -0.175902
    61  C   -0.193827
    62  C   -0.156867
    63  C   -0.063874
    64  C   -0.293157
    65  C   -0.304069
    66  H    0.074266
    67  H    0.081896
    68  H    0.103682
    69  H    0.125142
    70  H    0.103825
    71  H    0.116617
    72  H    0.095377
    73  H    0.129884
    74  H    0.130229
    75  H    0.119682
    76  H    0.115363
    77  H    0.134494
    78  H    0.126676
    79  H    0.117221
    80  H    0.134188
    81  H    0.118072
    82  H    0.092979
    83  H    0.114643
    84  H    0.132570
    85  H    0.115808
    86  H    0.118868
    87  H    0.088738
    88  H    0.098015
    89  H    0.090263
    90  H    0.097382
    91  H    0.121094
    92  H    0.103014
    93  H    0.150359
    94  H    0.108251
    95  H    0.147619
    96  H    0.140400
    97  H    0.144500
    98  H    0.115255
    99  H    0.141702
   100  H    0.129500
   101  H    0.095368
   102  H    0.115133
   103  H    0.101429
   104  H    0.113795
   105  H    0.109301
   106  H    0.079587
   107  H    0.100954
   108  H    0.098662
   109  H    0.086647
   110  H    0.082056
   111  H    0.090764
   112  H    0.103901
   113  H    0.103680
   114  H    0.110368
   115  H    0.055161
   116  H    0.094071
   117  H    0.107509
   118  H    0.062733
   119  H    0.098164
   120  H    0.078877
   121  H    0.072419
   122  H    0.092851
   123  H    0.113960
   124  H    0.091748
   125  H    0.052002
   126  H    0.094886
   127  H    0.095966
   128  H    0.086744
   129  H    0.071496
   130  H    0.096732
   131  H    0.089385
   132  H    0.113740
   133  H    0.079508
   134  H    0.080735
   135  H    0.112862
   136  H    0.099496
   137  H    0.090945
 Sum of Mulliken charges =   0.00000

 Dipole moment (field-independent basis, Debye):
    X=              1.7904    Y=              6.9012    Z=              0.4036  Tot=              7.1411
 Quadrupole moment (field-independent basis, Debye-Ang):
   XX=           -359.4872   YY=           -388.2478   ZZ=           -396.5000
   XY=            -53.7165   XZ=             15.8259   YZ=             -3.0910

 Normal termination of Gaussian 09 at Wed Jul  3 02:55:43 2019.
