 Gaussian 16, Revision A.03,
 Gaussian 16:  ES64L-G16RevA.03 25-Dec-2016

 ----------------------------------------------------------------------
 # td=(NStates=1) iop(3/107=0140000000,3/108=0140000000) CAM-B3LYP/6-31
 G(d,p)
 ----------------------------------------------------------------------

 --
 TD
 --
 Symbolic Z-matrix:
 Charge =  0 Multiplicity = 1

                         Standard orientation:
 ---------------------------------------------------------------------
 Center     Atomic      Atomic             Coordinates (Angstroms)
 Number     Number       Type             X           Y           Z
 ---------------------------------------------------------------------
      1         12           0       -7.247952    0.599935    0.124409
      2          6           0       -4.851448   -2.019146    0.537744
      3          6           0       -4.780106    2.682766    1.295991
      4          6           0       -9.331299    3.070850   -0.429387
      5          6           0       -9.594996   -1.739540   -0.987302
      6          7           0       -5.231732    0.380333    0.727698
      7          6           0       -4.509091   -0.749148    0.860500
      8          6           0       -2.992125   -0.386061    1.306056
      9          6           0       -3.076797    1.085156    1.772962
     10          6           0       -4.465076    1.390653    1.265106
     11          6           0       -2.990483    1.215543    3.307650
     12          6           0       -1.872096   -0.611368    0.106230
     13          6           0       -0.469211   -0.436630    0.572839
     14          6           0        0.507293   -0.569032   -0.523677
     15          8           0        0.211690   -0.965712   -1.637946
     16          8           0        1.748991   -0.291447   -0.168600
     17          7           0       -7.106875    2.565928    0.305839
     18          6           0       -6.124788    3.337946    0.898609
     19          6           0       -6.451641    4.763059    0.920676
     20          6           0       -7.737738    4.885987    0.479887
     21          6           0       -8.122680    3.510806    0.107535
     22          6           0       -5.439406    5.799451    1.168282
     23          6           0       -8.408428    6.066582    0.130750
     24          6           0       -8.361773    7.156109    0.842388
     25          7           0       -9.128598    0.652007   -0.683458
     26          6           0       -9.882426    1.846356   -0.822997
     27          6           0      -11.202470    1.437190   -1.259277
     28          6           0      -11.221425    0.098113   -1.434081
     29          6           0       -9.961739   -0.360378   -1.022085
     30          6           0      -12.388269    2.435657   -1.381442
     31          6           0      -12.413653   -0.804520   -2.029390
     32          6           0      -12.267451   -0.822859   -3.595244
     33          7           0       -7.323778   -1.314787   -0.067240
     34          6           0       -8.308509   -2.186229   -0.513397
     35          6           0       -7.787137   -3.582787   -0.471276
     36          6           0       -6.464359   -3.489664   -0.206882
     37          6           0       -6.201776   -2.096734    0.094631
     38          6           0       -8.641223   -4.816926   -0.813780
     39          6           0       -5.370717   -4.373866    0.080672
     40          8           0       -5.166833   -5.613408   -0.004534
     41          6           0       -4.177301   -3.372154    0.549109
     42          6           0       -3.607958   -3.712372    1.943238
     43          8           0       -3.824558   -3.216773    2.982250
     44          8           0       -2.760326   -4.789550    1.753061
     45          6           0       -2.237490   -5.307218    3.052262
     46          6           0        2.759015   -0.517323   -1.114531
     47          6           0        4.124308   -0.352571   -0.431106
     48          6           0        5.198510    0.429418   -0.776386
     49          6           0        5.107722    1.310300   -2.045999
     50          6           0        6.435790    0.423225   -0.078720
     51          6           0        7.669439   -0.055192   -0.769911
     52          6           0        8.966641   -0.039184   -0.067884
     53          6           0       10.223857   -0.577635   -0.761040
     54          6           0       10.146943   -2.132107   -1.137982
     55          6           0       11.462329   -0.310364   -0.016571
     56          6           0       12.835173   -0.486932   -0.678986
     57          6           0       14.057822   -0.015350    0.076959
     58          6           0       15.408135   -0.191812   -0.562544
     59          6           0       15.711413   -1.607500   -0.982693
     60          6           0       16.457197    0.367147    0.367912
     61          6           0       17.860116    0.382836   -0.251724
     62          6           0       18.853123    1.199758    0.636142
     63          6           0       20.256010    1.310038    0.085373
     64          6           0       20.403632    2.023450   -1.221730
     65          6           0       21.213754    2.055979    1.210151
     66          1           0       -4.233560    3.317356    1.985598
     67          1           0      -10.105723    3.902255   -0.333226
     68          1           0      -10.222694   -2.544654   -1.359221
     69          1           0       -2.805485   -1.034256    2.130397
     70          1           0       -2.392360    1.733598    1.261892
     71          1           0       -1.900396    0.928100    3.707894
     72          1           0       -3.209421    2.155365    3.577062
     73          1           0       -3.541655    0.333672    3.847275
     74          1           0       -2.172249   -1.521643   -0.302917
     75          1           0       -2.148039    0.212289   -0.602035
     76          1           0       -0.533822    0.467282    1.209196
     77          1           0       -0.031722   -1.300861    1.327675
     78          1           0       -5.646503    6.669796    0.558972
     79          1           0       -5.306296    5.900428    2.188908
     80          1           0       -4.431655    5.313311    0.774431
     81          1           0       -9.123669    6.151887   -0.824757
     82          1           0       -8.887378    7.999339    0.452534
     83          1           0       -7.782254    7.364606    1.720488
     84          1           0      -12.212676    3.065543   -2.322418
     85          1           0      -13.389384    1.692838   -1.435095
     86          1           0      -12.369580    3.000245   -0.457835
     87          1           0      -12.209068   -1.918191   -1.835518
     88          1           0      -13.362577   -0.360943   -1.651422
     89          1           0      -13.278083   -1.393198   -4.013325
     90          1           0      -12.403439    0.033791   -4.031574
     91          1           0      -11.267650   -1.243756   -3.860544
     92          1           0       -9.297344   -4.840556   -1.652262
     93          1           0       -7.871632   -5.703708   -1.013974
     94          1           0       -9.435024   -4.877039   -0.039811
     95          1           0       -3.374753   -3.386859   -0.257115
     96          1           0       -1.673685   -4.643892    3.544843
     97          1           0       -3.104880   -5.398970    3.706030
     98          1           0       -1.631398   -6.151119    2.577565
     99          1           0        2.730053   -1.578167   -1.388226
    100          1           0        2.516037    0.073650   -1.982864
    101          1           0        4.092295   -0.878453    0.459700
    102          1           0        4.157027    1.476064   -2.515027
    103          1           0        5.924355    2.183891   -1.640866
    104          1           0        5.760964    0.756104   -2.791602
    105          1           0        6.676555    1.455786    0.379785
    106          1           0        6.347347   -0.204870    0.862939
    107          1           0        7.545961   -1.139949   -1.262368
    108          1           0        7.826748    0.531092   -1.804570
    109          1           0        9.378460    1.144934    0.087100
    110          1           0        9.015877   -0.459885    0.978573
    111          1           0       10.327221   -0.044422   -1.760139
    112          1           0        9.347460   -2.248965   -1.888147
    113          1           0       11.138077   -2.380777   -1.620169
    114          1           0        9.983231   -2.718832   -0.073747
    115          1           0       11.454239    0.663676    0.454768
    116          1           0       11.524651   -0.965308    0.971609
    117          1           0       13.213859   -1.486609   -1.021554
    118          1           0       12.877537    0.069052   -1.689953
    119          1           0       13.943453    1.017730    0.347036
    120          1           0       14.049761   -0.746543    0.899957
    121          1           0       15.388637    0.249939   -1.615549
    122          1           0       15.702554   -2.412922   -0.061881
    123          1           0       15.003591   -1.926743   -1.715404
    124          1           0       16.570693   -1.852452   -1.588771
    125          1           0       16.266470    1.409831    0.691150
    126          1           0       16.364508   -0.297830    1.477372
    127          1           0       18.237834   -0.518373   -0.474322
    128          1           0       17.757403    0.850495   -1.297237
    129          1           0       18.336261    2.249581    0.895942
    130          1           0       18.830600    0.692572    1.529374
    131          1           0       20.552350    0.326209   -0.212869
    132          1           0       19.937997    3.031691   -1.239853
    133          1           0       21.495713    2.237297   -1.620349
    134          1           0       19.932120    1.453206   -2.087156
    135          1           0       21.400996    1.312235    1.946000
    136          1           0       22.220961    2.207507    0.719586
    137          1           0       20.695991    3.007401    1.517598
 ---------------------------------------------------------------------

 SCF Done:  E(RCAM-B3LYP) =  -2933.56885665     A.U. after   15 cycles

 Excitation energies and oscillator strengths:

 Excited State   1:      Singlet-A      2.0366 eV  608.77 nm  f=0.2759  <S**2>=0.000
     240 -> 243        0.22243
     241 -> 242        0.66774
 This state for optimization and/or second-order correction.
 Total Energy, E(TD-HF/TD-DFT) =  -2933.49401212
 Copying the excited state density for this state as the 1-particle RhoCI density.

 The electronic state is 1-A.
 Alpha  occ. eigenvalues --  -46.78622 -19.21979 -19.20861 -19.17786 -19.16646
 Alpha  occ. eigenvalues --  -19.15829 -14.37149 -14.35964 -14.35909 -14.34652
 Alpha  occ. eigenvalues --  -10.34418 -10.34061 -10.31269 -10.27189 -10.26089
 Alpha  occ. eigenvalues --  -10.26030 -10.25987 -10.25622 -10.25544 -10.24978
 Alpha  occ. eigenvalues --  -10.24949 -10.24805 -10.24696 -10.24398 -10.24230
 Alpha  occ. eigenvalues --  -10.24156 -10.23888 -10.23742 -10.23510 -10.23477
 Alpha  occ. eigenvalues --  -10.23324 -10.23302 -10.23283 -10.23114 -10.22961
 Alpha  occ. eigenvalues --  -10.22783 -10.22624 -10.22548 -10.22493 -10.22400
 Alpha  occ. eigenvalues --  -10.22395 -10.22371 -10.22240 -10.22138 -10.22105
 Alpha  occ. eigenvalues --  -10.22019 -10.21976 -10.21866 -10.21823 -10.21586
 Alpha  occ. eigenvalues --  -10.21568 -10.21494 -10.21389 -10.21348 -10.21231
 Alpha  occ. eigenvalues --  -10.21145 -10.21125 -10.20986 -10.20931 -10.20913
 Alpha  occ. eigenvalues --  -10.20818 -10.20778 -10.20745 -10.20186 -10.20058
 Alpha  occ. eigenvalues --   -3.07613  -1.82517  -1.82116  -1.82034  -1.14576
 Alpha  occ. eigenvalues --   -1.13062  -1.04615  -1.04158  -1.03888  -0.99185
 Alpha  occ. eigenvalues --   -0.97963  -0.97710  -0.96790  -0.87460  -0.86823
 Alpha  occ. eigenvalues --   -0.86111  -0.85605  -0.84762  -0.84443  -0.83509
 Alpha  occ. eigenvalues --   -0.83236  -0.82602  -0.82062  -0.81958  -0.80949
 Alpha  occ. eigenvalues --   -0.80274  -0.79420  -0.78536  -0.78051  -0.77477
 Alpha  occ. eigenvalues --   -0.76822  -0.75896  -0.75412  -0.75144  -0.73804
 Alpha  occ. eigenvalues --   -0.72656  -0.72300  -0.71563  -0.71446  -0.70718
 Alpha  occ. eigenvalues --   -0.70100  -0.69938  -0.69678  -0.69223  -0.67921
 Alpha  occ. eigenvalues --   -0.66663  -0.65928  -0.65117  -0.64602  -0.64172
 Alpha  occ. eigenvalues --   -0.63241  -0.62431  -0.61010  -0.60460  -0.59776
 Alpha  occ. eigenvalues --   -0.59590  -0.59286  -0.58933  -0.57993  -0.57594
 Alpha  occ. eigenvalues --   -0.57264  -0.56751  -0.56147  -0.55688  -0.55297
 Alpha  occ. eigenvalues --   -0.54602  -0.54269  -0.53614  -0.53400  -0.53103
 Alpha  occ. eigenvalues --   -0.52287  -0.51657  -0.51536  -0.51148  -0.50919
 Alpha  occ. eigenvalues --   -0.50394  -0.50177  -0.49975  -0.49776  -0.49320
 Alpha  occ. eigenvalues --   -0.49086  -0.48679  -0.48419  -0.48349  -0.48228
 Alpha  occ. eigenvalues --   -0.48026  -0.47662  -0.47401  -0.46883  -0.46685
 Alpha  occ. eigenvalues --   -0.46668  -0.46070  -0.45990  -0.45975  -0.45814
 Alpha  occ. eigenvalues --   -0.45243  -0.45090  -0.45026  -0.44810  -0.44705
 Alpha  occ. eigenvalues --   -0.44390  -0.44227  -0.43966  -0.43772  -0.43112
 Alpha  occ. eigenvalues --   -0.42953  -0.42509  -0.42493  -0.42432  -0.42246
 Alpha  occ. eigenvalues --   -0.42115  -0.42028  -0.41952  -0.41802  -0.41518
 Alpha  occ. eigenvalues --   -0.41467  -0.41320  -0.41216  -0.41039  -0.40851
 Alpha  occ. eigenvalues --   -0.40648  -0.40571  -0.39936  -0.39774  -0.39448
 Alpha  occ. eigenvalues --   -0.39211  -0.39207  -0.39077  -0.38981  -0.38818
 Alpha  occ. eigenvalues --   -0.38769  -0.38323  -0.38175  -0.38100  -0.38036
 Alpha  occ. eigenvalues --   -0.37836  -0.37743  -0.37617  -0.37458  -0.37080
 Alpha  occ. eigenvalues --   -0.36983  -0.36804  -0.36631  -0.36006  -0.35838
 Alpha  occ. eigenvalues --   -0.35638  -0.35282  -0.35063  -0.34953  -0.34798
 Alpha  occ. eigenvalues --   -0.34227  -0.34057  -0.33906  -0.33790  -0.33442
 Alpha  occ. eigenvalues --   -0.33305  -0.33059  -0.32869  -0.32782  -0.32580
 Alpha  occ. eigenvalues --   -0.32497  -0.32245  -0.31593  -0.31201  -0.31002
 Alpha  occ. eigenvalues --   -0.30635  -0.29955  -0.29288  -0.28787  -0.27781
 Alpha  occ. eigenvalues --   -0.27076  -0.26469  -0.25944  -0.25481  -0.21790
 Alpha  occ. eigenvalues --   -0.20053
 Alpha virt. eigenvalues --   -0.07109  -0.03758  -0.00571   0.02732   0.03754
 Alpha virt. eigenvalues --    0.04248   0.04440   0.05001   0.05290   0.05859
 Alpha virt. eigenvalues --    0.06659   0.08507   0.09215   0.09557   0.09888

 Mulliken charges:
               1
     1  Mg   0.813504
     2  C    0.050170
     3  C   -0.219590
     4  C   -0.207059
     5  C   -0.162178
     6  N   -0.628914
     7  C    0.297568
     8  C   -0.182671
     9  C   -0.133125
    10  C    0.359702
    11  C   -0.303153
    12  C   -0.156972
    13  C   -0.255084
    14  C    0.614226
    15  O   -0.484681
    16  O   -0.446649
    17  N   -0.652364
    18  C    0.256147
    19  C    0.017937
    20  C    0.065705
    21  C    0.260733
    22  C   -0.372719
    23  C   -0.100649
    24  C   -0.225181
    25  N   -0.685834
    26  C    0.294829
    27  C   -0.004594
    28  C    0.033468
    29  C    0.303882
    30  C   -0.353883
    31  C   -0.229257
    32  C   -0.292087
    33  N   -0.741568
    34  C    0.257308
    35  C    0.030420
    36  C    0.029522
    37  C    0.317738
    38  C   -0.387886
    39  C    0.362581
    40  O   -0.477867
    41  C   -0.317575
    42  C    0.628073
    43  O   -0.444299
    44  O   -0.473058
    45  C   -0.094629
    46  C    0.015771
    47  C   -0.148614
    48  C    0.162108
    49  C   -0.351528
    50  C   -0.245751
    51  C   -0.156719
    52  C   -0.143704
    53  C   -0.057370
    54  C   -0.300195
    55  C   -0.150230
    56  C   -0.189034
    57  C   -0.158574
    58  C   -0.052986
    59  C   -0.313053
    60  C   -0.138385
    61  C   -0.186234
    62  C   -0.156265
    63  C   -0.059488
    64  C   -0.302101
    65  C   -0.318564
    66  H    0.070819
    67  H    0.072980
    68  H    0.085315
    69  H    0.110773
    70  H    0.113261
    71  H    0.083399
    72  H    0.118175
    73  H    0.121115
    74  H    0.116550
    75  H    0.113719
    76  H    0.134029
    77  H    0.114533
    78  H    0.126837
    79  H    0.134154
    80  H    0.104864
    81  H    0.094201
    82  H    0.094852
    83  H    0.104617
    84  H    0.123602
    85  H    0.083443
    86  H    0.131827
    87  H    0.103045
    88  H    0.104681
    89  H    0.068199
    90  H    0.129708
    91  H    0.113285
    92  H    0.131601
    93  H    0.139179
    94  H    0.130895
    95  H    0.165276
    96  H    0.135687
    97  H    0.138247
    98  H    0.131087
    99  H    0.125123
   100  H    0.113818
   101  H    0.084591
   102  H    0.123300
   103  H    0.086472
   104  H    0.122604
   105  H    0.099406
   106  H    0.101128
   107  H    0.084468
   108  H    0.076678
   109  H    0.051957
   110  H    0.088576
   111  H    0.077477
   112  H    0.103814
   113  H    0.107960
   114  H    0.080074
   115  H    0.091738
   116  H    0.064691
   117  H    0.092355
   118  H    0.064097
   119  H    0.090802
   120  H    0.090456
   121  H    0.077026
   122  H    0.070943
   123  H    0.105365
   124  H    0.106378
   125  H    0.091048
   126  H    0.043849
   127  H    0.107126
   128  H    0.081814
   129  H    0.061355
   130  H    0.106563
   131  H    0.090448
   132  H    0.095206
   133  H    0.083183
   134  H    0.088579
   135  H    0.112522
   136  H    0.095314
   137  H    0.108674
 Sum of Mulliken charges =  -0.00000

 Dipole moment (field-independent basis, Debye):
    X=              1.2806    Y=              3.9754    Z=              0.9243  Tot=              4.2777
 Quadrupole moment (field-independent basis, Debye-Ang):
   XX=           -341.0066   YY=           -396.9005   ZZ=           -394.9533
   XY=            -25.6970   XZ=              3.3001   YZ=             -1.1900

 Normal termination of Gaussian 16 at Thu Sep  5 05:37:22 2019.
