 Gaussian 16, Revision A.03,
 Gaussian 16:  ES64L-G16RevA.03 25-Dec-2016

 ----------------------------------------------------------------------
 # td=(NStates=1) iop(3/107=0140000000,3/108=0140000000) CAM-B3LYP/6-31
 G(d,p)
 ----------------------------------------------------------------------

 --
 TD
 --
 Symbolic Z-matrix:
 Charge =  0 Multiplicity = 1

                         Standard orientation:
 ---------------------------------------------------------------------
 Center     Atomic      Atomic             Coordinates (Angstroms)
 Number     Number       Type             X           Y           Z
 ---------------------------------------------------------------------
      1         12           0       -7.077876    0.677274   -0.038515
      2          6           0       -4.881734   -2.055162    0.405193
      3          6           0       -4.692984    2.805183    1.082988
      4          6           0       -9.365607    3.142558   -0.412915
      5          6           0       -9.578685   -1.645380   -0.898871
      6          7           0       -5.083791    0.314175    0.662876
      7          6           0       -4.269755   -0.816231    0.786714
      8          6           0       -2.933348   -0.447463    1.267747
      9          6           0       -3.005142    0.978828    1.662109
     10          6           0       -4.326450    1.445544    1.053344
     11          6           0       -2.963237    1.102641    3.222074
     12          6           0       -1.885217   -0.640881    0.129332
     13          6           0       -0.406107   -0.479946    0.542905
     14          6           0        0.517559   -0.741710   -0.543231
     15          8           0        0.254507   -0.856385   -1.762582
     16          8           0        1.734116   -0.533770   -0.171285
     17          7           0       -7.012298    2.585600    0.218536
     18          6           0       -5.965226    3.331954    0.725850
     19          6           0       -6.352123    4.728187    0.865576
     20          6           0       -7.684509    4.872758    0.361025
     21          6           0       -8.039684    3.474298   -0.005839
     22          6           0       -5.380480    5.873658    1.189603
     23          6           0       -8.452322    6.131228    0.156485
     24          6           0       -8.213111    7.246203    0.775650
     25          7           0       -9.090080    0.742017   -0.562068
     26          6           0       -9.919051    1.841774   -0.623654
     27          6           0      -11.248901    1.625059   -0.968090
     28          6           0      -11.294855    0.144538   -1.084507
     29          6           0       -9.958628   -0.291264   -0.817136
     30          6           0      -12.362676    2.584558   -1.236331
     31          6           0      -12.413344   -0.742498   -1.663377
     32          6           0      -12.291588   -0.973347   -3.136060
     33          7           0       -7.151821   -1.357226   -0.198695
     34          6           0       -8.347548   -2.246231   -0.496927
     35          6           0       -7.959388   -3.594686   -0.516562
     36          6           0       -6.589399   -3.562643   -0.170391
     37          6           0       -6.221580   -2.260479    0.018335
     38          6           0       -8.735413   -4.777811   -0.722011
     39          6           0       -5.373751   -4.427475    0.215876
     40          8           0       -5.405048   -5.693073    0.243028
     41          6           0       -4.255406   -3.331022    0.393203
     42          6           0       -3.559383   -3.681795    1.731651
     43          8           0       -3.831884   -3.016989    2.739048
     44          8           0       -2.706478   -4.756305    1.619896
     45          6           0       -2.205243   -5.244821    2.936738
     46          6           0        2.919116   -0.510985   -1.156586
     47          6           0        4.131123   -0.338698   -0.437455
     48          6           0        5.182211    0.326206   -0.939163
     49          6           0        5.175898    1.154757   -2.197743
     50          6           0        6.383946    0.434316   -0.112356
     51          6           0        7.596564   -0.133011   -0.963738
     52          6           0        8.890540   -0.097862   -0.064637
     53          6           0       10.245284   -0.562337   -0.810316
     54          6           0        9.963581   -1.947949   -1.441438
     55          6           0       11.430658   -0.402287    0.044731
     56          6           0       12.813477   -0.569931   -0.689136
     57          6           0       13.975107   -0.283728    0.168376
     58          6           0       15.374522   -0.392059   -0.455574
     59          6           0       15.745047   -1.833820   -0.836569
     60          6           0       16.418497    0.302820    0.428884
     61          6           0       17.809960    0.523651   -0.211621
     62          6           0       18.772615    1.401627    0.719948
     63          6           0       20.185811    1.451281    0.184498
     64          6           0       20.320062    2.329708   -1.054167
     65          6           0       21.033494    1.957015    1.322353
     66          1           0       -3.957491    3.398106    1.590958
     67          1           0       -9.969510    3.946467   -0.608201
     68          1           0      -10.444254   -2.325322   -1.283328
     69          1           0       -2.510755   -1.163168    2.118176
     70          1           0       -2.110208    1.437809    1.271699
     71          1           0       -2.160850    0.637351    3.767024
     72          1           0       -2.935505    2.186334    3.682375
     73          1           0       -3.779673    0.715160    3.782600
     74          1           0       -1.778328   -1.783621   -0.341098
     75          1           0       -2.211909   -0.059047   -0.547001
     76          1           0       -0.276041    0.404092    0.981884
     77          1           0       -0.209524   -1.278017    1.403447
     78          1           0       -5.681630    6.634330    0.290002
     79          1           0       -5.587485    6.282194    2.224635
     80          1           0       -4.439360    5.729610    0.987997
     81          1           0       -9.214717    5.791830   -0.576805
     82          1           0       -8.611858    8.193889    0.579094
     83          1           0       -7.414947    7.296856    1.297474
     84          1           0      -11.911207    3.083608   -2.213722
     85          1           0      -13.346293    2.304063   -1.434244
     86          1           0      -12.651058    3.209604   -0.389190
     87          1           0      -12.417052   -1.783641   -1.207211
     88          1           0      -13.309015   -0.332383   -1.290079
     89          1           0      -12.998404   -1.856566   -3.384756
     90          1           0      -12.672288   -0.058497   -3.671059
     91          1           0      -11.190599   -1.378605   -3.305976
     92          1           0       -8.977296   -4.672034   -1.661883
     93          1           0       -8.183159   -5.758298   -0.674643
     94          1           0       -9.616864   -4.846927   -0.178433
     95          1           0       -3.457504   -3.632231   -0.505200
     96          1           0       -1.657406   -4.536416    3.114500
     97          1           0       -3.039142   -5.403612    3.666500
     98          1           0       -1.589917   -6.247811    2.878163
     99          1           0        2.729938   -1.370010   -1.845193
    100          1           0        2.793413    0.215593   -1.869812
    101          1           0        4.218918   -0.742352    0.671033
    102          1           0        4.192091    1.166860   -2.658132
    103          1           0        5.512671    2.274638   -2.131729
    104          1           0        5.780376    0.680173   -3.071295
    105          1           0        6.602754    1.622859    0.177409
    106          1           0        6.298768    0.005277    0.819473
    107          1           0        7.370105   -1.080997   -1.179793
    108          1           0        7.774305    0.439882   -1.702695
    109          1           0        8.951553    0.900967    0.187675
    110          1           0        8.750022   -0.658980    0.818222
    111          1           0       10.394396   -0.061604   -1.580595
    112          1           0        8.987672   -1.792380   -1.965762
    113          1           0       10.881739   -2.230612   -2.076351
    114          1           0        9.904253   -2.647489   -0.752598
    115          1           0       11.078879    0.666095    0.431331
    116          1           0       11.561605   -1.248196    0.797557
    117          1           0       12.950199   -1.649297   -1.219864
    118          1           0       12.776048    0.155955   -1.617100
    119          1           0       13.758398    0.683919    0.628945
    120          1           0       14.012479   -0.948567    0.846468
    121          1           0       15.264533    0.293342   -1.256910
    122          1           0       15.950050   -2.497270    0.042318
    123          1           0       14.964736   -2.524600   -1.483166
    124          1           0       16.644249   -1.707181   -1.555438
    125          1           0       16.006081    1.302894    0.569968
    126          1           0       16.363905   -0.136852    1.580594
    127          1           0       18.232970   -0.469649   -0.286746
    128          1           0       17.719983    1.109246   -1.230492
    129          1           0       18.387635    2.335850    0.881328
    130          1           0       18.507293    0.788925    1.572536
    131          1           0       20.566785    0.578741    0.062234
    132          1           0       20.043787    3.526827   -0.844006
    133          1           0       21.377800    2.309761   -1.340625
    134          1           0       19.595382    1.992670   -1.777926
    135          1           0       21.120744    1.243019    2.168404
    136          1           0       22.034109    2.007491    0.975990
    137          1           0       20.670193    3.001832    1.775115
 ---------------------------------------------------------------------

 SCF Done:  E(RCAM-B3LYP) =  -2933.40283729     A.U. after   15 cycles

 Excitation energies and oscillator strengths:

 Excited State   1:      Singlet-A      2.0873 eV  594.01 nm  f=0.1366  <S**2>=0.000
     240 -> 242       -0.12250
     240 -> 243       -0.30589
     241 -> 242        0.61584
 This state for optimization and/or second-order correction.
 Total Energy, E(TD-HF/TD-DFT) =  -2933.32613205
 Copying the excited state density for this state as the 1-particle RhoCI density.

 The electronic state is 1-A.
 Alpha  occ. eigenvalues --  -46.78913 -19.22221 -19.21469 -19.16578 -19.15886
 Alpha  occ. eigenvalues --  -19.14613 -14.37266 -14.35471 -14.34330 -14.34177
 Alpha  occ. eigenvalues --  -10.34652 -10.33400 -10.30824 -10.27505 -10.26503
 Alpha  occ. eigenvalues --  -10.26459 -10.26346 -10.25694 -10.25439 -10.24746
 Alpha  occ. eigenvalues --  -10.24692 -10.23960 -10.23960 -10.23637 -10.23502
 Alpha  occ. eigenvalues --  -10.23464 -10.23328 -10.23164 -10.23093 -10.22997
 Alpha  occ. eigenvalues --  -10.22928 -10.22850 -10.22750 -10.22736 -10.22730
 Alpha  occ. eigenvalues --  -10.22424 -10.22405 -10.22398 -10.22368 -10.22317
 Alpha  occ. eigenvalues --  -10.22195 -10.22193 -10.22129 -10.22053 -10.21782
 Alpha  occ. eigenvalues --  -10.21763 -10.21737 -10.21737 -10.21720 -10.21529
 Alpha  occ. eigenvalues --  -10.21448 -10.21445 -10.21390 -10.21105 -10.20059
 Alpha  occ. eigenvalues --  -10.20003 -10.19889 -10.19874 -10.19757 -10.19574
 Alpha  occ. eigenvalues --  -10.19423 -10.19318 -10.19226 -10.19066 -10.18283
 Alpha  occ. eigenvalues --   -3.07635  -1.82558  -1.82112  -1.82061  -1.12703
 Alpha  occ. eigenvalues --   -1.10913  -1.03325  -1.02719  -1.00833  -0.98040
 Alpha  occ. eigenvalues --   -0.97339  -0.97012  -0.96173  -0.87667  -0.87037
 Alpha  occ. eigenvalues --   -0.85938  -0.85374  -0.85054  -0.84246  -0.84130
 Alpha  occ. eigenvalues --   -0.83476  -0.82855  -0.82482  -0.82107  -0.81657
 Alpha  occ. eigenvalues --   -0.80368  -0.79240  -0.78785  -0.78240  -0.77885
 Alpha  occ. eigenvalues --   -0.76921  -0.76431  -0.75367  -0.75100  -0.74118
 Alpha  occ. eigenvalues --   -0.73281  -0.72352  -0.72237  -0.71288  -0.70932
 Alpha  occ. eigenvalues --   -0.70854  -0.70670  -0.69734  -0.68902  -0.67950
 Alpha  occ. eigenvalues --   -0.67296  -0.66410  -0.65073  -0.64564  -0.63957
 Alpha  occ. eigenvalues --   -0.63409  -0.62443  -0.61045  -0.60801  -0.60152
 Alpha  occ. eigenvalues --   -0.60002  -0.59651  -0.59218  -0.58875  -0.57953
 Alpha  occ. eigenvalues --   -0.57516  -0.57133  -0.56015  -0.55891  -0.55042
 Alpha  occ. eigenvalues --   -0.54129  -0.53957  -0.53721  -0.52922  -0.52507
 Alpha  occ. eigenvalues --   -0.52218  -0.51796  -0.51253  -0.50978  -0.50922
 Alpha  occ. eigenvalues --   -0.50524  -0.50385  -0.50292  -0.49878  -0.49501
 Alpha  occ. eigenvalues --   -0.49081  -0.48775  -0.48597  -0.48438  -0.47928
 Alpha  occ. eigenvalues --   -0.47780  -0.47432  -0.47376  -0.47333  -0.47264
 Alpha  occ. eigenvalues --   -0.46806  -0.46514  -0.46257  -0.46128  -0.45975
 Alpha  occ. eigenvalues --   -0.45949  -0.45796  -0.45271  -0.45001  -0.44735
 Alpha  occ. eigenvalues --   -0.44236  -0.44176  -0.43897  -0.43774  -0.43697
 Alpha  occ. eigenvalues --   -0.43371  -0.43264  -0.42978  -0.42531  -0.42273
 Alpha  occ. eigenvalues --   -0.41953  -0.41761  -0.41577  -0.41259  -0.41226
 Alpha  occ. eigenvalues --   -0.40904  -0.40867  -0.40804  -0.40554  -0.40482
 Alpha  occ. eigenvalues --   -0.40192  -0.40078  -0.39933  -0.39794  -0.39727
 Alpha  occ. eigenvalues --   -0.39567  -0.39340  -0.39181  -0.39017  -0.38714
 Alpha  occ. eigenvalues --   -0.38572  -0.38453  -0.38270  -0.37922  -0.37789
 Alpha  occ. eigenvalues --   -0.37681  -0.37589  -0.37392  -0.37118  -0.37099
 Alpha  occ. eigenvalues --   -0.36750  -0.36694  -0.36537  -0.36503  -0.36018
 Alpha  occ. eigenvalues --   -0.35800  -0.35624  -0.35544  -0.35087  -0.34846
 Alpha  occ. eigenvalues --   -0.34604  -0.34404  -0.34093  -0.33937  -0.33837
 Alpha  occ. eigenvalues --   -0.33628  -0.33295  -0.33014  -0.32783  -0.32459
 Alpha  occ. eigenvalues --   -0.31877  -0.31725  -0.31584  -0.30864  -0.30121
 Alpha  occ. eigenvalues --   -0.29828  -0.29118  -0.28752  -0.27793  -0.26975
 Alpha  occ. eigenvalues --   -0.25999  -0.25639  -0.25227  -0.24396  -0.20667
 Alpha  occ. eigenvalues --   -0.20242
 Alpha virt. eigenvalues --   -0.06668  -0.04224   0.00256   0.02237   0.02523
 Alpha virt. eigenvalues --    0.03639   0.04178   0.04827   0.05456   0.05544
 Alpha virt. eigenvalues --    0.07069   0.08921   0.09179   0.09823   0.09875

 Mulliken charges:
               1
     1  Mg   0.814411
     2  C    0.098843
     3  C   -0.189407
     4  C   -0.170962
     5  C   -0.187882
     6  N   -0.636400
     7  C    0.366419
     8  C   -0.179757
     9  C   -0.128971
    10  C    0.322446
    11  C   -0.325686
    12  C   -0.149859
    13  C   -0.264815
    14  C    0.607496
    15  O   -0.515648
    16  O   -0.470070
    17  N   -0.738592
    18  C    0.326129
    19  C   -0.024202
    20  C   -0.003826
    21  C    0.303362
    22  C   -0.359584
    23  C   -0.011977
    24  C   -0.245735
    25  N   -0.683138
    26  C    0.299877
    27  C    0.040142
    28  C   -0.021384
    29  C    0.321375
    30  C   -0.373460
    31  C   -0.240636
    32  C   -0.283581
    33  N   -0.711544
    34  C    0.212940
    35  C    0.023594
    36  C   -0.010522
    37  C    0.349889
    38  C   -0.382018
    39  C    0.388745
    40  O   -0.485652
    41  C   -0.355286
    42  C    0.627850
    43  O   -0.478781
    44  O   -0.474172
    45  C   -0.073016
    46  C    0.010220
    47  C   -0.132760
    48  C    0.158041
    49  C   -0.377016
    50  C   -0.230927
    51  C   -0.181726
    52  C   -0.205419
    53  C   -0.046931
    54  C   -0.317931
    55  C   -0.147372
    56  C   -0.188362
    57  C   -0.145399
    58  C   -0.052018
    59  C   -0.313629
    60  C   -0.178453
    61  C   -0.198016
    62  C   -0.162235
    63  C   -0.030925
    64  C   -0.297623
    65  C   -0.305563
    66  H    0.083962
    67  H    0.066423
    68  H    0.081697
    69  H    0.113328
    70  H    0.105294
    71  H    0.113650
    72  H    0.081740
    73  H    0.137621
    74  H    0.088660
    75  H    0.121722
    76  H    0.142914
    77  H    0.114015
    78  H    0.103687
    79  H    0.122900
    80  H    0.122567
    81  H    0.081857
    82  H    0.105687
    83  H    0.095376
    84  H    0.115596
    85  H    0.124439
    86  H    0.123651
    87  H    0.095794
    88  H    0.106337
    89  H    0.092438
    90  H    0.110929
    91  H    0.104823
    92  H    0.139462
    93  H    0.144861
    94  H    0.130983
    95  H    0.145547
    96  H    0.138934
    97  H    0.140085
    98  H    0.118496
    99  H    0.140134
   100  H    0.133498
   101  H    0.095932
   102  H    0.114091
   103  H    0.117976
   104  H    0.116401
   105  H    0.064664
   106  H    0.103065
   107  H    0.117457
   108  H    0.112301
   109  H    0.092446
   110  H    0.096666
   111  H    0.092355
   112  H    0.093572
   113  H    0.083738
   114  H    0.111039
   115  H    0.075640
   116  H    0.080459
   117  H    0.071727
   118  H    0.062070
   119  H    0.084702
   120  H    0.097303
   121  H    0.090978
   122  H    0.106008
   123  H    0.079399
   124  H    0.103309
   125  H    0.093862
   126  H    0.057431
   127  H    0.102440
   128  H    0.076148
   129  H    0.095664
   130  H    0.093713
   131  H    0.094721
   132  H    0.070291
   133  H    0.105280
   134  H    0.109394
   135  H    0.095406
   136  H    0.091717
   137  H    0.078616
 Sum of Mulliken charges =  -0.00000

 Dipole moment (field-independent basis, Debye):
    X=              2.8913    Y=              4.3565    Z=              0.6882  Tot=              5.2738
 Quadrupole moment (field-independent basis, Debye-Ang):
   XX=           -332.3404   YY=           -391.3997   ZZ=           -395.5135
   XY=            -27.0005   XZ=             10.2961   YZ=             -6.2013

 Normal termination of Gaussian 16 at Mon Sep 23 10:40:17 2019.
