 Gaussian 09, Revision D.01,
 Gaussian 09:  ES64L-G09RevD.01 24-Apr-2013

 -------------------------------------
 # td=(NStates=1) CAM-B3LYP/6-31G(d,p)
 -------------------------------------

 --
 TD
 --
 Symbolic Z-matrix:
 Charge =  0 Multiplicity = 1

                         Standard orientation:
 ---------------------------------------------------------------------
 Center     Atomic      Atomic             Coordinates (Angstroms)
 Number     Number       Type             X           Y           Z
 ---------------------------------------------------------------------
      1         12           0       -7.149667    0.637103    0.191495
      2          6           0       -4.864884   -1.824591    0.543537
      3          6           0       -4.751484    2.910801    1.077478
      4          6           0       -9.308832    3.104191   -0.353804
      5          6           0       -9.456712   -1.709139   -0.895759
      6          7           0       -5.032424    0.497285    0.792560
      7          6           0       -4.359343   -0.628144    0.817270
      8          6           0       -2.865524   -0.324318    1.166635
      9          6           0       -2.977264    1.179321    1.673833
     10          6           0       -4.329038    1.540124    1.136751
     11          6           0       -2.801884    1.225808    3.253533
     12          6           0       -1.856181   -0.515856    0.085510
     13          6           0       -0.398535   -0.382675    0.486509
     14          6           0        0.505413   -0.686178   -0.607780
     15          8           0        0.263555   -0.947036   -1.784679
     16          8           0        1.799901   -0.520105   -0.214491
     17          7           0       -7.098302    2.687121    0.323691
     18          6           0       -5.935823    3.336970    0.673671
     19          6           0       -6.410050    4.809612    0.730505
     20          6           0       -7.679264    4.876835    0.312102
     21          6           0       -8.054354    3.490515    0.023871
     22          6           0       -5.505571    5.860547    1.139022
     23          6           0       -8.510390    6.018951    0.047802
     24          6           0       -8.542849    7.102366    0.816062
     25          7           0       -9.168615    0.702120   -0.508069
     26          6           0       -9.916831    1.775840   -0.638640
     27          6           0      -11.231070    1.477991   -1.123550
     28          6           0      -11.172360    0.015172   -1.271588
     29          6           0       -9.882281   -0.442292   -0.839172
     30          6           0      -12.322995    2.475299   -1.301941
     31          6           0      -12.347864   -0.772989   -1.855313
     32          6           0      -12.176065   -1.101822   -3.295068
     33          7           0       -7.199526   -1.325418   -0.272467
     34          6           0       -8.200820   -2.173641   -0.661150
     35          6           0       -7.765329   -3.518406   -0.604737
     36          6           0       -6.548615   -3.524288   -0.080992
     37          6           0       -6.114570   -2.161792    0.140477
     38          6           0       -8.596816   -4.826244   -0.723822
     39          6           0       -5.336826   -4.301849    0.265606
     40          8           0       -5.242859   -5.593179    0.245259
     41          6           0       -4.122836   -3.315089    0.528640
     42          6           0       -3.486660   -3.745388    1.819588
     43          8           0       -3.859672   -3.300222    2.966202
     44          8           0       -2.589532   -4.670257    1.725122
     45          6           0       -2.166914   -5.152524    2.894645
     46          6           0        2.810649   -0.786982   -1.219643
     47          6           0        4.119280   -0.568190   -0.573503
     48          6           0        5.184451    0.194211   -1.051568
     49          6           0        5.154208    1.001506   -2.277177
     50          6           0        6.400535    0.335330   -0.278911
     51          6           0        7.599731   -0.298175   -0.933739
     52          6           0        8.822520   -0.257599   -0.049207
     53          6           0       10.106547   -0.713591   -0.648471
     54          6           0       10.027610   -2.141006   -1.056749
     55          6           0       11.426190   -0.415792    0.108093
     56          6           0       12.692821   -0.517416   -0.724353
     57          6           0       13.872208   -0.034482    0.160468
     58          6           0       15.265139   -0.109457   -0.499244
     59          6           0       15.678714   -1.553201   -0.867898
     60          6           0       16.321078    0.584635    0.379753
     61          6           0       17.787657    0.585435   -0.390007
     62          6           0       18.661702    1.420030    0.702742
     63          6           0       20.123117    1.409929    0.282038
     64          6           0       20.216167    2.330993   -1.012040
     65          6           0       21.122651    1.831993    1.206367
     66          1           0       -4.184609    3.445062    1.604602
     67          1           0      -10.066031    3.962278   -0.484441
     68          1           0      -10.305987   -2.481378   -1.279119
     69          1           0       -2.654581   -0.826020    2.247276
     70          1           0       -2.209885    1.895448    1.525380
     71          1           0       -1.749423    1.093666    3.500919
     72          1           0       -3.169209    2.283935    3.594392
     73          1           0       -3.502655    0.730252    3.755722
     74          1           0       -1.976796   -1.542449   -0.216823
     75          1           0       -2.006430    0.316721   -0.707004
     76          1           0       -0.230327    0.642428    1.127935
     77          1           0       -0.431590   -1.378773    1.296665
     78          1           0       -5.566581    6.850373    0.650252
     79          1           0       -5.403656    6.065793    2.343593
     80          1           0       -4.475014    5.509196    0.888750
     81          1           0       -9.257750    5.637318   -0.742177
     82          1           0       -9.265883    7.827929    0.654883
     83          1           0       -7.992720    7.116623    1.531529
     84          1           0      -12.245162    3.229636   -2.238715
     85          1           0      -13.345102    1.786175   -1.304022
     86          1           0      -12.520267    3.031402   -0.531649
     87          1           0      -12.512759   -1.677349   -1.132960
     88          1           0      -13.458996   -0.408488   -1.789839
     89          1           0      -13.053090   -1.687929   -3.626013
     90          1           0      -11.906673   -0.251040   -3.943608
     91          1           0      -11.147793   -1.814115   -3.203374
     92          1           0       -9.060352   -5.021304   -1.783599
     93          1           0       -8.047502   -5.699018   -0.389711
     94          1           0       -9.437101   -4.560194   -0.056092
     95          1           0       -3.438265   -3.382186   -0.267078
     96          1           0       -1.833587   -4.407006    3.589318
     97          1           0       -2.944760   -5.539597    3.499275
     98          1           0       -1.445166   -5.932495    2.682801
     99          1           0        2.482770   -1.700657   -1.584453
    100          1           0        2.592416    0.003519   -1.978149
    101          1           0        4.377479   -1.117923    0.270088
    102          1           0        4.389320    1.077195   -2.925781
    103          1           0        5.445912    2.071345   -2.203543
    104          1           0        6.075481    0.667400   -2.997094
    105          1           0        6.686867    1.301973   -0.185710
    106          1           0        6.266229   -0.226534    0.716709
    107          1           0        7.136182   -1.333365   -1.198931
    108          1           0        7.648905    0.282632   -1.810740
    109          1           0        8.962559    0.669832    0.493214
    110          1           0        8.548889   -1.035424    0.752868
    111          1           0       10.453605   -0.166794   -1.614907
    112          1           0        9.180140   -2.312232   -1.715025
    113          1           0       10.952483   -2.691807   -1.502697
    114          1           0        9.769963   -2.722803   -0.041440
    115          1           0       11.374130    0.681394    0.416084
    116          1           0       11.384355   -1.106298    1.079114
    117          1           0       12.829392   -1.433963   -1.340159
    118          1           0       12.475203    0.254403   -1.325106
    119          1           0       13.523611    0.942135    0.427435
    120          1           0       13.717057   -0.769124    0.921924
    121          1           0       15.135118    0.434911   -1.396773
    122          1           0       15.809147   -2.404925   -0.012828
    123          1           0       15.050303   -2.039712   -1.668581
    124          1           0       16.748355   -1.459049   -1.557349
    125          1           0       16.056388    1.764348    0.529188
    126          1           0       16.557900    0.024724    1.429801
    127          1           0       17.969085   -0.432082   -0.269799
    128          1           0       17.894345    1.076558   -1.261664
    129          1           0       18.298745    2.381691    1.003940
    130          1           0       18.756472    0.956362    1.773534
    131          1           0       20.312323    0.404818   -0.041476
    132          1           0       19.700224    3.371319   -0.768242
    133          1           0       21.331514    2.423023   -1.385686
    134          1           0       19.670406    1.823514   -1.942939
    135          1           0       21.223920    1.257377    1.981182
    136          1           0       21.978776    1.785919    0.604181
    137          1           0       20.987287    2.807092    1.565377
 ---------------------------------------------------------------------

 SCF Done:  E(RCAM-B3LYP) =  -2932.56480467     A.U. after   17 cycles

 Excitation energies and oscillator strengths:

 Excited State   1:      Singlet-A      2.3338 eV  531.26 nm  f=0.1395  <S**2>=0.000
     240 -> 242       -0.12690
     240 -> 243        0.32702
     241 -> 242        0.58807
     241 -> 243        0.14461
 This state for optimization and/or second-order correction.
 Total Energy, E(TD-HF/TD-KS) =  -2932.47903989
 Copying the excited state density for this state as the 1-particle RhoCI density.

 The electronic state is 1-A.
 Alpha  occ. eigenvalues --  -46.85594 -19.28393 -19.24948 -19.21125 -19.20395
 Alpha  occ. eigenvalues --  -19.19956 -14.42509 -14.39665 -14.39393 -14.38545
 Alpha  occ. eigenvalues --  -10.39797 -10.39436 -10.36332 -10.32043 -10.30981
 Alpha  occ. eigenvalues --  -10.30719 -10.30675 -10.30661 -10.30230 -10.29753
 Alpha  occ. eigenvalues --  -10.29181 -10.29072 -10.29062 -10.29012 -10.28303
 Alpha  occ. eigenvalues --  -10.28228 -10.28098 -10.28056 -10.28026 -10.27760
 Alpha  occ. eigenvalues --  -10.27742 -10.27582 -10.27558 -10.27447 -10.27414
 Alpha  occ. eigenvalues --  -10.27384 -10.27295 -10.27144 -10.26868 -10.26798
 Alpha  occ. eigenvalues --  -10.26615 -10.26567 -10.26528 -10.26515 -10.26396
 Alpha  occ. eigenvalues --  -10.26335 -10.26301 -10.26177 -10.26113 -10.26053
 Alpha  occ. eigenvalues --  -10.26042 -10.25972 -10.25953 -10.25619 -10.25411
 Alpha  occ. eigenvalues --  -10.25342 -10.25028 -10.24826 -10.24610 -10.24568
 Alpha  occ. eigenvalues --  -10.24354 -10.24139 -10.24044 -10.23932 -10.21110
 Alpha  occ. eigenvalues --   -3.14423  -1.89142  -1.88649  -1.88587  -1.22829
 Alpha  occ. eigenvalues --   -1.17548  -1.08186  -1.07511  -1.07062  -1.06271
 Alpha  occ. eigenvalues --   -1.05339  -1.03577  -1.02446  -0.93033  -0.92956
 Alpha  occ. eigenvalues --   -0.91216  -0.90915  -0.90426  -0.90022  -0.89885
 Alpha  occ. eigenvalues --   -0.88735  -0.88581  -0.87497  -0.87124  -0.86889
 Alpha  occ. eigenvalues --   -0.86048  -0.85459  -0.84504  -0.83936  -0.83129
 Alpha  occ. eigenvalues --   -0.82570  -0.82011  -0.81448  -0.80548  -0.79009
 Alpha  occ. eigenvalues --   -0.78750  -0.77695  -0.76722  -0.76323  -0.75414
 Alpha  occ. eigenvalues --   -0.75120  -0.74329  -0.74028  -0.73072  -0.72653
 Alpha  occ. eigenvalues --   -0.72485  -0.70921  -0.69538  -0.69017  -0.68597
 Alpha  occ. eigenvalues --   -0.68130  -0.67345  -0.66542  -0.65852  -0.65658
 Alpha  occ. eigenvalues --   -0.65032  -0.64063  -0.63139  -0.62523  -0.62307
 Alpha  occ. eigenvalues --   -0.61538  -0.61059  -0.60981  -0.60504  -0.59912
 Alpha  occ. eigenvalues --   -0.59246  -0.58996  -0.58596  -0.57954  -0.57483
 Alpha  occ. eigenvalues --   -0.57175  -0.56959  -0.56278  -0.56133  -0.55747
 Alpha  occ. eigenvalues --   -0.55694  -0.55480  -0.55318  -0.54010  -0.53783
 Alpha  occ. eigenvalues --   -0.53680  -0.53271  -0.52752  -0.52537  -0.52202
 Alpha  occ. eigenvalues --   -0.51961  -0.51758  -0.51625  -0.51562  -0.51122
 Alpha  occ. eigenvalues --   -0.50817  -0.50732  -0.50452  -0.50159  -0.50048
 Alpha  occ. eigenvalues --   -0.49739  -0.49189  -0.49165  -0.48920  -0.48539
 Alpha  occ. eigenvalues --   -0.48349  -0.48210  -0.48109  -0.47740  -0.47443
 Alpha  occ. eigenvalues --   -0.46805  -0.46622  -0.46291  -0.46201  -0.45761
 Alpha  occ. eigenvalues --   -0.45552  -0.45406  -0.45195  -0.45051  -0.44994
 Alpha  occ. eigenvalues --   -0.44742  -0.44404  -0.44344  -0.44020  -0.43885
 Alpha  occ. eigenvalues --   -0.43814  -0.43621  -0.43240  -0.43141  -0.42877
 Alpha  occ. eigenvalues --   -0.42729  -0.42682  -0.42650  -0.42516  -0.42369
 Alpha  occ. eigenvalues --   -0.41961  -0.41902  -0.41652  -0.41416  -0.41358
 Alpha  occ. eigenvalues --   -0.40937  -0.40754  -0.40674  -0.40606  -0.40210
 Alpha  occ. eigenvalues --   -0.40044  -0.39594  -0.39391  -0.39147  -0.39024
 Alpha  occ. eigenvalues --   -0.38882  -0.38539  -0.38274  -0.38062  -0.37912
 Alpha  occ. eigenvalues --   -0.37803  -0.37622  -0.37620  -0.36973  -0.36836
 Alpha  occ. eigenvalues --   -0.36281  -0.36060  -0.35781  -0.35513  -0.35311
 Alpha  occ. eigenvalues --   -0.35093  -0.35061  -0.34440  -0.34138  -0.33389
 Alpha  occ. eigenvalues --   -0.33031  -0.32909  -0.32295  -0.31830  -0.30247
 Alpha  occ. eigenvalues --   -0.29926  -0.29095  -0.27963  -0.27100  -0.23683
 Alpha  occ. eigenvalues --   -0.21733
 Alpha virt. eigenvalues --   -0.05315  -0.04163   0.00566   0.03409   0.04092
 Alpha virt. eigenvalues --    0.04473   0.04768   0.05131   0.06725   0.07202
 Alpha virt. eigenvalues --    0.07861   0.09683   0.10338   0.11507   0.11777

 Mulliken charges:
               1
     1  Mg   0.831632
     2  C    0.092229
     3  C   -0.165955
     4  C   -0.226261
     5  C   -0.177735
     6  N   -0.632718
     7  C    0.294184
     8  C   -0.177300
     9  C   -0.164923
    10  C    0.342878
    11  C   -0.329375
    12  C   -0.137878
    13  C   -0.266902
    14  C    0.641725
    15  O   -0.489556
    16  O   -0.500196
    17  N   -0.740763
    18  C    0.349132
    19  C    0.007789
    20  C    0.033080
    21  C    0.375271
    22  C   -0.398461
    23  C   -0.073559
    24  C   -0.202496
    25  N   -0.702530
    26  C    0.315961
    27  C    0.020969
    28  C   -0.018553
    29  C    0.340760
    30  C   -0.362258
    31  C   -0.244587
    32  C   -0.272578
    33  N   -0.733095
    34  C    0.304882
    35  C   -0.032469
    36  C    0.086881
    37  C    0.202170
    38  C   -0.365998
    39  C    0.365161
    40  O   -0.503671
    41  C   -0.293999
    42  C    0.615728
    43  O   -0.531073
    44  O   -0.367807
    45  C   -0.100710
    46  C    0.033685
    47  C   -0.136693
    48  C    0.151668
    49  C   -0.383927
    50  C   -0.232315
    51  C   -0.175238
    52  C   -0.168294
    53  C   -0.044451
    54  C   -0.298627
    55  C   -0.176283
    56  C   -0.197557
    57  C   -0.166107
    58  C   -0.036503
    59  C   -0.311532
    60  C   -0.171380
    61  C   -0.182625
    62  C   -0.180929
    63  C   -0.057522
    64  C   -0.302309
    65  C   -0.285950
    66  H    0.062857
    67  H    0.073237
    68  H    0.106730
    69  H    0.120323
    70  H    0.108377
    71  H    0.124807
    72  H    0.085329
    73  H    0.142430
    74  H    0.119061
    75  H    0.114978
    76  H    0.128019
    77  H    0.110432
    78  H    0.126515
    79  H    0.097336
    80  H    0.111342
    81  H    0.090423
    82  H    0.105419
    83  H    0.086943
    84  H    0.101274
    85  H    0.087343
    86  H    0.140540
    87  H    0.091562
    88  H    0.093738
    89  H    0.106140
    90  H    0.124741
    91  H    0.065913
    92  H    0.107048
    93  H    0.155141
    94  H    0.125919
    95  H    0.169019
    96  H    0.124538
    97  H    0.134674
    98  H    0.114741
    99  H    0.134914
   100  H    0.117422
   101  H    0.085908
   102  H    0.127787
   103  H    0.116441
   104  H    0.096924
   105  H    0.111234
   106  H    0.088133
   107  H    0.092291
   108  H    0.099473
   109  H    0.095759
   110  H    0.086955
   111  H    0.062820
   112  H    0.111594
   113  H    0.093630
   114  H    0.069296
   115  H    0.076501
   116  H    0.061388
   117  H    0.095445
   118  H    0.105101
   119  H    0.089740
   120  H    0.100496
   121  H    0.095299
   122  H    0.093082
   123  H    0.104305
   124  H    0.070416
   125  H    0.069300
   126  H    0.084470
   127  H    0.123580
   128  H    0.109629
   129  H    0.090808
   130  H    0.059813
   131  H    0.087837
   132  H    0.088735
   133  H    0.080142
   134  H    0.080603
   135  H    0.102884
   136  H    0.101021
   137  H    0.097801
 Sum of Mulliken charges =   0.00000

 Dipole moment (field-independent basis, Debye):
    X=              2.4546    Y=              5.1706    Z=              1.0136  Tot=              5.8127
 Quadrupole moment (field-independent basis, Debye-Ang):
   XX=           -364.5875   YY=           -399.6293   ZZ=           -399.7580
   XY=            -24.9105   XZ=             -0.2828   YZ=              2.3042

 Normal termination of Gaussian 09 at Fri Jul  5 08:04:36 2019.
