 Gaussian 09, Revision D.01,
 Gaussian 09:  ES64L-G09RevD.01 24-Apr-2013

 -------------------------------------
 # td=(NStates=1) CAM-B3LYP/6-31G(d,p)
 -------------------------------------

 --
 TD
 --
 Symbolic Z-matrix:
 Charge =  0 Multiplicity = 1

                         Standard orientation:
 ---------------------------------------------------------------------
 Center     Atomic      Atomic             Coordinates (Angstroms)
 Number     Number       Type             X           Y           Z
 ---------------------------------------------------------------------
      1         12           0       -7.083701    0.584073    0.081779
      2          6           0       -4.841532   -1.977829    0.441116
      3          6           0       -4.814126    2.836435    1.195896
      4          6           0       -9.425886    3.156433   -0.384158
      5          6           0       -9.458207   -1.671286   -0.849877
      6          7           0       -5.132526    0.392940    0.715957
      7          6           0       -4.336417   -0.754262    0.757741
      8          6           0       -2.963801   -0.501254    1.320857
      9          6           0       -3.021359    0.994552    1.733568
     10          6           0       -4.381485    1.446415    1.150704
     11          6           0       -3.059559    1.215551    3.226642
     12          6           0       -1.983611   -0.668700    0.220117
     13          6           0       -0.462030   -0.458587    0.562521
     14          6           0        0.487482   -0.715895   -0.592718
     15          8           0        0.081127   -1.033722   -1.768254
     16          8           0        1.760047   -0.440011   -0.219638
     17          7           0       -7.111145    2.669197    0.316928
     18          6           0       -6.033163    3.355884    0.621645
     19          6           0       -6.337975    4.810024    0.739019
     20          6           0       -7.632894    4.904194    0.406504
     21          6           0       -8.103412    3.504908    0.083984
     22          6           0       -5.456242    5.934330    1.213670
     23          6           0       -8.538112    6.014845    0.078228
     24          6           0       -8.525982    7.254352    0.741638
     25          7           0       -9.160576    0.656611   -0.574295
     26          6           0       -9.877533    1.856924   -0.648760
     27          6           0      -11.257759    1.548154   -1.010487
     28          6           0      -11.255172    0.168000   -1.207367
     29          6           0       -9.975716   -0.304499   -0.848184
     30          6           0      -12.310160    2.587007   -1.369149
     31          6           0      -12.439082   -0.772050   -1.696849
     32          6           0      -12.285387   -1.084379   -3.148966
     33          7           0       -7.125005   -1.408917   -0.217281
     34          6           0       -8.237502   -2.249286   -0.484167
     35          6           0       -7.832974   -3.621444   -0.540836
     36          6           0       -6.458563   -3.593783   -0.214116
     37          6           0       -6.094452   -2.289643   -0.000116
     38          6           0       -8.615597   -4.784042   -0.809775
     39          6           0       -5.362752   -4.405021    0.194958
     40          8           0       -5.164670   -5.590942    0.293165
     41          6           0       -4.160720   -3.391530    0.571853
     42          6           0       -3.563068   -3.728370    1.929810
     43          8           0       -3.604147   -3.030493    2.889584
     44          8           0       -2.828004   -4.763983    1.754392
     45          6           0       -2.046091   -5.169866    2.956126
     46          6           0        2.792465   -0.761677   -1.215016
     47          6           0        4.139668   -0.618629   -0.648276
     48          6           0        5.131389    0.160316   -1.171447
     49          6           0        4.972234    0.998576   -2.532565
     50          6           0        6.412277    0.401826   -0.344915
     51          6           0        7.635498   -0.168918   -1.163188
     52          6           0        8.881985   -0.261378   -0.110401
     53          6           0       10.148917   -0.587598   -0.904809
     54          6           0       10.193073   -2.026235   -1.196580
     55          6           0       11.472779   -0.207813   -0.016261
     56          6           0       12.760406   -0.516691   -0.624842
     57          6           0       13.916793    0.042531    0.077703
     58          6           0       15.359002   -0.213809   -0.387482
     59          6           0       15.606320   -1.715044   -0.611294
     60          6           0       16.415146    0.445124    0.465721
     61          6           0       17.809265    0.593850   -0.224515
     62          6           0       18.801245    1.298893    0.730615
     63          6           0       20.209490    1.419132    0.204088
     64          6           0       20.285080    2.334501   -1.003863
     65          6           0       21.117722    1.940496    1.356435
     66          1           0       -4.163924    3.512097    1.600679
     67          1           0      -10.024105    3.986737   -0.488846
     68          1           0      -10.265700   -2.403568   -0.950915
     69          1           0       -2.765370   -1.083298    2.100102
     70          1           0       -2.112000    1.616076    1.502818
     71          1           0       -2.233922    1.011812    3.991296
     72          1           0       -3.372433    2.275748    3.577911
     73          1           0       -3.878978    0.746312    3.713407
     74          1           0       -2.147120   -1.795177    0.011096
     75          1           0       -2.315726    0.058909   -0.645263
     76          1           0       -0.486324    0.535218    1.086522
     77          1           0       -0.154789   -1.334455    1.276181
     78          1           0       -5.924449    6.840383    0.894464
     79          1           0       -5.260567    6.148682    2.385117
     80          1           0       -4.452648    5.720276    0.759433
     81          1           0       -9.165241    6.262836   -0.680358
     82          1           0       -9.058588    8.191849    0.507432
     83          1           0       -7.791820    7.412819    1.715112
     84          1           0      -11.864451    3.206278   -2.344405
     85          1           0      -13.229556    2.159056   -1.727453
     86          1           0      -12.603033    3.307221   -0.577727
     87          1           0      -12.354493   -1.554793   -0.982952
     88          1           0      -13.321929   -0.137748   -1.439725
     89          1           0      -13.066332   -1.917526   -3.617782
     90          1           0      -12.177380   -0.251872   -3.964975
     91          1           0      -11.356981   -1.788578   -3.107119
     92          1           0       -9.055029   -4.853141   -1.799253
     93          1           0       -7.911573   -5.672683   -0.891674
     94          1           0       -9.338209   -4.742672    0.085421
     95          1           0       -3.438689   -3.705907   -0.293516
     96          1           0       -1.117367   -4.536765    3.229587
     97          1           0       -2.796459   -5.026043    3.818485
     98          1           0       -1.679263   -6.241958    2.575339
     99          1           0        2.511940   -1.773338   -1.732767
    100          1           0        2.895377   -0.020302   -2.075838
    101          1           0        4.427037   -1.112615    0.274179
    102          1           0        4.134255    1.240535   -2.996983
    103          1           0        5.701739    1.974770   -2.258481
    104          1           0        5.805050    0.714483   -3.282341
    105          1           0        6.630491    1.486079   -0.130624
    106          1           0        6.386823    0.063865    0.758613
    107          1           0        7.468612   -1.082736   -1.580746
    108          1           0        7.652095    0.688924   -1.930134
    109          1           0        8.990967    0.716365    0.452882
    110          1           0        8.697479   -1.030670    0.389236
    111          1           0       10.152397   -0.071207   -1.867673
    112          1           0        9.363478   -2.258810   -1.778231
    113          1           0       10.945024   -2.466745   -2.042150
    114          1           0       10.327707   -2.755127   -0.391504
    115          1           0       11.577865    0.901241    0.295710
    116          1           0       11.421874   -0.749358    0.897811
    117          1           0       13.079607   -1.540436   -1.056950
    118          1           0       12.869790    0.182411   -1.570708
    119          1           0       13.675642    1.039570    0.579259
    120          1           0       14.123399   -0.571250    1.059717
    121          1           0       15.424518    0.261069   -1.358654
    122          1           0       15.367691   -2.359154    0.351259
    123          1           0       14.932801   -2.028839   -1.340370
    124          1           0       16.553722   -1.753272   -0.997131
    125          1           0       16.122335    1.531035    0.631050
    126          1           0       16.628489   -0.070788    1.326935
    127          1           0       18.430844   -0.222675   -0.706314
    128          1           0       17.553694    1.254502   -1.179705
    129          1           0       18.514645    2.257132    1.023199
    130          1           0       18.864532    0.677301    1.596244
    131          1           0       20.713675    0.353903    0.008299
    132          1           0       19.932427    3.162245   -0.711630
    133          1           0       21.427676    2.759934   -1.426586
    134          1           0       19.717834    1.942695   -1.980750
    135          1           0       20.981336    1.529217    2.419901
    136          1           0       22.234587    1.830251    1.245017
    137          1           0       20.999853    3.026771    1.382895
 ---------------------------------------------------------------------

 SCF Done:  E(RCAM-B3LYP) =  -2932.63017164     A.U. after   15 cycles

 Excitation energies and oscillator strengths:

 Excited State   1:      Singlet-A      1.9911 eV  622.70 nm  f=0.2374  <S**2>=0.000
     240 -> 243        0.23685
     241 -> 242        0.65110
 This state for optimization and/or second-order correction.
 Total Energy, E(TD-HF/TD-KS) =  -2932.55700099
 Copying the excited state density for this state as the 1-particle RhoCI density.

 The electronic state is 1-A.
 Alpha  occ. eigenvalues --  -46.85154 -19.27452 -19.26721 -19.20615 -19.20394
 Alpha  occ. eigenvalues --  -19.19802 -14.42080 -14.39941 -14.38803 -14.38743
 Alpha  occ. eigenvalues --  -10.40068 -10.38340 -10.34477 -10.33829 -10.32819
 Alpha  occ. eigenvalues --  -10.31811 -10.30360 -10.30219 -10.29422 -10.29210
 Alpha  occ. eigenvalues --  -10.29164 -10.28706 -10.28598 -10.28598 -10.28229
 Alpha  occ. eigenvalues --  -10.28155 -10.28128 -10.28066 -10.28055 -10.27946
 Alpha  occ. eigenvalues --  -10.27934 -10.27635 -10.27547 -10.27502 -10.27342
 Alpha  occ. eigenvalues --  -10.27254 -10.27087 -10.26978 -10.26973 -10.26952
 Alpha  occ. eigenvalues --  -10.26734 -10.26647 -10.26636 -10.26424 -10.26344
 Alpha  occ. eigenvalues --  -10.26328 -10.26185 -10.26006 -10.25899 -10.25771
 Alpha  occ. eigenvalues --  -10.25754 -10.25608 -10.25514 -10.25472 -10.25468
 Alpha  occ. eigenvalues --  -10.25389 -10.25347 -10.25058 -10.25030 -10.24982
 Alpha  occ. eigenvalues --  -10.24910 -10.24832 -10.24830 -10.24164 -10.23894
 Alpha  occ. eigenvalues --   -3.14016  -1.88738  -1.88237  -1.88197  -1.20223
 Alpha  occ. eigenvalues --   -1.16833  -1.11153  -1.10271  -1.06203  -1.05719
 Alpha  occ. eigenvalues --   -1.04008  -1.03656  -1.02429  -0.92017  -0.91478
 Alpha  occ. eigenvalues --   -0.90713  -0.90306  -0.89816  -0.89123  -0.88982
 Alpha  occ. eigenvalues --   -0.88553  -0.87813  -0.87455  -0.86733  -0.85984
 Alpha  occ. eigenvalues --   -0.84988  -0.84226  -0.83272  -0.82955  -0.82240
 Alpha  occ. eigenvalues --   -0.81491  -0.81064  -0.80717  -0.80147  -0.78711
 Alpha  occ. eigenvalues --   -0.77323  -0.76425  -0.76397  -0.75824  -0.75426
 Alpha  occ. eigenvalues --   -0.75394  -0.75021  -0.74814  -0.73467  -0.72280
 Alpha  occ. eigenvalues --   -0.71317  -0.69918  -0.68762  -0.68425  -0.68049
 Alpha  occ. eigenvalues --   -0.67135  -0.66629  -0.65287  -0.65095  -0.64731
 Alpha  occ. eigenvalues --   -0.63853  -0.63748  -0.62946  -0.62741  -0.62155
 Alpha  occ. eigenvalues --   -0.61828  -0.60879  -0.60393  -0.60157  -0.59725
 Alpha  occ. eigenvalues --   -0.58680  -0.58284  -0.57430  -0.56752  -0.56731
 Alpha  occ. eigenvalues --   -0.56333  -0.55894  -0.55656  -0.55493  -0.54897
 Alpha  occ. eigenvalues --   -0.54556  -0.54351  -0.54023  -0.53795  -0.53436
 Alpha  occ. eigenvalues --   -0.53135  -0.52541  -0.52242  -0.52165  -0.51386
 Alpha  occ. eigenvalues --   -0.50981  -0.50915  -0.50506  -0.50455  -0.50286
 Alpha  occ. eigenvalues --   -0.50221  -0.49903  -0.49499  -0.49281  -0.49206
 Alpha  occ. eigenvalues --   -0.49193  -0.48770  -0.48609  -0.48272  -0.48201
 Alpha  occ. eigenvalues --   -0.47949  -0.47873  -0.47348  -0.47242  -0.47026
 Alpha  occ. eigenvalues --   -0.46645  -0.46483  -0.46337  -0.46149  -0.46021
 Alpha  occ. eigenvalues --   -0.45623  -0.45413  -0.45115  -0.44990  -0.44857
 Alpha  occ. eigenvalues --   -0.44668  -0.44391  -0.44320  -0.44264  -0.44003
 Alpha  occ. eigenvalues --   -0.43897  -0.43735  -0.43563  -0.43376  -0.42978
 Alpha  occ. eigenvalues --   -0.42903  -0.42780  -0.42627  -0.42374  -0.42183
 Alpha  occ. eigenvalues --   -0.42081  -0.41939  -0.41814  -0.41660  -0.41312
 Alpha  occ. eigenvalues --   -0.40964  -0.40702  -0.40589  -0.40142  -0.39938
 Alpha  occ. eigenvalues --   -0.39826  -0.39615  -0.39496  -0.39316  -0.39226
 Alpha  occ. eigenvalues --   -0.39013  -0.38595  -0.38397  -0.37818  -0.37538
 Alpha  occ. eigenvalues --   -0.37468  -0.37310  -0.37035  -0.36673  -0.36589
 Alpha  occ. eigenvalues --   -0.36377  -0.36305  -0.36109  -0.35984  -0.35547
 Alpha  occ. eigenvalues --   -0.35307  -0.34751  -0.33939  -0.33678  -0.33362
 Alpha  occ. eigenvalues --   -0.32949  -0.32391  -0.32233  -0.30771  -0.29323
 Alpha  occ. eigenvalues --   -0.29291  -0.28977  -0.28234  -0.27912  -0.23166
 Alpha  occ. eigenvalues --   -0.20710
 Alpha virt. eigenvalues --   -0.06394  -0.03108   0.01682   0.03902   0.04804
 Alpha virt. eigenvalues --    0.05014   0.06011   0.06547   0.06592   0.07145
 Alpha virt. eigenvalues --    0.08659   0.10706   0.11067   0.11597   0.11952

 Mulliken charges:
               1
     1  Mg   0.828082
     2  C    0.085291
     3  C   -0.184273
     4  C   -0.139812
     5  C   -0.175039
     6  N   -0.654662
     7  C    0.276824
     8  C   -0.117811
     9  C   -0.151226
    10  C    0.332658
    11  C   -0.333357
    12  C   -0.152537
    13  C   -0.264326
    14  C    0.623696
    15  O   -0.499385
    16  O   -0.466189
    17  N   -0.661831
    18  C    0.281033
    19  C    0.023917
    20  C    0.022008
    21  C    0.265920
    22  C   -0.359860
    23  C   -0.097774
    24  C   -0.261390
    25  N   -0.662333
    26  C    0.267538
    27  C    0.023369
    28  C   -0.037231
    29  C    0.323054
    30  C   -0.367295
    31  C   -0.211946
    32  C   -0.283705
    33  N   -0.729137
    34  C    0.263038
    35  C    0.045506
    36  C    0.048817
    37  C    0.274072
    38  C   -0.390367
    39  C    0.326857
    40  O   -0.460410
    41  C   -0.349513
    42  C    0.630636
    43  O   -0.480229
    44  O   -0.415890
    45  C   -0.099761
    46  C    0.025091
    47  C   -0.138320
    48  C    0.130855
    49  C   -0.372848
    50  C   -0.251212
    51  C   -0.186803
    52  C   -0.159652
    53  C   -0.057549
    54  C   -0.321950
    55  C   -0.177020
    56  C   -0.150687
    57  C   -0.167230
    58  C   -0.073739
    59  C   -0.303440
    60  C   -0.161027
    61  C   -0.195094
    62  C   -0.152780
    63  C   -0.067040
    64  C   -0.277776
    65  C   -0.318864
    66  H    0.077600
    67  H    0.084745
    68  H    0.076144
    69  H    0.137440
    70  H    0.106220
    71  H    0.104507
    72  H    0.093414
    73  H    0.129606
    74  H    0.100380
    75  H    0.108950
    76  H    0.132050
    77  H    0.123016
    78  H    0.127203
    79  H    0.104484
    80  H    0.112435
    81  H    0.112871
    82  H    0.113878
    83  H    0.077207
    84  H    0.098374
    85  H    0.120159
    86  H    0.122557
    87  H    0.119327
    88  H    0.098896
    89  H    0.074261
    90  H    0.115540
    91  H    0.098733
    92  H    0.134732
    93  H    0.144543
    94  H    0.131314
    95  H    0.163285
    96  H    0.124064
    97  H    0.149458
    98  H    0.132156
    99  H    0.127725
   100  H    0.105820
   101  H    0.087815
   102  H    0.142630
   103  H    0.085519
   104  H    0.122669
   105  H    0.107174
   106  H    0.095599
   107  H    0.118627
   108  H    0.088329
   109  H    0.091707
   110  H    0.111658
   111  H    0.091322
   112  H    0.107984
   113  H    0.076494
   114  H    0.109176
   115  H    0.077863
   116  H    0.096212
   117  H    0.092370
   118  H    0.065525
   119  H    0.075612
   120  H    0.050871
   121  H    0.076434
   122  H    0.086341
   123  H    0.109226
   124  H    0.112484
   125  H    0.093166
   126  H    0.101121
   127  H    0.093604
   128  H    0.069404
   129  H    0.095904
   130  H    0.099852
   131  H    0.068646
   132  H    0.121081
   133  H    0.057036
   134  H    0.093533
   135  H    0.092785
   136  H    0.097353
   137  H    0.095840
 Sum of Mulliken charges =   0.00000

 Dipole moment (field-independent basis, Debye):
    X=              2.1740    Y=              3.4173    Z=              0.9533  Tot=              4.1609
 Quadrupole moment (field-independent basis, Debye-Ang):
   XX=           -362.6058   YY=           -388.2825   ZZ=           -395.8701
   XY=            -18.4975   XZ=             11.0778   YZ=             -3.8207

 Normal termination of Gaussian 09 at Fri Jul  5 14:06:43 2019.
