 Gaussian 16, Revision A.03,
 Gaussian 16:  ES64L-G16RevA.03 25-Dec-2016

 ----------------------------------------------------------------------
 # td=(NStates=1) iop(3/107=0140000000,3/108=0140000000) CAM-B3LYP/6-31
 G(d,p)
 ----------------------------------------------------------------------

 --
 TD
 --
 Symbolic Z-matrix:
 Charge =  0 Multiplicity = 1

                         Standard orientation:
 ---------------------------------------------------------------------
 Center     Atomic      Atomic             Coordinates (Angstroms)
 Number     Number       Type             X           Y           Z
 ---------------------------------------------------------------------
      1         12           0       -7.104175    0.699368   -0.063196
      2          6           0       -4.824617   -1.984213    0.416568
      3          6           0       -4.853717    2.758453    1.215243
      4          6           0       -9.379592    3.021940   -0.290246
      5          6           0       -9.525280   -1.649024   -0.999927
      6          7           0       -5.126397    0.386943    0.713112
      7          6           0       -4.327747   -0.779193    0.790626
      8          6           0       -2.930409   -0.493789    1.228915
      9          6           0       -3.045849    1.073932    1.612666
     10          6           0       -4.391078    1.410185    1.166228
     11          6           0       -2.980845    1.060965    3.187712
     12          6           0       -1.878795   -0.769561    0.114794
     13          6           0       -0.372146   -0.518159    0.524390
     14          6           0        0.514100   -0.596548   -0.644154
     15          8           0        0.188104   -0.870605   -1.765542
     16          8           0        1.766210   -0.394756   -0.292021
     17          7           0       -7.107861    2.659699    0.339901
     18          6           0       -6.048246    3.401996    0.794387
     19          6           0       -6.338016    4.822604    0.766707
     20          6           0       -7.697694    4.851224    0.383058
     21          6           0       -8.155499    3.499583    0.116959
     22          6           0       -5.212103    5.872748    1.148564
     23          6           0       -8.523698    6.096613    0.255516
     24          6           0       -8.281073    7.316888    0.713483
     25          7           0       -9.212390    0.719387   -0.477657
     26          6           0       -9.878748    1.797465   -0.545013
     27          6           0      -11.184347    1.508926   -0.982377
     28          6           0      -11.318956    0.103298   -1.119002
     29          6           0       -9.956726   -0.342950   -0.936227
     30          6           0      -12.304354    2.525676   -1.184343
     31          6           0      -12.298266   -0.771702   -1.692671
     32          6           0      -12.070172   -1.248825   -3.124899
     33          7           0       -7.149359   -1.340099   -0.295671
     34          6           0       -8.218314   -2.115954   -0.739692
     35          6           0       -7.821750   -3.541619   -0.570325
     36          6           0       -6.385817   -3.538942   -0.110413
     37          6           0       -6.152166   -2.150317    0.027266
     38          6           0       -8.669526   -4.762286   -0.953383
     39          6           0       -5.395361   -4.425524    0.210633
     40          8           0       -5.260084   -5.671999    0.254900
     41          6           0       -4.157449   -3.439972    0.586449
     42          6           0       -3.584741   -3.792467    1.934592
     43          8           0       -3.803131   -3.166364    2.974634
     44          8           0       -2.752205   -4.837932    1.809010
     45          6           0       -2.197086   -5.271790    3.015054
     46          6           0        2.774809   -0.627464   -1.382914
     47          6           0        4.125332   -0.350302   -0.625534
     48          6           0        5.083603    0.512633   -1.004738
     49          6           0        5.118238    1.347986   -2.281353
     50          6           0        6.439202    0.458290   -0.226771
     51          6           0        7.608555   -0.168686   -0.991067
     52          6           0        8.814846   -0.168852   -0.181093
     53          6           0       10.182751   -0.537521   -0.923282
     54          6           0       10.227890   -2.022001   -1.229750
     55          6           0       11.344580   -0.096358   -0.045325
     56          6           0       12.779532   -0.374181   -0.743314
     57          6           0       13.954470    0.049659    0.126699
     58          6           0       15.360923   -0.264180   -0.486283
     59          6           0       15.621474   -1.641298   -0.917800
     60          6           0       16.390637    0.257155    0.461853
     61          6           0       17.685313    0.612280   -0.167634
     62          6           0       18.688880    1.222361    0.843155
     63          6           0       20.203526    1.257255    0.319880
     64          6           0       20.290436    2.047483   -0.990806
     65          6           0       21.089335    1.895130    1.368016
     66          1           0       -4.170081    3.530549    1.524724
     67          1           0      -10.269934    3.935724   -0.381910
     68          1           0      -10.209477   -2.408791   -1.416974
     69          1           0       -2.788989   -1.257702    2.167648
     70          1           0       -2.225608    1.698980    1.140999
     71          1           0       -1.961667    0.658104    3.454449
     72          1           0       -3.172014    2.011346    3.615155
     73          1           0       -3.772298    0.268127    3.452488
     74          1           0       -1.917842   -1.642526   -0.267299
     75          1           0       -2.223404    0.017612   -0.706175
     76          1           0       -0.261674    0.505696    0.924938
     77          1           0       -0.071733   -1.134212    1.425612
     78          1           0       -5.326025    6.830870    0.578487
     79          1           0       -5.306375    6.029001    2.056902
     80          1           0       -4.134210    5.716179    0.712687
     81          1           0       -9.342113    6.065464   -0.421181
     82          1           0       -9.004663    8.140378    0.438451
     83          1           0       -7.356409    7.286435    1.443632
     84          1           0      -12.375866    3.260942   -2.023751
     85          1           0      -13.301107    2.091813   -1.393753
     86          1           0      -12.512411    3.280339   -0.252348
     87          1           0      -12.557394   -1.792636   -1.087947
     88          1           0      -13.322150   -0.276809   -1.473188
     89          1           0      -12.978403   -1.675493   -3.395384
     90          1           0      -11.805602   -0.287405   -3.722532
     91          1           0      -11.069426   -1.939163   -3.251293
     92          1           0       -9.031101   -4.732042   -1.827072
     93          1           0       -8.152157   -5.766457   -0.819892
     94          1           0       -9.465116   -4.947576   -0.132242
     95          1           0       -3.545285   -3.697803   -0.224797
     96          1           0       -1.508920   -4.460983    3.460861
     97          1           0       -3.141016   -5.282031    3.645582
     98          1           0       -1.661360   -6.212409    2.717300
     99          1           0        2.668941   -1.516840   -1.833577
    100          1           0        2.621660    0.277908   -2.121487
    101          1           0        4.191440   -1.105590    0.099207
    102          1           0        4.004561    1.072375   -2.921894
    103          1           0        5.264186    2.325702   -1.967624
    104          1           0        5.959637    1.074963   -2.818346
    105          1           0        6.677067    1.429245    0.154952
    106          1           0        6.189630   -0.052083    0.606275
    107          1           0        7.070862   -1.201035   -1.385116
    108          1           0        7.797030    0.451079   -1.922420
    109          1           0        9.098034    0.787269    0.208799
    110          1           0        8.831888   -0.762469    0.611287
    111          1           0       10.254034    0.023576   -1.947500
    112          1           0        9.319235   -2.586725   -1.943679
    113          1           0       11.082777   -2.230240   -1.966909
    114          1           0       10.354517   -2.726595   -0.245288
    115          1           0       11.189163    1.099255    0.150353
    116          1           0       11.283330   -0.778223    0.913024
    117          1           0       12.884061   -1.441030   -0.908472
    118          1           0       12.792449   -0.027830   -1.690843
    119          1           0       13.749620    1.170618    0.684284
    120          1           0       14.081812   -0.522469    1.229207
    121          1           0       15.521376    0.475853   -1.285933
    122          1           0       15.825963   -2.452273    0.089873
    123          1           0       14.767048   -2.195299   -1.526312
    124          1           0       16.540811   -1.668673   -1.504167
    125          1           0       15.800611    1.170735    0.865513
    126          1           0       16.765200   -0.344740    1.505696
    127          1           0       17.988763   -0.555413   -0.531557
    128          1           0       17.336496    1.153033   -1.128689
    129          1           0       18.296606    2.241395    1.106922
    130          1           0       18.695173    0.587980    1.787616
    131          1           0       20.543723    0.308043    0.284533
    132          1           0       19.923620    3.005007   -0.780783
    133          1           0       21.335739    2.067079   -1.299900
    134          1           0       19.628748    1.691260   -1.846483
    135          1           0       21.168380    1.264163    2.258408
    136          1           0       22.306794    2.086500    0.956130
    137          1           0       20.812329    2.715999    1.620953
 ---------------------------------------------------------------------

 SCF Done:  E(RCAM-B3LYP) =  -2933.39987475     A.U. after   16 cycles

 Excitation energies and oscillator strengths:

 Excited State   1:      Singlet-A      2.0756 eV  597.33 nm  f=0.2179  <S**2>=0.000
     240 -> 243       -0.23834
     241 -> 242        0.65897
 This state for optimization and/or second-order correction.
 Total Energy, E(TD-HF/TD-DFT) =  -2933.32359637
 Copying the excited state density for this state as the 1-particle RhoCI density.

 The electronic state is 1-A.
 Alpha  occ. eigenvalues --  -46.80663 -19.21927 -19.21307 -19.16456 -19.15463
 Alpha  occ. eigenvalues --  -19.14919 -14.37610 -14.35541 -14.34891 -14.34499
 Alpha  occ. eigenvalues --  -10.34315 -10.33181 -10.29357 -10.27629 -10.27149
 Alpha  occ. eigenvalues --  -10.26569 -10.25514 -10.25433 -10.25367 -10.25312
 Alpha  occ. eigenvalues --  -10.25187 -10.24235 -10.24115 -10.24057 -10.23885
 Alpha  occ. eigenvalues --  -10.23743 -10.23731 -10.23679 -10.23672 -10.23561
 Alpha  occ. eigenvalues --  -10.23525 -10.23497 -10.23426 -10.23367 -10.23292
 Alpha  occ. eigenvalues --  -10.23197 -10.23168 -10.23057 -10.22868 -10.22841
 Alpha  occ. eigenvalues --  -10.22784 -10.22710 -10.22644 -10.22610 -10.22592
 Alpha  occ. eigenvalues --  -10.22547 -10.22536 -10.22286 -10.22208 -10.22171
 Alpha  occ. eigenvalues --  -10.22001 -10.21948 -10.21907 -10.21862 -10.21628
 Alpha  occ. eigenvalues --  -10.21570 -10.21361 -10.21047 -10.20853 -10.20824
 Alpha  occ. eigenvalues --  -10.20782 -10.20493 -10.19835 -10.19672 -10.19655
 Alpha  occ. eigenvalues --   -3.09130  -1.84076  -1.83593  -1.83536  -1.13631
 Alpha  occ. eigenvalues --   -1.13184  -1.03885  -1.03683  -1.02866  -1.00753
 Alpha  occ. eigenvalues --   -0.99108  -0.98500  -0.97727  -0.87111  -0.86421
 Alpha  occ. eigenvalues --   -0.86074  -0.84987  -0.84412  -0.83901  -0.83476
 Alpha  occ. eigenvalues --   -0.83424  -0.83081  -0.82242  -0.81550  -0.80936
 Alpha  occ. eigenvalues --   -0.80061  -0.79224  -0.78639  -0.78219  -0.77943
 Alpha  occ. eigenvalues --   -0.77021  -0.76446  -0.76130  -0.75278  -0.73995
 Alpha  occ. eigenvalues --   -0.73397  -0.72570  -0.71878  -0.71473  -0.71144
 Alpha  occ. eigenvalues --   -0.70583  -0.70028  -0.69159  -0.68656  -0.68073
 Alpha  occ. eigenvalues --   -0.67436  -0.66345  -0.65673  -0.65185  -0.64176
 Alpha  occ. eigenvalues --   -0.62395  -0.62225  -0.60792  -0.60689  -0.60356
 Alpha  occ. eigenvalues --   -0.59550  -0.58654  -0.58525  -0.58166  -0.57884
 Alpha  occ. eigenvalues --   -0.57138  -0.57102  -0.56300  -0.55574  -0.55258
 Alpha  occ. eigenvalues --   -0.54803  -0.54252  -0.54071  -0.52945  -0.52837
 Alpha  occ. eigenvalues --   -0.52092  -0.51730  -0.51568  -0.51034  -0.50795
 Alpha  occ. eigenvalues --   -0.50131  -0.50099  -0.49667  -0.49549  -0.49285
 Alpha  occ. eigenvalues --   -0.49033  -0.48709  -0.48600  -0.48291  -0.48203
 Alpha  occ. eigenvalues --   -0.47802  -0.47701  -0.47138  -0.47087  -0.46905
 Alpha  occ. eigenvalues --   -0.46784  -0.46549  -0.46159  -0.46003  -0.45842
 Alpha  occ. eigenvalues --   -0.45516  -0.45256  -0.44666  -0.44572  -0.44496
 Alpha  occ. eigenvalues --   -0.44336  -0.44241  -0.43938  -0.43753  -0.43481
 Alpha  occ. eigenvalues --   -0.43362  -0.43145  -0.42756  -0.42598  -0.42467
 Alpha  occ. eigenvalues --   -0.42402  -0.42069  -0.41680  -0.41464  -0.41388
 Alpha  occ. eigenvalues --   -0.41311  -0.40921  -0.40760  -0.40557  -0.40427
 Alpha  occ. eigenvalues --   -0.40174  -0.40001  -0.39850  -0.39606  -0.39494
 Alpha  occ. eigenvalues --   -0.39330  -0.39206  -0.38891  -0.38654  -0.38568
 Alpha  occ. eigenvalues --   -0.38360  -0.38302  -0.38251  -0.38125  -0.37964
 Alpha  occ. eigenvalues --   -0.37798  -0.37727  -0.37468  -0.37285  -0.36882
 Alpha  occ. eigenvalues --   -0.36546  -0.36340  -0.36311  -0.35988  -0.35950
 Alpha  occ. eigenvalues --   -0.35554  -0.35277  -0.35175  -0.35036  -0.34761
 Alpha  occ. eigenvalues --   -0.34590  -0.34220  -0.34170  -0.34070  -0.33863
 Alpha  occ. eigenvalues --   -0.33768  -0.32858  -0.32760  -0.32465  -0.32346
 Alpha  occ. eigenvalues --   -0.32018  -0.31925  -0.31066  -0.30341  -0.30201
 Alpha  occ. eigenvalues --   -0.30131  -0.29982  -0.29869  -0.28559  -0.27541
 Alpha  occ. eigenvalues --   -0.26283  -0.25798  -0.25671  -0.25411  -0.21527
 Alpha  occ. eigenvalues --   -0.20476
 Alpha virt. eigenvalues --   -0.07321  -0.03927  -0.00653   0.02509   0.03483
 Alpha virt. eigenvalues --    0.03735   0.04289   0.05060   0.05311   0.06046
 Alpha virt. eigenvalues --    0.06732   0.08873   0.09022   0.09364   0.09413

 Mulliken charges:
               1
     1  Mg   0.821270
     2  C    0.016596
     3  C   -0.208849
     4  C   -0.203389
     5  C   -0.145263
     6  N   -0.637388
     7  C    0.288393
     8  C   -0.180618
     9  C   -0.173715
    10  C    0.401853
    11  C   -0.295522
    12  C   -0.134520
    13  C   -0.289508
    14  C    0.621099
    15  O   -0.481592
    16  O   -0.473548
    17  N   -0.744309
    18  C    0.302847
    19  C    0.015436
    20  C   -0.031887
    21  C    0.371539
    22  C   -0.366347
    23  C   -0.055427
    24  C   -0.243730
    25  N   -0.713244
    26  C    0.426564
    27  C    0.015306
    28  C    0.070480
    29  C    0.268693
    30  C   -0.400787
    31  C   -0.270317
    32  C   -0.282647
    33  N   -0.731825
    34  C    0.257271
    35  C   -0.005621
    36  C    0.086451
    37  C    0.357899
    38  C   -0.381581
    39  C    0.281150
    40  O   -0.498304
    41  C   -0.296488
    42  C    0.630938
    43  O   -0.499167
    44  O   -0.419373
    45  C   -0.082651
    46  C    0.004549
    47  C   -0.120202
    48  C    0.083737
    49  C   -0.337566
    50  C   -0.222923
    51  C   -0.156615
    52  C   -0.149366
    53  C   -0.065371
    54  C   -0.282631
    55  C   -0.165596
    56  C   -0.183504
    57  C   -0.167155
    58  C   -0.034657
    59  C   -0.287899
    60  C   -0.150599
    61  C   -0.151793
    62  C   -0.177164
    63  C   -0.053069
    64  C   -0.304515
    65  C   -0.278463
    66  H    0.059371
    67  H    0.068083
    68  H    0.093511
    69  H    0.118175
    70  H    0.105175
    71  H    0.106372
    72  H    0.112202
    73  H    0.128027
    74  H    0.122884
    75  H    0.095493
    76  H    0.130175
    77  H    0.132818
    78  H    0.123482
    79  H    0.149392
    80  H    0.116906
    81  H    0.084513
    82  H    0.109090
    83  H    0.085166
    84  H    0.118466
    85  H    0.110324
    86  H    0.095011
    87  H    0.083991
    88  H    0.095182
    89  H    0.122739
    90  H    0.103400
    91  H    0.093286
    92  H    0.133876
    93  H    0.141194
    94  H    0.116625
    95  H    0.162593
    96  H    0.110448
    97  H    0.134248
    98  H    0.126551
    99  H    0.144888
   100  H    0.107527
   101  H    0.095405
   102  H    0.071694
   103  H    0.129717
   104  H    0.134579
   105  H    0.094380
   106  H    0.110151
   107  H    0.078982
   108  H    0.085268
   109  H    0.090416
   110  H    0.103462
   111  H    0.069458
   112  H    0.068131
   113  H    0.097099
   114  H    0.082594
   115  H    0.074555
   116  H    0.086080
   117  H    0.108137
   118  H    0.105263
   119  H    0.063894
   120  H    0.064614
   121  H    0.090702
   122  H    0.062915
   123  H    0.089661
   124  H    0.117377
   125  H    0.073194
   126  H    0.051227
   127  H    0.057393
   128  H    0.082685
   129  H    0.092370
   130  H    0.087314
   131  H    0.099242
   132  H    0.106868
   133  H    0.099974
   134  H    0.093919
   135  H    0.095533
   136  H    0.044020
   137  H    0.115174
 Sum of Mulliken charges =  -0.00000

 Dipole moment (field-independent basis, Debye):
    X=              2.6231    Y=              5.0811    Z=             -0.8134  Tot=              5.7758
 Quadrupole moment (field-independent basis, Debye-Ang):
   XX=           -349.7977   YY=           -395.4685   ZZ=           -400.5441
   XY=            -21.3547   XZ=             16.1450   YZ=              0.6868

 Normal termination of Gaussian 16 at Tue Sep 17 07:52:40 2019.
