 Gaussian 09, Revision D.01,
 Gaussian 09:  ES64L-G09RevD.01 24-Apr-2013

 -------------------------------------
 # td=(NStates=1) CAM-B3LYP/6-31G(d,p)
 -------------------------------------

 --
 TD
 --
 Symbolic Z-matrix:
 Charge =  0 Multiplicity = 1

                         Standard orientation:
 ---------------------------------------------------------------------
 Center     Atomic      Atomic             Coordinates (Angstroms)
 Number     Number       Type             X           Y           Z
 ---------------------------------------------------------------------
      1         12           0       -7.145324    0.641887    0.111525
      2          6           0       -4.825321   -1.985437    0.674600
      3          6           0       -4.839433    2.922389    1.197676
      4          6           0       -9.320749    3.033122   -0.524086
      5          6           0       -9.559672   -1.832023   -0.872312
      6          7           0       -5.125773    0.467276    0.852370
      7          6           0       -4.380702   -0.738614    0.917902
      8          6           0       -2.927754   -0.357304    1.307180
      9          6           0       -3.062574    1.097203    1.683814
     10          6           0       -4.470890    1.513943    1.168281
     11          6           0       -2.953370    1.256192    3.202297
     12          6           0       -2.022291   -0.495877    0.079420
     13          6           0       -0.530519   -0.306391    0.422672
     14          6           0        0.522161   -0.752071   -0.606856
     15          8           0        0.211213   -1.129390   -1.674133
     16          8           0        1.803570   -0.529353   -0.229365
     17          7           0       -7.102053    2.701943    0.243763
     18          6           0       -6.082164    3.536608    0.791113
     19          6           0       -6.377103    4.853916    0.833466
     20          6           0       -7.661946    4.906704    0.313855
     21          6           0       -8.117422    3.556483    0.005937
     22          6           0       -5.477050    5.919802    1.110345
     23          6           0       -8.553780    6.122364    0.132446
     24          6           0       -8.509474    7.325192    0.670088
     25          7           0       -9.054880    0.690029   -0.549530
     26          6           0       -9.846062    1.759041   -0.682671
     27          6           0      -11.218057    1.465010   -1.106699
     28          6           0      -11.161151    0.084294   -1.219007
     29          6           0       -9.850134   -0.374399   -0.857599
     30          6           0      -12.262202    2.469684   -1.412395
     31          6           0      -12.363047   -0.738970   -1.718279
     32          6           0      -12.304958   -1.114992   -3.131779
     33          7           0       -7.224256   -1.354245   -0.153640
     34          6           0       -8.259275   -2.223061   -0.547857
     35          6           0       -7.820425   -3.603821   -0.476546
     36          6           0       -6.444418   -3.550111   -0.001320
     37          6           0       -6.224997   -2.200012    0.157427
     38          6           0       -8.602733   -4.957303   -0.807519
     39          6           0       -5.296494   -4.311951    0.261225
     40          8           0       -5.142599   -5.500859    0.112202
     41          6           0       -4.171783   -3.287905    0.595543
     42          6           0       -3.541754   -3.659986    1.908964
     43          8           0       -3.715577   -3.146115    3.011830
     44          8           0       -2.805871   -4.814586    1.803752
     45          6           0       -2.352967   -5.373351    2.938104
     46          6           0        2.792864   -0.760247   -1.211052
     47          6           0        4.175237   -0.695765   -0.617762
     48          6           0        5.153063    0.093335   -1.062624
     49          6           0        4.981537    0.950937   -2.347943
     50          6           0        6.336673    0.305383   -0.302708
     51          6           0        7.594442   -0.051415   -1.144379
     52          6           0        8.924860   -0.063784   -0.317099
     53          6           0       10.235848   -0.530693   -0.938517
     54          6           0       10.215641   -2.004762   -1.421262
     55          6           0       11.501664   -0.289490   -0.036944
     56          6           0       12.787511   -0.531515   -0.669014
     57          6           0       13.998608   -0.213993    0.152450
     58          6           0       15.416992   -0.168599   -0.496610
     59          6           0       15.658486   -1.639396   -0.880630
     60          6           0       16.530442    0.336142    0.444208
     61          6           0       17.987556    0.386366   -0.209675
     62          6           0       18.760393    1.220865    0.846878
     63          6           0       20.249364    1.568073    0.317255
     64          6           0       20.330411    2.310602   -0.971015
     65          6           0       21.100838    2.144689    1.420919
     66          1           0       -4.212701    3.614713    1.768498
     67          1           0       -9.954868    3.855472   -0.916456
     68          1           0      -10.476001   -2.465213   -1.235641
     69          1           0       -2.661151   -1.063533    2.091538
     70          1           0       -2.198014    1.630425    1.247074
     71          1           0       -2.006362    1.007896    3.653714
     72          1           0       -3.021425    2.294229    3.588442
     73          1           0       -3.582871    0.646011    3.887535
     74          1           0       -2.118948   -1.480030   -0.545015
     75          1           0       -2.203794    0.273166   -0.783839
     76          1           0       -0.147633    0.581846    0.814032
     77          1           0       -0.327025   -1.023460    1.278009
     78          1           0       -5.763851    6.802893    0.614463
     79          1           0       -5.419867    6.252472    2.133950
     80          1           0       -4.490303    5.890551    0.662729
     81          1           0       -9.225727    5.943313   -0.597108
     82          1           0       -9.405062    8.119554    0.534004
     83          1           0       -7.869518    7.651787    1.460260
     84          1           0      -11.911172    3.003292   -2.252140
     85          1           0      -13.079477    2.116237   -1.726725
     86          1           0      -12.478397    3.337657   -0.636666
     87          1           0      -12.578646   -1.686757   -0.995044
     88          1           0      -13.245098   -0.183638   -1.470421
     89          1           0      -13.173134   -1.839779   -3.351308
     90          1           0      -12.460683   -0.230932   -3.892395
     91          1           0      -11.416755   -1.797986   -3.527502
     92          1           0       -9.173090   -4.996640   -1.780379
     93          1           0       -7.977110   -5.798417   -0.776964
     94          1           0       -9.474780   -5.037036   -0.091582
     95          1           0       -3.425794   -3.494725   -0.160106
     96          1           0       -1.640192   -4.618241    3.547691
     97          1           0       -3.230837   -5.716395    3.651521
     98          1           0       -1.647846   -6.173842    2.754290
     99          1           0        2.303361   -1.613665   -1.689011
    100          1           0        2.658200   -0.209258   -2.139605
    101          1           0        4.275658   -1.184387    0.238520
    102          1           0        3.924728    1.248702   -2.699266
    103          1           0        5.546705    1.820694   -2.104379
    104          1           0        5.476716    0.545438   -3.132874
    105          1           0        6.529362    1.219703    0.022005
    106          1           0        6.118368   -0.371894    0.678395
    107          1           0        7.444937   -1.093081   -1.284589
    108          1           0        7.799712    0.354876   -1.994037
    109          1           0        8.856905    0.929283    0.174245
    110          1           0        8.652240   -0.632645    0.691641
    111          1           0       10.336500    0.231213   -1.727531
    112          1           0        9.504731   -2.195156   -2.364549
    113          1           0       11.222729   -2.087466   -1.940738
    114          1           0        9.892989   -2.469401   -0.556156
    115          1           0       11.444846    0.734104    0.073872
    116          1           0       11.476971   -0.828131    0.940220
    117          1           0       12.856863   -1.561630   -1.139478
    118          1           0       12.932891   -0.062748   -1.519516
    119          1           0       13.899444    0.891018    0.417256
    120          1           0       14.203562   -0.669007    1.151568
    121          1           0       15.381982    0.606295   -1.365578
    122          1           0       15.633902   -2.225168   -0.042384
    123          1           0       14.881261   -2.267670   -1.445991
    124          1           0       16.713264   -1.909123   -1.415398
    125          1           0       16.237909    1.384864    0.710572
    126          1           0       16.330046   -0.420942    1.281655
    127          1           0       18.290371   -0.651302   -0.292600
    128          1           0       17.771391    0.863297   -1.101572
    129          1           0       18.157152    2.173131    1.049438
    130          1           0       18.866745    0.493666    1.762659
    131          1           0       20.698796    0.565461    0.170964
    132          1           0       19.781816    3.296215   -0.767713
    133          1           0       21.387639    2.696004   -1.279997
    134          1           0       19.679449    1.785208   -1.779546
    135          1           0       21.054581    1.851424    2.455258
    136          1           0       22.163664    1.999098    1.057018
    137          1           0       20.924964    3.122229    1.903996
 ---------------------------------------------------------------------

 SCF Done:  E(RCAM-B3LYP) =  -2932.68827715     A.U. after   18 cycles

 Excitation energies and oscillator strengths:

 Excited State   1:      Singlet-A      1.8645 eV  664.96 nm  f=0.2764  <S**2>=0.000
     240 -> 243        0.19050
     241 -> 242        0.67147
 This state for optimization and/or second-order correction.
 Total Energy, E(TD-HF/TD-KS) =  -2932.61975697
 Copying the excited state density for this state as the 1-particle RhoCI density.

 The electronic state is 1-A.
 Alpha  occ. eigenvalues --  -46.84585 -19.25935 -19.25504 -19.21134 -19.20846
 Alpha  occ. eigenvalues --  -19.19960 -14.41854 -14.40231 -14.39666 -14.38592
 Alpha  occ. eigenvalues --  -10.39557 -10.38642 -10.34559 -10.31624 -10.31382
 Alpha  occ. eigenvalues --  -10.30583 -10.30320 -10.29948 -10.29724 -10.29586
 Alpha  occ. eigenvalues --  -10.29479 -10.29470 -10.29346 -10.29218 -10.29063
 Alpha  occ. eigenvalues --  -10.28624 -10.28123 -10.28050 -10.27605 -10.27448
 Alpha  occ. eigenvalues --  -10.27432 -10.27309 -10.27130 -10.27112 -10.27056
 Alpha  occ. eigenvalues --  -10.26970 -10.26843 -10.26805 -10.26739 -10.26701
 Alpha  occ. eigenvalues --  -10.26569 -10.26553 -10.26533 -10.26354 -10.26225
 Alpha  occ. eigenvalues --  -10.26115 -10.26107 -10.26027 -10.25970 -10.25845
 Alpha  occ. eigenvalues --  -10.25725 -10.25496 -10.25358 -10.25304 -10.25158
 Alpha  occ. eigenvalues --  -10.25114 -10.25104 -10.25030 -10.24905 -10.24698
 Alpha  occ. eigenvalues --  -10.24678 -10.24401 -10.24107 -10.24093 -10.23789
 Alpha  occ. eigenvalues --   -3.13603  -1.88311  -1.87836  -1.87789  -1.19166
 Alpha  occ. eigenvalues --   -1.18874  -1.11396  -1.10654  -1.09128  -1.05045
 Alpha  occ. eigenvalues --   -1.04443  -1.03576  -1.02918  -0.93888  -0.92339
 Alpha  occ. eigenvalues --   -0.91166  -0.90122  -0.90043  -0.89384  -0.89045
 Alpha  occ. eigenvalues --   -0.88041  -0.87978  -0.86903  -0.86473  -0.86196
 Alpha  occ. eigenvalues --   -0.85210  -0.84575  -0.84480  -0.83430  -0.83283
 Alpha  occ. eigenvalues --   -0.81627  -0.80915  -0.80663  -0.80142  -0.78611
 Alpha  occ. eigenvalues --   -0.78459  -0.78056  -0.77075  -0.76287  -0.75764
 Alpha  occ. eigenvalues --   -0.75571  -0.74933  -0.74154  -0.73600  -0.73015
 Alpha  occ. eigenvalues --   -0.71167  -0.70666  -0.69734  -0.69146  -0.68753
 Alpha  occ. eigenvalues --   -0.67827  -0.66891  -0.65694  -0.65468  -0.64654
 Alpha  occ. eigenvalues --   -0.63972  -0.63637  -0.63373  -0.62937  -0.62293
 Alpha  occ. eigenvalues --   -0.61509  -0.61384  -0.60774  -0.60264  -0.59539
 Alpha  occ. eigenvalues --   -0.59367  -0.58724  -0.57844  -0.57729  -0.56876
 Alpha  occ. eigenvalues --   -0.56171  -0.55931  -0.55676  -0.55234  -0.55136
 Alpha  occ. eigenvalues --   -0.54993  -0.54223  -0.54001  -0.53881  -0.53502
 Alpha  occ. eigenvalues --   -0.53147  -0.52992  -0.52345  -0.52190  -0.51956
 Alpha  occ. eigenvalues --   -0.51565  -0.51514  -0.51448  -0.51319  -0.50870
 Alpha  occ. eigenvalues --   -0.50607  -0.50285  -0.50165  -0.49968  -0.49785
 Alpha  occ. eigenvalues --   -0.49344  -0.48919  -0.48812  -0.48702  -0.48408
 Alpha  occ. eigenvalues --   -0.48135  -0.48041  -0.47933  -0.47802  -0.47419
 Alpha  occ. eigenvalues --   -0.47242  -0.46834  -0.46700  -0.46531  -0.46165
 Alpha  occ. eigenvalues --   -0.45908  -0.45863  -0.45534  -0.45251  -0.45001
 Alpha  occ. eigenvalues --   -0.44943  -0.44859  -0.44695  -0.44295  -0.44177
 Alpha  occ. eigenvalues --   -0.44101  -0.44024  -0.43883  -0.43655  -0.43266
 Alpha  occ. eigenvalues --   -0.43124  -0.42959  -0.42917  -0.42332  -0.42169
 Alpha  occ. eigenvalues --   -0.42021  -0.41977  -0.41745  -0.41386  -0.41350
 Alpha  occ. eigenvalues --   -0.40915  -0.40910  -0.40676  -0.40406  -0.39895
 Alpha  occ. eigenvalues --   -0.39781  -0.39436  -0.39387  -0.39187  -0.39132
 Alpha  occ. eigenvalues --   -0.39097  -0.38455  -0.38344  -0.38080  -0.38041
 Alpha  occ. eigenvalues --   -0.37816  -0.37305  -0.37002  -0.36676  -0.36307
 Alpha  occ. eigenvalues --   -0.36030  -0.35940  -0.35724  -0.35447  -0.35141
 Alpha  occ. eigenvalues --   -0.34804  -0.34691  -0.34297  -0.34001  -0.33825
 Alpha  occ. eigenvalues --   -0.33406  -0.33224  -0.32566  -0.30979  -0.30309
 Alpha  occ. eigenvalues --   -0.29557  -0.29345  -0.28708  -0.27950  -0.23854
 Alpha  occ. eigenvalues --   -0.20628
 Alpha virt. eigenvalues --   -0.07151  -0.03130   0.01505   0.04301   0.05659
 Alpha virt. eigenvalues --    0.06176   0.06260   0.06550   0.07383   0.08036
 Alpha virt. eigenvalues --    0.09123   0.10731   0.11499   0.11977   0.12074

 Mulliken charges:
               1
     1  Mg   0.824294
     2  C    0.114657
     3  C   -0.219324
     4  C   -0.224104
     5  C   -0.150633
     6  N   -0.632418
     7  C    0.263423
     8  C   -0.147389
     9  C   -0.141168
    10  C    0.378828
    11  C   -0.333087
    12  C   -0.187247
    13  C   -0.263463
    14  C    0.590565
    15  O   -0.449402
    16  O   -0.481203
    17  N   -0.700717
    18  C    0.270141
    19  C    0.096769
    20  C   -0.042355
    21  C    0.336013
    22  C   -0.407242
    23  C   -0.031613
    24  C   -0.256020
    25  N   -0.692726
    26  C    0.301631
    27  C    0.066177
    28  C   -0.029462
    29  C    0.288447
    30  C   -0.355780
    31  C   -0.237343
    32  C   -0.292900
    33  N   -0.722795
    34  C    0.261652
    35  C   -0.003311
    36  C    0.047376
    37  C    0.278635
    38  C   -0.367644
    39  C    0.339717
    40  O   -0.458986
    41  C   -0.343218
    42  C    0.619131
    43  O   -0.473846
    44  O   -0.421260
    45  C   -0.070303
    46  C    0.008667
    47  C   -0.127236
    48  C    0.145038
    49  C   -0.367620
    50  C   -0.242523
    51  C   -0.183254
    52  C   -0.195360
    53  C   -0.082552
    54  C   -0.292654
    55  C   -0.158220
    56  C   -0.165385
    57  C   -0.179578
    58  C   -0.080695
    59  C   -0.304206
    60  C   -0.174589
    61  C   -0.177082
    62  C   -0.173829
    63  C   -0.038362
    64  C   -0.301101
    65  C   -0.315628
    66  H    0.083269
    67  H    0.071345
    68  H    0.125413
    69  H    0.135209
    70  H    0.108422
    71  H    0.110085
    72  H    0.099853
    73  H    0.124868
    74  H    0.116096
    75  H    0.108211
    76  H    0.138618
    77  H    0.121321
    78  H    0.130162
    79  H    0.126261
    80  H    0.128245
    81  H    0.090475
    82  H    0.091844
    83  H    0.106598
    84  H    0.131677
    85  H    0.114899
    86  H    0.110981
    87  H    0.083290
    88  H    0.117408
    89  H    0.096050
    90  H    0.102207
    91  H    0.101524
    92  H    0.114346
    93  H    0.155463
    94  H    0.120675
    95  H    0.179069
    96  H    0.084728
    97  H    0.108764
    98  H    0.121569
    99  H    0.118078
   100  H    0.103830
   101  H    0.079735
   102  H    0.114595
   103  H    0.109060
   104  H    0.136092
   105  H    0.119676
   106  H    0.086138
   107  H    0.114178
   108  H    0.105098
   109  H    0.080575
   110  H    0.058425
   111  H    0.080005
   112  H    0.081304
   113  H    0.108783
   114  H    0.121410
   115  H    0.102941
   116  H    0.089767
   117  H    0.080257
   118  H    0.104372
   119  H    0.071567
   120  H    0.082468
   121  H    0.062597
   122  H    0.112070
   123  H    0.092677
   124  H    0.069690
   125  H    0.086644
   126  H    0.079198
   127  H    0.110651
   128  H    0.109712
   129  H    0.087588
   130  H    0.092978
   131  H    0.087516
   132  H    0.089901
   133  H    0.100845
   134  H    0.098335
   135  H    0.098234
   136  H    0.091350
   137  H    0.088393
 Sum of Mulliken charges =   0.00000

 Dipole moment (field-independent basis, Debye):
    X=             -0.0032    Y=              5.2767    Z=             -0.3882  Tot=              5.2909
 Quadrupole moment (field-independent basis, Debye-Ang):
   XX=           -329.6360   YY=           -392.6975   ZZ=           -397.1625
   XY=            -18.2046   XZ=             17.0424   YZ=              0.6982

 Normal termination of Gaussian 09 at Sun Jul  7 03:27:08 2019.
