 Gaussian 16, Revision A.03,
 Gaussian 16:  ES64L-G16RevA.03 25-Dec-2016

 ----------------------------------------------------------------------
 # td=(NStates=1) iop(3/107=0140000000,3/108=0140000000) CAM-B3LYP/6-31
 G(d,p)
 ----------------------------------------------------------------------

 --
 TD
 --
 Symbolic Z-matrix:
 Charge =  0 Multiplicity = 1

                         Standard orientation:
 ---------------------------------------------------------------------
 Center     Atomic      Atomic             Coordinates (Angstroms)
 Number     Number       Type             X           Y           Z
 ---------------------------------------------------------------------
      1         12           0       -7.092590    0.619671   -0.064465
      2          6           0       -4.814525   -2.027152    0.458875
      3          6           0       -4.790387    2.887528    1.140361
      4          6           0       -9.355701    3.041322   -0.533125
      5          6           0       -9.479270   -1.741065   -0.758058
      6          7           0       -5.101307    0.463035    0.684221
      7          6           0       -4.316667   -0.726230    0.737495
      8          6           0       -2.942875   -0.399478    1.169887
      9          6           0       -3.090587    0.995435    1.688396
     10          6           0       -4.443188    1.561971    1.042549
     11          6           0       -3.093065    1.109094    3.267917
     12          6           0       -1.940044   -0.502376    0.047544
     13          6           0       -0.513002   -0.404259    0.556674
     14          6           0        0.478105   -0.676641   -0.573485
     15          8           0        0.135113   -0.900108   -1.770995
     16          8           0        1.703988   -0.396474   -0.186729
     17          7           0       -7.093053    2.637345    0.183039
     18          6           0       -6.020109    3.369931    0.656503
     19          6           0       -6.373001    4.797358    0.752767
     20          6           0       -7.680927    4.806605    0.339435
     21          6           0       -8.128811    3.505337    0.007291
     22          6           0       -5.558232    5.867483    1.200526
     23          6           0       -8.458584    6.011248    0.212376
     24          6           0       -8.416118    7.257997    0.750557
     25          7           0       -9.020553    0.682119   -0.645455
     26          6           0       -9.797301    1.755878   -0.682157
     27          6           0      -11.203378    1.449316   -1.054566
     28          6           0      -11.235742    0.079286   -1.161036
     29          6           0       -9.894459   -0.446356   -0.820075
     30          6           0      -12.335958    2.405455   -1.265762
     31          6           0      -12.413673   -0.774286   -1.508518
     32          6           0      -12.487528   -1.058333   -3.046478
     33          7           0       -7.118586   -1.433203   -0.188186
     34          6           0       -8.261721   -2.234141   -0.449816
     35          6           0       -7.781671   -3.562630   -0.593518
     36          6           0       -6.472517   -3.619553   -0.117172
     37          6           0       -6.177317   -2.264197    0.097765
     38          6           0       -8.617018   -4.826225   -0.740407
     39          6           0       -5.255876   -4.417248    0.177759
     40          8           0       -5.154239   -5.621430    0.223790
     41          6           0       -4.107498   -3.379113    0.538581
     42          6           0       -3.426136   -3.710014    1.901076
     43          8           0       -3.710929   -3.071774    2.880501
     44          8           0       -2.699294   -4.711497    1.755473
     45          6           0       -2.097852   -5.206635    2.953460
     46          6           0        2.764134   -0.432611   -1.195084
     47          6           0        4.082942   -0.475709   -0.534380
     48          6           0        5.132504    0.356755   -0.956826
     49          6           0        5.103681    1.239262   -2.216487
     50          6           0        6.437610    0.426373   -0.265804
     51          6           0        7.590170   -0.167688   -1.069814
     52          6           0        8.982593   -0.066122   -0.279996
     53          6           0       10.187787   -0.526974   -0.876028
     54          6           0       10.175194   -2.033090   -1.477681
     55          6           0       11.435690   -0.314664   -0.087330
     56          6           0       12.795532   -0.472347   -0.731185
     57          6           0       13.940443   -0.089325    0.162257
     58          6           0       15.370977   -0.261589   -0.536313
     59          6           0       15.656708   -1.683240   -0.873136
     60          6           0       16.386999    0.249124    0.475092
     61          6           0       17.866260    0.563025   -0.127702
     62          6           0       18.718862    1.325677    0.771635
     63          6           0       20.170332    1.347140    0.322333
     64          6           0       20.498832    2.116141   -0.945247
     65          6           0       20.986053    1.953999    1.474282
     66          1           0       -4.243175    3.689669    1.757837
     67          1           0      -10.348002    3.702060   -0.566246
     68          1           0      -10.429268   -2.430974   -0.898178
     69          1           0       -2.698076   -1.087167    2.117269
     70          1           0       -2.149667    1.559638    1.305067
     71          1           0       -2.017161    0.633285    3.597129
     72          1           0       -2.997838    2.061086    3.696509
     73          1           0       -3.954089    0.584246    3.555931
     74          1           0       -1.834587   -1.494677   -0.420897
     75          1           0       -2.090168    0.199603   -0.837403
     76          1           0       -0.334634    0.599810    0.905825
     77          1           0       -0.267265   -1.081607    1.523345
     78          1           0       -5.801799    7.021976    0.865171
     79          1           0       -5.815196    5.968341    2.277630
     80          1           0       -4.417905    5.619562    1.204399
     81          1           0       -9.387622    5.860662   -0.254077
     82          1           0       -9.234390    7.869839    0.695585
     83          1           0       -7.477175    7.762121    1.237607
     84          1           0      -12.229097    3.235643   -2.122798
     85          1           0      -13.112562    1.777714   -1.723771
     86          1           0      -12.783420    2.885429   -0.346936
     87          1           0      -12.530232   -1.670337   -0.870561
     88          1           0      -13.603594   -0.370307   -1.337010
     89          1           0      -13.403436   -1.800557   -3.353498
     90          1           0      -12.417484    0.000180   -3.469669
     91          1           0      -11.724203   -1.751617   -3.478485
     92          1           0       -8.802237   -4.918750   -1.795868
     93          1           0       -8.024681   -5.699748   -0.551232
     94          1           0       -9.523524   -4.668574   -0.090782
     95          1           0       -3.364812   -3.317957   -0.391948
     96          1           0       -1.375116   -4.526849    3.436421
     97          1           0       -2.667243   -5.611789    3.725990
     98          1           0       -1.540742   -6.173097    2.689049
     99          1           0        2.534361   -1.389733   -1.695276
    100          1           0        2.457386    0.326045   -2.137717
    101          1           0        4.147409   -1.055094    0.248972
    102          1           0        4.084050    1.441622   -2.506098
    103          1           0        5.751178    2.260738   -2.250251
    104          1           0        5.692490    0.635789   -3.022068
    105          1           0        7.008910    1.301997   -0.002903
    106          1           0        6.211025    0.088219    0.688525
    107          1           0        7.337052   -1.289829   -1.613321
    108          1           0        7.856929    0.673893   -1.771120
    109          1           0        8.741923    0.974582    0.159381
    110          1           0        8.879948   -0.669269    0.678515
    111          1           0       10.331443    0.299658   -1.783866
    112          1           0        9.338280   -2.211579   -2.183969
    113          1           0       11.158761   -2.202952   -1.961544
    114          1           0       10.008241   -2.758437   -0.730214
    115          1           0       11.257796    0.786553    0.305584
    116          1           0       11.416237   -1.116414    0.806212
    117          1           0       12.920877   -1.555008   -0.899426
    118          1           0       12.707662    0.077948   -1.687533
    119          1           0       13.863106    0.944553    0.580804
    120          1           0       13.961319   -0.870403    0.941720
    121          1           0       15.637665    0.337306   -1.485775
    122          1           0       15.592630   -2.513619   -0.096855
    123          1           0       15.126717   -1.931649   -1.678587
    124          1           0       16.655259   -1.698596   -1.354118
    125          1           0       15.785994    1.153687    0.903046
    126          1           0       16.582550   -0.561554    1.194356
    127          1           0       18.293938   -0.393802   -0.442626
    128          1           0       17.625322    1.083604   -1.043461
    129          1           0       18.347439    2.309826    0.864163
    130          1           0       18.759526    0.931956    1.622654
    131          1           0       20.556807    0.324934    0.304410
    132          1           0       19.917233    3.122596   -0.843326
    133          1           0       21.418957    2.333122   -1.199697
    134          1           0       19.862953    1.612081   -1.720155
    135          1           0       20.784529    1.573174    2.602515
    136          1           0       22.110451    1.926183    1.370254
    137          1           0       20.440498    3.123470    1.522067
 ---------------------------------------------------------------------

 SCF Done:  E(RCAM-B3LYP) =  -2933.49453389     A.U. after   16 cycles

 Excitation energies and oscillator strengths:

 Excited State   1:      Singlet-A      2.0795 eV  596.21 nm  f=0.2634  <S**2>=0.000
     240 -> 243       -0.23222
     241 -> 242        0.66417
 This state for optimization and/or second-order correction.
 Total Energy, E(TD-HF/TD-DFT) =  -2933.41811253
 Copying the excited state density for this state as the 1-particle RhoCI density.

 The electronic state is 1-A.
 Alpha  occ. eigenvalues --  -46.79300 -19.24941 -19.22795 -19.16209 -19.16203
 Alpha  occ. eigenvalues --  -19.15854 -14.37321 -14.35098 -14.35077 -14.34331
 Alpha  occ. eigenvalues --  -10.34608 -10.34594 -10.30452 -10.28921 -10.27996
 Alpha  occ. eigenvalues --  -10.26175 -10.25806 -10.25324 -10.25140 -10.24782
 Alpha  occ. eigenvalues --  -10.24598 -10.24377 -10.24204 -10.24050 -10.23974
 Alpha  occ. eigenvalues --  -10.23798 -10.23560 -10.23556 -10.23286 -10.23211
 Alpha  occ. eigenvalues --  -10.23002 -10.22999 -10.22937 -10.22882 -10.22834
 Alpha  occ. eigenvalues --  -10.22791 -10.22689 -10.22589 -10.22572 -10.22397
 Alpha  occ. eigenvalues --  -10.22352 -10.22259 -10.22239 -10.22228 -10.22187
 Alpha  occ. eigenvalues --  -10.22172 -10.22144 -10.21892 -10.21794 -10.21675
 Alpha  occ. eigenvalues --  -10.21605 -10.21478 -10.21467 -10.21438 -10.21287
 Alpha  occ. eigenvalues --  -10.21153 -10.21045 -10.20932 -10.20849 -10.20592
 Alpha  occ. eigenvalues --  -10.20298 -10.19892 -10.19820 -10.19336 -10.18101
 Alpha  occ. eigenvalues --   -3.07952  -1.82900  -1.82416  -1.82361  -1.18134
 Alpha  occ. eigenvalues --   -1.13390  -1.06099  -1.05853  -1.02143  -0.99401
 Alpha  occ. eigenvalues --   -0.98638  -0.97619  -0.96985  -0.86929  -0.86456
 Alpha  occ. eigenvalues --   -0.86030  -0.85448  -0.84921  -0.84540  -0.83994
 Alpha  occ. eigenvalues --   -0.83765  -0.83022  -0.82356  -0.81799  -0.81509
 Alpha  occ. eigenvalues --   -0.79849  -0.79714  -0.78914  -0.78561  -0.77683
 Alpha  occ. eigenvalues --   -0.77223  -0.77051  -0.75882  -0.75265  -0.73341
 Alpha  occ. eigenvalues --   -0.72820  -0.72357  -0.71761  -0.71623  -0.71263
 Alpha  occ. eigenvalues --   -0.70802  -0.70417  -0.69737  -0.69019  -0.67833
 Alpha  occ. eigenvalues --   -0.66190  -0.65940  -0.64511  -0.64385  -0.63710
 Alpha  occ. eigenvalues --   -0.62910  -0.62551  -0.61887  -0.60502  -0.59768
 Alpha  occ. eigenvalues --   -0.59278  -0.59025  -0.58342  -0.58011  -0.57950
 Alpha  occ. eigenvalues --   -0.57676  -0.56733  -0.56587  -0.55579  -0.55296
 Alpha  occ. eigenvalues --   -0.54642  -0.54273  -0.53733  -0.53251  -0.52976
 Alpha  occ. eigenvalues --   -0.52820  -0.52030  -0.51907  -0.51602  -0.51447
 Alpha  occ. eigenvalues --   -0.51247  -0.50839  -0.50005  -0.49936  -0.49854
 Alpha  occ. eigenvalues --   -0.49156  -0.48827  -0.48472  -0.48073  -0.47882
 Alpha  occ. eigenvalues --   -0.47563  -0.47525  -0.47188  -0.46851  -0.46761
 Alpha  occ. eigenvalues --   -0.46616  -0.46588  -0.46448  -0.46207  -0.45911
 Alpha  occ. eigenvalues --   -0.45471  -0.45319  -0.44964  -0.44850  -0.44716
 Alpha  occ. eigenvalues --   -0.44326  -0.44213  -0.43973  -0.43585  -0.43493
 Alpha  occ. eigenvalues --   -0.43125  -0.42924  -0.42646  -0.42402  -0.42196
 Alpha  occ. eigenvalues --   -0.42143  -0.41950  -0.41872  -0.41730  -0.41388
 Alpha  occ. eigenvalues --   -0.41365  -0.41172  -0.41136  -0.40951  -0.40795
 Alpha  occ. eigenvalues --   -0.40711  -0.40410  -0.40322  -0.39967  -0.39741
 Alpha  occ. eigenvalues --   -0.39663  -0.39358  -0.39114  -0.39048  -0.38798
 Alpha  occ. eigenvalues --   -0.38658  -0.38576  -0.38403  -0.38394  -0.38206
 Alpha  occ. eigenvalues --   -0.37812  -0.37457  -0.37331  -0.37241  -0.36712
 Alpha  occ. eigenvalues --   -0.36604  -0.36291  -0.36000  -0.35975  -0.35872
 Alpha  occ. eigenvalues --   -0.35327  -0.35251  -0.34640  -0.34620  -0.34558
 Alpha  occ. eigenvalues --   -0.34215  -0.33978  -0.33887  -0.33614  -0.33548
 Alpha  occ. eigenvalues --   -0.33278  -0.33165  -0.32650  -0.32585  -0.32494
 Alpha  occ. eigenvalues --   -0.32321  -0.32107  -0.31291  -0.30729  -0.30366
 Alpha  occ. eigenvalues --   -0.30059  -0.29631  -0.29298  -0.28087  -0.26740
 Alpha  occ. eigenvalues --   -0.26609  -0.26524  -0.25864  -0.24347  -0.21380
 Alpha  occ. eigenvalues --   -0.19905
 Alpha virt. eigenvalues --   -0.06875  -0.03324   0.00432   0.01929   0.02744
 Alpha virt. eigenvalues --    0.03165   0.04391   0.05012   0.05811   0.05843
 Alpha virt. eigenvalues --    0.06564   0.08550   0.08989   0.09222   0.09647

 Mulliken charges:
               1
     1  Mg   0.810472
     2  C    0.064007
     3  C   -0.181299
     4  C   -0.184923
     5  C   -0.187205
     6  N   -0.637498
     7  C    0.295476
     8  C   -0.157288
     9  C   -0.154752
    10  C    0.349442
    11  C   -0.297523
    12  C   -0.172013
    13  C   -0.266690
    14  C    0.600802
    15  O   -0.504677
    16  O   -0.448370
    17  N   -0.716712
    18  C    0.291535
    19  C    0.098993
    20  C    0.003301
    21  C    0.325715
    22  C   -0.422192
    23  C   -0.076691
    24  C   -0.248660
    25  N   -0.696178
    26  C    0.324716
    27  C    0.043583
    28  C    0.061609
    29  C    0.270116
    30  C   -0.393058
    31  C   -0.264244
    32  C   -0.291661
    33  N   -0.709521
    34  C    0.280471
    35  C   -0.049804
    36  C    0.042622
    37  C    0.326539
    38  C   -0.367238
    39  C    0.362554
    40  O   -0.457350
    41  C   -0.329762
    42  C    0.619930
    43  O   -0.477745
    44  O   -0.360083
    45  C   -0.122956
    46  C    0.001892
    47  C   -0.108294
    48  C    0.117807
    49  C   -0.356230
    50  C   -0.208733
    51  C   -0.183155
    52  C   -0.161796
    53  C   -0.030535
    54  C   -0.329310
    55  C   -0.147172
    56  C   -0.171128
    57  C   -0.169297
    58  C   -0.060031
    59  C   -0.315421
    60  C   -0.163956
    61  C   -0.205701
    62  C   -0.115385
    63  C   -0.072107
    64  C   -0.290006
    65  C   -0.283127
    66  H    0.091038
    67  H    0.079105
    68  H    0.087617
    69  H    0.120861
    70  H    0.072750
    71  H    0.077538
    72  H    0.115561
    73  H    0.136563
    74  H    0.119402
    75  H    0.123199
    76  H    0.138539
    77  H    0.109251
    78  H    0.116274
    79  H    0.139607
    80  H    0.109529
    81  H    0.077076
    82  H    0.103882
    83  H    0.074624
    84  H    0.108126
    85  H    0.118261
    86  H    0.127338
    87  H    0.108363
    88  H    0.080492
    89  H    0.081480
    90  H    0.112206
    91  H    0.112432
    92  H    0.123105
    93  H    0.143633
    94  H    0.118543
    95  H    0.147858
    96  H    0.132612
    97  H    0.152462
    98  H    0.119925
    99  H    0.132997
   100  H    0.115251
   101  H    0.090865
   102  H    0.112104
   103  H    0.098971
   104  H    0.124590
   105  H    0.100265
   106  H    0.099949
   107  H    0.069988
   108  H    0.105145
   109  H    0.079177
   110  H    0.075992
   111  H    0.038641
   112  H    0.103863
   113  H    0.110938
   114  H    0.113345
   115  H    0.069558
   116  H    0.058592
   117  H    0.098770
   118  H    0.088889
   119  H    0.087951
   120  H    0.097258
   121  H    0.071512
   122  H    0.094699
   123  H    0.113715
   124  H    0.093123
   125  H    0.068051
   126  H    0.086863
   127  H    0.092708
   128  H    0.089678
   129  H    0.092158
   130  H    0.099176
   131  H    0.085861
   132  H    0.081364
   133  H    0.116060
   134  H    0.097186
   135  H    0.075856
   136  H    0.095872
   137  H    0.049659
 Sum of Mulliken charges =  -0.00000

 Dipole moment (field-independent basis, Debye):
    X=              3.2651    Y=              2.2613    Z=              1.3390  Tot=              4.1913
 Quadrupole moment (field-independent basis, Debye-Ang):
   XX=           -348.6244   YY=           -393.2523   ZZ=           -399.1815
   XY=            -26.5700   XZ=             -1.1373   YZ=             -3.8337

 Normal termination of Gaussian 16 at Tue Sep 10 00:34:11 2019.
