 Gaussian 16, Revision A.03,
 Gaussian 16:  ES64L-G16RevA.03 25-Dec-2016

 ----------------------------------------------------------------------
 # td=(NStates=1) iop(3/107=0140000000,3/108=0140000000) CAM-B3LYP/6-31
 G(d,p)
 ----------------------------------------------------------------------

 --
 TD
 --
 Symbolic Z-matrix:
 Charge =  0 Multiplicity = 1

                         Standard orientation:
 ---------------------------------------------------------------------
 Center     Atomic      Atomic             Coordinates (Angstroms)
 Number     Number       Type             X           Y           Z
 ---------------------------------------------------------------------
      1         12           0       -7.117698    0.637183    0.154450
      2          6           0       -4.873621   -1.949864    0.417098
      3          6           0       -4.721311    2.741750    1.094014
      4          6           0       -9.354497    3.175334   -0.345353
      5          6           0       -9.592814   -1.709463   -0.886221
      6          7           0       -5.114851    0.420885    0.827270
      7          6           0       -4.337594   -0.741460    0.828920
      8          6           0       -2.913713   -0.498918    1.225156
      9          6           0       -2.912855    0.984063    1.695109
     10          6           0       -4.308073    1.408100    1.138287
     11          6           0       -2.952672    1.154665    3.235553
     12          6           0       -1.973652   -0.729721    0.161195
     13          6           0       -0.482702   -0.659253    0.642115
     14          6           0        0.515908   -0.800091   -0.542281
     15          8           0        0.272529   -1.043816   -1.656745
     16          8           0        1.788257   -0.469182   -0.149146
     17          7           0       -7.073338    2.615771    0.441075
     18          6           0       -5.952262    3.338120    0.767110
     19          6           0       -6.261608    4.753930    0.771711
     20          6           0       -7.617835    4.900212    0.292847
     21          6           0       -8.119048    3.543477    0.116571
     22          6           0       -5.307514    5.861659    1.005417
     23          6           0       -8.427691    6.022761    0.161284
     24          6           0       -8.185662    7.270813    0.638199
     25          7           0       -9.102355    0.742426   -0.389343
     26          6           0       -9.857574    1.930611   -0.637757
     27          6           0      -11.209970    1.625667   -1.160778
     28          6           0      -11.284504    0.247357   -1.185770
     29          6           0       -9.998237   -0.350739   -0.830183
     30          6           0      -12.277707    2.503916   -1.422829
     31          6           0      -12.519004   -0.568236   -1.659454
     32          6           0      -12.467030   -1.006412   -3.108732
     33          7           0       -7.321155   -1.418629   -0.185303
     34          6           0       -8.370517   -2.171452   -0.558320
     35          6           0       -7.968039   -3.629090   -0.488825
     36          6           0       -6.575477   -3.633613   -0.201859
     37          6           0       -6.271238   -2.212572    0.027418
     38          6           0       -8.786328   -4.711118   -0.934696
     39          6           0       -5.358619   -4.403699    0.049871
     40          8           0       -5.339610   -5.610046    0.132345
     41          6           0       -4.259216   -3.417510    0.483650
     42          6           0       -3.575798   -3.788208    1.812600
     43          8           0       -3.702094   -3.049775    2.862863
     44          8           0       -2.863430   -4.749115    1.721407
     45          6           0       -2.293846   -5.215678    2.919010
     46          6           0        2.831590   -0.599088   -1.141640
     47          6           0        4.065695   -0.347572   -0.400528
     48          6           0        5.111940    0.437162   -0.822360
     49          6           0        5.093613    1.163505   -2.209694
     50          6           0        6.459681    0.490104   -0.193040
     51          6           0        7.625255   -0.090822   -0.953478
     52          6           0        8.930387   -0.178722   -0.040635
     53          6           0       10.236283   -0.502714   -0.856980
     54          6           0       10.196867   -1.960618   -1.324482
     55          6           0       11.415333   -0.247208   -0.130165
     56          6           0       12.727652   -0.433874   -0.835937
     57          6           0       13.994873   -0.037733    0.009278
     58          6           0       15.420554   -0.229969   -0.575034
     59          6           0       15.853587   -1.700935   -0.962879
     60          6           0       16.389548    0.460122    0.359481
     61          6           0       17.820527    0.471825   -0.199604
     62          6           0       18.775556    1.144120    0.807365
     63          6           0       20.239270    1.277450    0.332383
     64          6           0       20.470555    2.018356   -0.955174
     65          6           0       21.072118    1.931360    1.411988
     66          1           0       -3.826115    3.452317    1.287080
     67          1           0      -10.026935    3.925637   -0.384429
     68          1           0      -10.325778   -2.395980   -1.166317
     69          1           0       -2.922923   -0.997917    2.251260
     70          1           0       -2.120594    1.431740    1.084845
     71          1           0       -1.965700    0.543972    3.464831
     72          1           0       -2.858988    2.297517    3.482799
     73          1           0       -3.791165    0.604175    3.766970
     74          1           0       -2.167299   -1.733592   -0.216540
     75          1           0       -1.963916   -0.077959   -0.865564
     76          1           0       -0.420281    0.154737    1.115253
     77          1           0       -0.168209   -1.393267    1.425585
     78          1           0       -5.546612    6.598788    0.310366
     79          1           0       -5.300071    6.359860    1.954375
     80          1           0       -4.230672    5.593430    1.049519
     81          1           0       -9.396615    5.792691   -0.296862
     82          1           0       -8.695293    8.149217    0.382549
     83          1           0       -7.108888    7.339062    1.013841
     84          1           0      -11.970350    3.251606   -2.120419
     85          1           0      -13.328333    2.112853   -1.623223
     86          1           0      -12.391759    3.091574   -0.430887
     87          1           0      -12.715098   -1.606380   -1.059892
     88          1           0      -13.393635   -0.177266   -1.325035
     89          1           0      -13.276535   -1.726591   -3.213581
     90          1           0      -12.292062   -0.279044   -3.863870
     91          1           0      -11.594416   -1.620698   -3.524606
     92          1           0       -9.580505   -4.511545   -1.790662
     93          1           0       -7.932477   -5.582185   -1.245116
     94          1           0       -9.329828   -5.231072    0.015837
     95          1           0       -3.249698   -3.494957   -0.072303
     96          1           0       -1.857657   -4.361039    3.248538
     97          1           0       -3.074556   -5.441917    3.558796
     98          1           0       -1.731931   -5.989003    2.518147
     99          1           0        2.786014   -1.581172   -1.595775
    100          1           0        2.707200   -0.016213   -2.049155
    101          1           0        4.062862   -1.037058    0.279574
    102          1           0        3.936396    1.189140   -2.600761
    103          1           0        5.240103    2.270455   -2.126063
    104          1           0        5.447960    0.639445   -3.152599
    105          1           0        6.514927    1.659067    0.006576
    106          1           0        6.444839   -0.110810    0.889201
    107          1           0        7.402123   -1.007265   -1.567417
    108          1           0        7.842286    0.743484   -1.712693
    109          1           0        9.129424    0.723300    0.627603
    110          1           0        8.559495   -1.054210    0.653722
    111          1           0       10.113375    0.160637   -1.617173
    112          1           0        9.397528   -1.967957   -2.016859
    113          1           0       11.204397   -2.274833   -1.872520
    114          1           0        9.892246   -2.683220   -0.652281
    115          1           0       11.442020    0.840890    0.229743
    116          1           0       11.566400   -0.825868    0.925704
    117          1           0       12.851480   -1.468152   -1.177634
    118          1           0       12.795196    0.098677   -1.806122
    119          1           0       13.791131    1.051174    0.221134
    120          1           0       13.820542   -0.715130    0.922065
    121          1           0       15.354295    0.147610   -1.481045
    122          1           0       15.774579   -2.476795   -0.268280
    123          1           0       15.222443   -1.957967   -1.729317
    124          1           0       16.675979   -1.654983   -1.266818
    125          1           0       16.197914    1.459141    0.640321
    126          1           0       16.405990   -0.269775    1.144925
    127          1           0       18.125054   -0.576339   -0.477832
    128          1           0       17.984930    1.219609   -0.928834
    129          1           0       18.227124    2.226872    0.952763
    130          1           0       18.686254    0.899490    1.862012
    131          1           0       20.527335    0.212407    0.298829
    132          1           0       19.974233    3.029537   -0.958286
    133          1           0       21.505529    2.093066   -1.116263
    134          1           0       20.002124    1.707251   -1.977024
    135          1           0       21.385790    1.320494    2.258391
    136          1           0       22.100750    2.110717    0.921670
    137          1           0       20.634254    3.022111    1.556480
 ---------------------------------------------------------------------

 SCF Done:  E(RCAM-B3LYP) =  -2933.45807154     A.U. after   16 cycles

 Excitation energies and oscillator strengths:

 Excited State   1:      Singlet-A      1.9992 eV  620.16 nm  f=0.2675  <S**2>=0.000
     240 -> 243        0.22417
     241 -> 242        0.66336
 This state for optimization and/or second-order correction.
 Total Energy, E(TD-HF/TD-DFT) =  -2933.38460175
 Copying the excited state density for this state as the 1-particle RhoCI density.

 The electronic state is 1-A.
 Alpha  occ. eigenvalues --  -46.79496 -19.24771 -19.21035 -19.17378 -19.15806
 Alpha  occ. eigenvalues --  -19.14899 -14.37240 -14.35033 -14.34913 -14.34461
 Alpha  occ. eigenvalues --  -10.34518 -10.34433 -10.30478 -10.26352 -10.26167
 Alpha  occ. eigenvalues --  -10.25871 -10.25579 -10.25033 -10.24988 -10.24899
 Alpha  occ. eigenvalues --  -10.24638 -10.24422 -10.24412 -10.24163 -10.24124
 Alpha  occ. eigenvalues --  -10.24086 -10.24059 -10.23831 -10.23688 -10.23463
 Alpha  occ. eigenvalues --  -10.23358 -10.23356 -10.23220 -10.22787 -10.22693
 Alpha  occ. eigenvalues --  -10.22649 -10.22576 -10.22490 -10.22335 -10.22071
 Alpha  occ. eigenvalues --  -10.22015 -10.21885 -10.21833 -10.21748 -10.21711
 Alpha  occ. eigenvalues --  -10.21663 -10.21318 -10.21168 -10.21157 -10.21152
 Alpha  occ. eigenvalues --  -10.21100 -10.21083 -10.21001 -10.20858 -10.20745
 Alpha  occ. eigenvalues --  -10.20718 -10.20653 -10.20617 -10.20569 -10.20202
 Alpha  occ. eigenvalues --  -10.20171 -10.20023 -10.19823 -10.19443 -10.16805
 Alpha  occ. eigenvalues --   -3.08042  -1.82986  -1.82509  -1.82448  -1.20779
 Alpha  occ. eigenvalues --   -1.13840  -1.06424  -1.05411  -1.00857  -0.99496
 Alpha  occ. eigenvalues --   -0.98550  -0.95997  -0.93518  -0.86773  -0.86515
 Alpha  occ. eigenvalues --   -0.86047  -0.85411  -0.85037  -0.84223  -0.83506
 Alpha  occ. eigenvalues --   -0.83410  -0.83127  -0.82347  -0.81997  -0.81526
 Alpha  occ. eigenvalues --   -0.81294  -0.79971  -0.79255  -0.78583  -0.78288
 Alpha  occ. eigenvalues --   -0.77722  -0.77027  -0.75630  -0.74995  -0.73261
 Alpha  occ. eigenvalues --   -0.73059  -0.72493  -0.72395  -0.71772  -0.70741
 Alpha  occ. eigenvalues --   -0.70521  -0.69944  -0.69733  -0.68265  -0.67015
 Alpha  occ. eigenvalues --   -0.66579  -0.66226  -0.65472  -0.64983  -0.64057
 Alpha  occ. eigenvalues --   -0.63128  -0.62131  -0.61963  -0.61083  -0.60482
 Alpha  occ. eigenvalues --   -0.60245  -0.59936  -0.59264  -0.58946  -0.58859
 Alpha  occ. eigenvalues --   -0.58066  -0.57293  -0.56654  -0.56260  -0.55739
 Alpha  occ. eigenvalues --   -0.55210  -0.54419  -0.53771  -0.53388  -0.53214
 Alpha  occ. eigenvalues --   -0.52533  -0.52117  -0.51624  -0.51338  -0.50936
 Alpha  occ. eigenvalues --   -0.50918  -0.50695  -0.50261  -0.49925  -0.49459
 Alpha  occ. eigenvalues --   -0.49363  -0.49149  -0.49017  -0.48212  -0.48126
 Alpha  occ. eigenvalues --   -0.48004  -0.47894  -0.47463  -0.47125  -0.46997
 Alpha  occ. eigenvalues --   -0.46867  -0.46570  -0.46090  -0.46031  -0.45925
 Alpha  occ. eigenvalues --   -0.45764  -0.45427  -0.45293  -0.45014  -0.44917
 Alpha  occ. eigenvalues --   -0.44806  -0.44513  -0.44236  -0.44079  -0.43809
 Alpha  occ. eigenvalues --   -0.43548  -0.43475  -0.43121  -0.42857  -0.42158
 Alpha  occ. eigenvalues --   -0.42077  -0.41947  -0.41877  -0.41451  -0.41330
 Alpha  occ. eigenvalues --   -0.41254  -0.41211  -0.41183  -0.40928  -0.40640
 Alpha  occ. eigenvalues --   -0.40403  -0.40364  -0.40198  -0.40116  -0.40021
 Alpha  occ. eigenvalues --   -0.39578  -0.39390  -0.39372  -0.39245  -0.39175
 Alpha  occ. eigenvalues --   -0.38861  -0.38779  -0.38329  -0.38285  -0.37890
 Alpha  occ. eigenvalues --   -0.37862  -0.37787  -0.37701  -0.37693  -0.36915
 Alpha  occ. eigenvalues --   -0.36734  -0.36274  -0.36147  -0.35769  -0.35555
 Alpha  occ. eigenvalues --   -0.35132  -0.35066  -0.34445  -0.34329  -0.34310
 Alpha  occ. eigenvalues --   -0.33972  -0.33639  -0.33610  -0.33428  -0.33127
 Alpha  occ. eigenvalues --   -0.32997  -0.32916  -0.32577  -0.32513  -0.32454
 Alpha  occ. eigenvalues --   -0.32325  -0.32006  -0.31730  -0.31134  -0.30884
 Alpha  occ. eigenvalues --   -0.30069  -0.29279  -0.28571  -0.27915  -0.26927
 Alpha  occ. eigenvalues --   -0.26909  -0.26196  -0.24778  -0.23588  -0.21146
 Alpha  occ. eigenvalues --   -0.19417
 Alpha virt. eigenvalues --   -0.06746  -0.03570  -0.00051   0.02154   0.03040
 Alpha virt. eigenvalues --    0.04347   0.05017   0.05279   0.05483   0.05866
 Alpha virt. eigenvalues --    0.06997   0.08839   0.09469   0.10033   0.10530

 Mulliken charges:
               1
     1  Mg   0.803631
     2  C    0.054947
     3  C   -0.224468
     4  C   -0.165756
     5  C   -0.158424
     6  N   -0.605861
     7  C    0.281810
     8  C   -0.156054
     9  C   -0.144839
    10  C    0.345641
    11  C   -0.297418
    12  C   -0.192332
    13  C   -0.253345
    14  C    0.584615
    15  O   -0.432592
    16  O   -0.484564
    17  N   -0.739042
    18  C    0.357364
    19  C    0.023050
    20  C    0.038531
    21  C    0.295075
    22  C   -0.402439
    23  C   -0.068339
    24  C   -0.256557
    25  N   -0.680363
    26  C    0.291503
    27  C    0.086823
    28  C    0.005578
    29  C    0.257219
    30  C   -0.403069
    31  C   -0.226357
    32  C   -0.306709
    33  N   -0.707690
    34  C    0.319235
    35  C    0.026803
    36  C    0.037764
    37  C    0.263904
    38  C   -0.399175
    39  C    0.368538
    40  O   -0.459277
    41  C   -0.324216
    42  C    0.580470
    43  O   -0.550417
    44  O   -0.332396
    45  C   -0.084842
    46  C    0.000597
    47  C   -0.077791
    48  C    0.102496
    49  C   -0.375065
    50  C   -0.203059
    51  C   -0.175671
    52  C   -0.182455
    53  C   -0.026998
    54  C   -0.316435
    55  C   -0.146024
    56  C   -0.199872
    57  C   -0.168995
    58  C   -0.067162
    59  C   -0.314100
    60  C   -0.152571
    61  C   -0.178331
    62  C   -0.179720
    63  C   -0.037331
    64  C   -0.314298
    65  C   -0.304235
    66  H    0.059656
    67  H    0.063347
    68  H    0.081385
    69  H    0.156959
    70  H    0.108661
    71  H    0.092202
    72  H    0.111147
    73  H    0.141058
    74  H    0.111975
    75  H    0.117248
    76  H    0.139002
    77  H    0.124528
    78  H    0.135258
    79  H    0.129505
    80  H    0.106381
    81  H    0.076947
    82  H    0.107282
    83  H    0.077622
    84  H    0.129095
    85  H    0.119996
    86  H    0.113527
    87  H    0.071262
    88  H    0.114278
    89  H    0.104165
    90  H    0.116815
    91  H    0.095385
    92  H    0.117923
    93  H    0.123286
    94  H    0.118147
    95  H    0.143445
    96  H    0.143311
    97  H    0.150246
    98  H    0.133696
    99  H    0.119703
   100  H    0.111510
   101  H    0.083821
   102  H    0.081017
   103  H    0.119587
   104  H    0.133078
   105  H    0.093603
   106  H    0.066688
   107  H    0.106434
   108  H    0.090136
   109  H    0.091655
   110  H    0.078716
   111  H    0.098759
   112  H    0.098681
   113  H    0.087715
   114  H    0.115858
   115  H    0.068662
   116  H    0.064992
   117  H    0.090497
   118  H    0.077435
   119  H    0.081677
   120  H    0.075748
   121  H    0.089944
   122  H    0.099973
   123  H    0.102148
   124  H    0.105891
   125  H    0.089585
   126  H    0.099770
   127  H    0.086057
   128  H    0.106215
   129  H    0.038958
   130  H    0.088432
   131  H    0.089899
   132  H    0.098649
   133  H    0.111061
   134  H    0.089590
   135  H    0.109702
   136  H    0.080416
   137  H    0.094057
 Sum of Mulliken charges =  -0.00000

 Dipole moment (field-independent basis, Debye):
    X=              3.0528    Y=              1.5901    Z=             -0.5522  Tot=              3.4861
 Quadrupole moment (field-independent basis, Debye-Ang):
   XX=           -351.0640   YY=           -390.0145   ZZ=           -397.2780
   XY=            -16.3147   XZ=              4.7402   YZ=             -8.5351

 Normal termination of Gaussian 16 at Sat Sep  7 04:57:21 2019.
