 Gaussian 16, Revision A.03,
 Gaussian 16:  ES64L-G16RevA.03 25-Dec-2016

 ----------------------------------------------------------------------
 # td=(NStates=1) iop(3/107=0140000000,3/108=0140000000) CAM-B3LYP/6-31
 G(d,p)
 ----------------------------------------------------------------------

 --
 TD
 --
 Symbolic Z-matrix:
 Charge =  0 Multiplicity = 1

                         Standard orientation:
 ---------------------------------------------------------------------
 Center     Atomic      Atomic             Coordinates (Angstroms)
 Number     Number       Type             X           Y           Z
 ---------------------------------------------------------------------
      1         12           0       -7.146891    0.589394    0.139286
      2          6           0       -4.898521   -1.930184    0.424870
      3          6           0       -4.820450    2.807900    1.242365
      4          6           0       -9.507648    3.077694   -0.234456
      5          6           0       -9.673389   -1.822815   -0.707987
      6          7           0       -5.043864    0.462845    0.626439
      7          6           0       -4.331054   -0.741765    0.727353
      8          6           0       -2.939518   -0.383823    1.203718
      9          6           0       -3.018176    1.033048    1.624602
     10          6           0       -4.347899    1.504794    1.104724
     11          6           0       -2.845934    1.289206    3.145706
     12          6           0       -1.911247   -0.599546    0.026679
     13          6           0       -0.463291   -0.317081    0.564385
     14          6           0        0.440219   -0.538540   -0.588798
     15          8           0        0.235439   -0.957047   -1.751512
     16          8           0        1.739742   -0.357678   -0.203410
     17          7           0       -7.143637    2.601240    0.430734
     18          6           0       -6.045439    3.377355    0.823017
     19          6           0       -6.419767    4.776727    0.725408
     20          6           0       -7.736215    4.840761    0.433909
     21          6           0       -8.114359    3.472023    0.077767
     22          6           0       -5.509777    5.859183    1.007061
     23          6           0       -8.492671    6.037241    0.092258
     24          6           0       -8.454045    7.238707    0.698184
     25          7           0       -9.196176    0.641640   -0.519465
     26          6           0       -9.951697    1.687559   -0.596328
     27          6           0      -11.289825    1.410562   -1.044806
     28          6           0      -11.285952   -0.016323   -1.202869
     29          6           0       -9.999828   -0.461986   -0.822959
     30          6           0      -12.360549    2.412802   -1.408380
     31          6           0      -12.431503   -0.785938   -1.675166
     32          6           0      -12.317553   -1.022076   -3.217615
     33          7           0       -7.256360   -1.406612   -0.115857
     34          6           0       -8.330640   -2.249052   -0.515593
     35          6           0       -7.871810   -3.609334   -0.378557
     36          6           0       -6.571456   -3.562874   -0.126057
     37          6           0       -6.216139   -2.146834   -0.015830
     38          6           0       -8.668044   -4.848108   -0.737241
     39          6           0       -5.352443   -4.383293    0.202990
     40          8           0       -5.170243   -5.533581    0.258262
     41          6           0       -4.254162   -3.286466    0.538445
     42          6           0       -3.574058   -3.703693    1.802305
     43          8           0       -3.645398   -3.062759    2.836102
     44          8           0       -2.803392   -4.742833    1.633438
     45          6           0       -2.137116   -5.274825    2.775266
     46          6           0        2.814416   -0.605679   -1.167400
     47          6           0        4.145656   -0.398514   -0.535064
     48          6           0        5.185676    0.354552   -1.001160
     49          6           0        5.226647    1.201117   -2.246228
     50          6           0        6.474630    0.357093   -0.216562
     51          6           0        7.656523   -0.198114   -0.957477
     52          6           0        8.963101   -0.022360   -0.178659
     53          6           0       10.263204   -0.566168   -0.900068
     54          6           0       10.133490   -2.088065   -1.104840
     55          6           0       11.518157   -0.307561   -0.040921
     56          6           0       12.847707   -0.510938   -0.706542
     57          6           0       13.986418    0.081771    0.085630
     58          6           0       15.432492   -0.149827   -0.442610
     59          6           0       15.695347   -1.584572   -0.835483
     60          6           0       16.443607    0.430538    0.464341
     61          6           0       17.867710    0.458655   -0.097868
     62          6           0       18.878403    1.125531    0.864530
     63          6           0       20.288996    1.205133    0.231299
     64          6           0       20.308529    2.096219   -1.151313
     65          6           0       21.158403    1.862807    1.286662
     66          1           0       -4.087240    3.723187    1.641555
     67          1           0      -10.069825    3.910696   -0.517697
     68          1           0      -10.469387   -2.595303   -0.843667
     69          1           0       -2.380349   -1.001903    2.011226
     70          1           0       -2.340285    1.764937    1.347111
     71          1           0       -1.955209    0.785672    3.634512
     72          1           0       -2.912880    2.207362    3.494069
     73          1           0       -3.659232    0.720375    3.657296
     74          1           0       -2.130974   -1.660570   -0.345119
     75          1           0       -2.195753   -0.007369   -0.864014
     76          1           0       -0.398033    0.857329    0.512227
     77          1           0       -0.215838   -0.897621    1.377974
     78          1           0       -5.812884    6.593762    0.195610
     79          1           0       -5.445965    6.383234    2.036289
     80          1           0       -4.514824    5.508987    0.936553
     81          1           0       -9.251114    5.920809   -0.752955
     82          1           0       -9.078474    8.149992    0.360017
     83          1           0       -8.037837    7.237672    1.753524
     84          1           0      -11.980183    2.946954   -2.238239
     85          1           0      -13.483442    1.958592   -1.500659
     86          1           0      -12.478632    3.135076   -0.685174
     87          1           0      -12.698859   -1.735593   -1.222204
     88          1           0      -13.466627   -0.260809   -1.607091
     89          1           0      -13.139283   -1.530617   -3.713887
     90          1           0      -12.434870   -0.246184   -3.916602
     91          1           0      -11.368423   -1.524221   -3.506204
     92          1           0       -8.745162   -4.841585   -1.904275
     93          1           0       -7.886155   -5.574598   -0.520643
     94          1           0       -9.560545   -4.870876   -0.065197
     95          1           0       -3.692993   -3.438003   -0.368502
     96          1           0       -1.471972   -4.365131    3.221304
     97          1           0       -2.836831   -5.710977    3.550885
     98          1           0       -1.680836   -6.199274    2.339661
     99          1           0        2.565509   -1.527019   -1.468104
    100          1           0        2.793008    0.062664   -2.141967
    101          1           0        4.254316   -0.851787    0.424043
    102          1           0        4.399636    1.340883   -2.699498
    103          1           0        5.545741    2.231319   -1.920607
    104          1           0        5.988120    0.778384   -2.844843
    105          1           0        6.643923    1.623627   -0.085677
    106          1           0        6.305103    0.020959    0.860159
    107          1           0        7.458474   -1.216043   -1.159601
    108          1           0        7.956777    0.210790   -1.855710
    109          1           0        9.207650    1.153100    0.036587
    110          1           0        8.943056   -0.558472    0.856615
    111          1           0       10.260416    0.119999   -1.823611
    112          1           0        9.372323   -2.379958   -1.993865
    113          1           0       11.223763   -2.431596   -1.485236
    114          1           0        9.959734   -2.773496   -0.218806
    115          1           0       11.298406    0.706297    0.191573
    116          1           0       11.606599   -0.864160    0.991579
    117          1           0       13.045138   -1.673885   -0.862591
    118          1           0       12.946050   -0.099323   -1.803003
    119          1           0       13.749070    1.295878    0.132572
    120          1           0       13.802042   -0.256360    1.212154
    121          1           0       15.412452    0.420046   -1.474435
    122          1           0       15.644746   -2.117588    0.070391
    123          1           0       14.899352   -1.946140   -1.445898
    124          1           0       16.716999   -1.817811   -1.240301
    125          1           0       16.093251    1.459892    0.645390
    126          1           0       16.516231    0.090297    1.445630
    127          1           0       18.045073   -0.654500   -0.370992
    128          1           0       17.733851    1.009279   -0.889459
    129          1           0       18.626300    2.101245    1.075567
    130          1           0       18.857166    0.720968    1.843620
    131          1           0       20.732642    0.103193   -0.041366
    132          1           0       19.952342    3.103643   -0.905261
    133          1           0       21.213596    2.246021   -1.470823
    134          1           0       19.748397    1.814409   -2.240460
    135          1           0       21.379793    1.000351    2.140440
    136          1           0       22.168932    2.235353    0.687169
    137          1           0       20.685759    2.744449    1.611703
 ---------------------------------------------------------------------

 SCF Done:  E(RCAM-B3LYP) =  -2933.53566651     A.U. after   16 cycles

 Excitation energies and oscillator strengths:

 Excited State   1:      Singlet-A      2.1007 eV  590.21 nm  f=0.1856  <S**2>=0.000
     240 -> 243       -0.25468
     241 -> 242        0.65388
 This state for optimization and/or second-order correction.
 Total Energy, E(TD-HF/TD-DFT) =  -2933.45846860
 Copying the excited state density for this state as the 1-particle RhoCI density.

 The electronic state is 1-A.
 Alpha  occ. eigenvalues --  -46.80595 -19.22362 -19.20616 -19.16970 -19.15831
 Alpha  occ. eigenvalues --  -19.15563 -14.37276 -14.35462 -14.35272 -14.34518
 Alpha  occ. eigenvalues --  -10.34209 -10.33945 -10.30705 -10.28623 -10.26520
 Alpha  occ. eigenvalues --  -10.26504 -10.26042 -10.25697 -10.25358 -10.24483
 Alpha  occ. eigenvalues --  -10.24463 -10.24317 -10.24057 -10.23914 -10.23732
 Alpha  occ. eigenvalues --  -10.23655 -10.23544 -10.23475 -10.23294 -10.23271
 Alpha  occ. eigenvalues --  -10.23073 -10.23027 -10.22976 -10.22950 -10.22926
 Alpha  occ. eigenvalues --  -10.22919 -10.22762 -10.22663 -10.22638 -10.22429
 Alpha  occ. eigenvalues --  -10.22426 -10.22376 -10.22260 -10.22256 -10.22227
 Alpha  occ. eigenvalues --  -10.22205 -10.22145 -10.22136 -10.21971 -10.21561
 Alpha  occ. eigenvalues --  -10.21412 -10.21312 -10.21304 -10.21205 -10.21152
 Alpha  occ. eigenvalues --  -10.20876 -10.20813 -10.20418 -10.20193 -10.20107
 Alpha  occ. eigenvalues --  -10.19782 -10.19743 -10.19286 -10.19212 -10.18959
 Alpha  occ. eigenvalues --   -3.09022  -1.83981  -1.83482  -1.83424  -1.14527
 Alpha  occ. eigenvalues --   -1.10993  -1.09597  -1.03883  -1.01389  -0.99964
 Alpha  occ. eigenvalues --   -0.98743  -0.98565  -0.97738  -0.87346  -0.86341
 Alpha  occ. eigenvalues --   -0.85733  -0.85234  -0.84691  -0.84302  -0.83741
 Alpha  occ. eigenvalues --   -0.83096  -0.82914  -0.82454  -0.81876  -0.81444
 Alpha  occ. eigenvalues --   -0.80528  -0.79726  -0.78420  -0.78141  -0.77436
 Alpha  occ. eigenvalues --   -0.77093  -0.76194  -0.75449  -0.75290  -0.73946
 Alpha  occ. eigenvalues --   -0.73168  -0.72473  -0.71751  -0.71553  -0.71372
 Alpha  occ. eigenvalues --   -0.70420  -0.70351  -0.69299  -0.68463  -0.67710
 Alpha  occ. eigenvalues --   -0.67208  -0.66243  -0.65866  -0.64724  -0.63261
 Alpha  occ. eigenvalues --   -0.62498  -0.61999  -0.60825  -0.60737  -0.59967
 Alpha  occ. eigenvalues --   -0.59670  -0.58432  -0.58374  -0.57964  -0.57955
 Alpha  occ. eigenvalues --   -0.57153  -0.56434  -0.56367  -0.55460  -0.55203
 Alpha  occ. eigenvalues --   -0.54718  -0.54605  -0.54153  -0.53711  -0.53219
 Alpha  occ. eigenvalues --   -0.52007  -0.51747  -0.51357  -0.50939  -0.50552
 Alpha  occ. eigenvalues --   -0.50517  -0.50458  -0.50081  -0.49684  -0.49395
 Alpha  occ. eigenvalues --   -0.49271  -0.48677  -0.48419  -0.48099  -0.47863
 Alpha  occ. eigenvalues --   -0.47718  -0.47529  -0.47397  -0.46923  -0.46785
 Alpha  occ. eigenvalues --   -0.46173  -0.46109  -0.45924  -0.45852  -0.45766
 Alpha  occ. eigenvalues --   -0.45601  -0.45526  -0.45394  -0.45161  -0.44909
 Alpha  occ. eigenvalues --   -0.44446  -0.44317  -0.44119  -0.43717  -0.43632
 Alpha  occ. eigenvalues --   -0.43588  -0.43181  -0.42917  -0.42492  -0.42436
 Alpha  occ. eigenvalues --   -0.42253  -0.42151  -0.42080  -0.41734  -0.41557
 Alpha  occ. eigenvalues --   -0.41325  -0.41308  -0.41161  -0.41057  -0.40970
 Alpha  occ. eigenvalues --   -0.40266  -0.40184  -0.40090  -0.39969  -0.39880
 Alpha  occ. eigenvalues --   -0.39515  -0.39324  -0.39038  -0.38928  -0.38751
 Alpha  occ. eigenvalues --   -0.38647  -0.38291  -0.38198  -0.38025  -0.37897
 Alpha  occ. eigenvalues --   -0.37535  -0.37456  -0.37378  -0.37169  -0.36815
 Alpha  occ. eigenvalues --   -0.36659  -0.36628  -0.36552  -0.36121  -0.36004
 Alpha  occ. eigenvalues --   -0.35754  -0.35418  -0.35213  -0.35072  -0.34657
 Alpha  occ. eigenvalues --   -0.34445  -0.33893  -0.33831  -0.33707  -0.33680
 Alpha  occ. eigenvalues --   -0.33195  -0.32880  -0.32588  -0.32554  -0.32548
 Alpha  occ. eigenvalues --   -0.32292  -0.31602  -0.31452  -0.30819  -0.30379
 Alpha  occ. eigenvalues --   -0.29793  -0.29382  -0.29100  -0.28573  -0.27501
 Alpha  occ. eigenvalues --   -0.26773  -0.26704  -0.25378  -0.24556  -0.21376
 Alpha  occ. eigenvalues --   -0.19899
 Alpha virt. eigenvalues --   -0.06436  -0.04046   0.00494   0.02535   0.03808
 Alpha virt. eigenvalues --    0.03908   0.04357   0.04896   0.05323   0.05404
 Alpha virt. eigenvalues --    0.06535   0.09153   0.09224   0.09651   0.09805

 Mulliken charges:
               1
     1  Mg   0.819441
     2  C    0.079537
     3  C   -0.220932
     4  C   -0.148816
     5  C   -0.162064
     6  N   -0.666084
     7  C    0.311656
     8  C   -0.158256
     9  C   -0.123991
    10  C    0.380317
    11  C   -0.324157
    12  C   -0.181164
    13  C   -0.241518
    14  C    0.593070
    15  O   -0.497180
    16  O   -0.494766
    17  N   -0.684595
    18  C    0.322987
    19  C    0.038375
    20  C    0.024825
    21  C    0.251943
    22  C   -0.376979
    23  C   -0.083719
    24  C   -0.255941
    25  N   -0.669675
    26  C    0.303818
    27  C    0.011192
    28  C    0.053849
    29  C    0.268957
    30  C   -0.377520
    31  C   -0.266120
    32  C   -0.323851
    33  N   -0.708597
    34  C    0.231821
    35  C   -0.041671
    36  C    0.027099
    37  C    0.313125
    38  C   -0.366300
    39  C    0.349799
    40  O   -0.418071
    41  C   -0.337088
    42  C    0.623991
    43  O   -0.494927
    44  O   -0.412093
    45  C   -0.086500
    46  C    0.040545
    47  C   -0.138167
    48  C    0.115298
    49  C   -0.342424
    50  C   -0.208353
    51  C   -0.158670
    52  C   -0.173000
    53  C   -0.060050
    54  C   -0.297296
    55  C   -0.153358
    56  C   -0.164689
    57  C   -0.155098
    58  C   -0.043459
    59  C   -0.317365
    60  C   -0.182664
    61  C   -0.155211
    62  C   -0.171793
    63  C   -0.047367
    64  C   -0.314941
    65  C   -0.287124
    66  H    0.062587
    67  H    0.070940
    68  H    0.105222
    69  H    0.115236
    70  H    0.109115
    71  H    0.099129
    72  H    0.119275
    73  H    0.117541
    74  H    0.109971
    75  H    0.120186
    76  H    0.148643
    77  H    0.149166
    78  H    0.124117
    79  H    0.112937
    80  H    0.109382
    81  H    0.092420
    82  H    0.104917
    83  H    0.107129
    84  H    0.132939
    85  H    0.095872
    86  H    0.129636
    87  H    0.109325
    88  H    0.093298
    89  H    0.090924
    90  H    0.114795
    91  H    0.105255
    92  H    0.127426
    93  H    0.145785
    94  H    0.123031
    95  H    0.169903
    96  H    0.117570
    97  H    0.131614
    98  H    0.130610
    99  H    0.130877
   100  H    0.093481
   101  H    0.080723
   102  H    0.118276
   103  H    0.108522
   104  H    0.128163
   105  H    0.049734
   106  H    0.103876
   107  H    0.114559
   108  H    0.106117
   109  H    0.061772
   110  H    0.075447
   111  H    0.083819
   112  H    0.079449
   113  H    0.081205
   114  H    0.110312
   115  H    0.092061
   116  H    0.081810
   117  H    0.081394
   118  H    0.076918
   119  H    0.063661
   120  H    0.067068
   121  H    0.065300
   122  H    0.105388
   123  H    0.104533
   124  H    0.100197
   125  H    0.078448
   126  H    0.090079
   127  H    0.076627
   128  H    0.109292
   129  H    0.095841
   130  H    0.090740
   131  H    0.065600
   132  H    0.096250
   133  H    0.118639
   134  H    0.072801
   135  H    0.091714
   136  H    0.071015
   137  H    0.114359
 Sum of Mulliken charges =  -0.00000

 Dipole moment (field-independent basis, Debye):
    X=              2.0324    Y=              3.4253    Z=              0.4507  Tot=              4.0083
 Quadrupole moment (field-independent basis, Debye-Ang):
   XX=           -354.3980   YY=           -387.1947   ZZ=           -397.2117
   XY=            -12.3600   XZ=             12.8230   YZ=             -4.6172

 Normal termination of Gaussian 16 at Wed Sep  4 22:42:15 2019.
