 Gaussian 16, Revision A.03,
 Gaussian 16:  ES64L-G16RevA.03 25-Dec-2016

 ----------------------------------------------------------------------
 # td=(NStates=1) iop(3/107=0140000000,3/108=0140000000) CAM-B3LYP/6-31
 G(d,p)
 ----------------------------------------------------------------------

 --
 TD
 --
 Symbolic Z-matrix:
 Charge =  0 Multiplicity = 1

                         Standard orientation:
 ---------------------------------------------------------------------
 Center     Atomic      Atomic             Coordinates (Angstroms)
 Number     Number       Type             X           Y           Z
 ---------------------------------------------------------------------
      1         12           0       -7.152729    0.602836    0.040951
      2          6           0       -4.834552   -1.906461    0.553983
      3          6           0       -4.816799    2.877151    1.123363
      4          6           0       -9.459064    3.123430   -0.441857
      5          6           0       -9.488804   -1.748981   -0.950554
      6          7           0       -5.090463    0.439804    0.738327
      7          6           0       -4.423012   -0.588881    0.833371
      8          6           0       -2.902310   -0.354498    1.368406
      9          6           0       -3.006824    1.064664    1.665800
     10          6           0       -4.375971    1.494325    1.159789
     11          6           0       -2.999579    1.401704    3.220273
     12          6           0       -1.970362   -0.613147    0.142694
     13          6           0       -0.548748   -0.432485    0.559628
     14          6           0        0.418150   -0.593005   -0.629592
     15          8           0        0.132184   -1.047374   -1.721999
     16          8           0        1.759471   -0.320837   -0.210359
     17          7           0       -7.081946    2.604168    0.277846
     18          6           0       -6.048556    3.346108    0.689183
     19          6           0       -6.438280    4.766942    0.775209
     20          6           0       -7.778055    4.786675    0.305250
     21          6           0       -8.220603    3.440022    0.101893
     22          6           0       -5.550749    5.940777    1.086990
     23          6           0       -8.518126    5.996720    0.068999
     24          6           0       -8.430639    7.158518    0.758531
     25          7           0       -9.077167    0.641217   -0.657856
     26          6           0       -9.795055    1.829079   -0.774772
     27          6           0      -11.272121    1.464829   -1.105736
     28          6           0      -11.277175    0.120909   -1.251986
     29          6           0       -9.950576   -0.439106   -1.041291
     30          6           0      -12.241903    2.452820   -1.420807
     31          6           0      -12.441260   -0.667830   -1.760330
     32          6           0      -12.325194   -1.254634   -3.264372
     33          7           0       -7.221123   -1.385259   -0.152432
     34          6           0       -8.260655   -2.267145   -0.564344
     35          6           0       -7.849533   -3.692491   -0.524833
     36          6           0       -6.493216   -3.614995   -0.102934
     37          6           0       -6.214283   -2.236745    0.165587
     38          6           0       -8.688721   -4.870912   -0.871504
     39          6           0       -5.330723   -4.394506    0.207829
     40          8           0       -5.096219   -5.575517    0.299716
     41          6           0       -4.190722   -3.234192    0.521094
     42          6           0       -3.537633   -3.597088    1.932811
     43          8           0       -3.710901   -2.993774    2.973115
     44          8           0       -2.854563   -4.647632    1.792329
     45          6           0       -2.195993   -5.140141    3.075852
     46          6           0        2.810141   -0.623656   -1.116140
     47          6           0        4.051946   -0.556212   -0.436684
     48          6           0        5.135546    0.211012   -0.800907
     49          6           0        5.178118    1.211984   -1.934830
     50          6           0        6.453757    0.169424   -0.046428
     51          6           0        7.645924   -0.410467   -0.906476
     52          6           0        8.978455   -0.325167   -0.076437
     53          6           0       10.296117   -0.673204   -0.877294
     54          6           0       10.207538   -2.136742   -1.352479
     55          6           0       11.514163   -0.385246   -0.085810
     56          6           0       12.918239   -0.594038   -0.707148
     57          6           0       13.988256   -0.039972    0.132065
     58          6           0       15.360804   -0.127098   -0.531402
     59          6           0       15.831435   -1.693092   -0.784327
     60          6           0       16.392352    0.514044    0.435659
     61          6           0       17.807990    0.701071   -0.281678
     62          6           0       18.872508    1.336696    0.623457
     63          6           0       20.280278    1.462273    0.165320
     64          6           0       20.315099    2.227204   -1.144772
     65          6           0       21.223236    2.002305    1.260072
     66          1           0       -3.943337    3.679202    1.204249
     67          1           0      -10.098959    3.885288   -0.461938
     68          1           0      -10.326401   -2.449140   -1.023689
     69          1           0       -2.561015   -1.043507    2.178755
     70          1           0       -2.347105    1.595222    1.238820
     71          1           0       -2.222321    1.018725    3.930005
     72          1           0       -3.028916    2.553951    3.348562
     73          1           0       -4.010267    1.141536    3.669624
     74          1           0       -2.023444   -1.660931   -0.258734
     75          1           0       -2.337756    0.053850   -0.805917
     76          1           0       -0.507441    0.701611    0.887245
     77          1           0       -0.283596   -1.023821    1.279569
     78          1           0       -5.668714    6.831613    0.675911
     79          1           0       -5.537338    6.294225    2.074601
     80          1           0       -4.503658    5.702186    0.852681
     81          1           0       -9.351356    5.771820   -0.458893
     82          1           0       -9.134253    8.076862    0.621536
     83          1           0       -7.466212    7.433132    1.342490
     84          1           0      -11.927146    3.170794   -2.238476
     85          1           0      -13.225631    2.044728   -1.667135
     86          1           0      -12.651113    3.181504   -0.506557
     87          1           0      -12.779488   -1.497331   -1.199589
     88          1           0      -13.274939    0.149100   -1.655909
     89          1           0      -13.160126   -1.787173   -3.530747
     90          1           0      -12.466529   -0.324240   -3.946895
     91          1           0      -11.480340   -1.733998   -3.357710
     92          1           0       -9.052395   -4.649712   -1.980945
     93          1           0       -8.224577   -5.788572   -0.620399
     94          1           0       -9.683419   -5.015443   -0.439563
     95          1           0       -3.399331   -3.523938   -0.293645
     96          1           0       -1.432532   -4.454140    3.408124
     97          1           0       -2.888849   -5.220381    3.875371
     98          1           0       -1.624551   -5.988528    2.724368
     99          1           0        2.789524   -1.584353   -1.470166
    100          1           0        2.486774    0.167305   -2.004362
    101          1           0        4.055598   -1.225494    0.603780
    102          1           0        4.097837    1.393574   -2.280384
    103          1           0        5.643545    2.249843   -1.808251
    104          1           0        5.711248    0.865488   -2.771814
    105          1           0        6.777623    1.104694    0.258913
    106          1           0        6.442475   -0.425899    0.868479
    107          1           0        7.383931   -1.514373   -1.135370
    108          1           0        7.832595    0.054575   -1.751723
    109          1           0        8.950149    0.631649    0.501253
    110          1           0        8.646796   -1.028421    0.803612
    111          1           0       10.493136   -0.069924   -1.887917
    112          1           0        9.507568   -2.273663   -2.083044
    113          1           0       11.073574   -2.379334   -1.942515
    114          1           0       10.152081   -2.948670   -0.536163
    115          1           0       11.552809    0.656683    0.384991
    116          1           0       11.262037   -1.119281    0.797670
    117          1           0       13.228520   -1.688697   -0.964044
    118          1           0       12.769382   -0.141451   -1.772813
    119          1           0       13.624763    0.850041    0.308167
    120          1           0       13.794209   -0.692678    1.018243
    121          1           0       15.347932    0.410881   -1.562847
    122          1           0       15.810890   -2.340451   -0.042021
    123          1           0       14.946404   -2.128751   -1.564793
    124          1           0       16.631536   -1.761758   -1.506385
    125          1           0       16.231143    1.532586    0.594898
    126          1           0       16.634107   -0.167575    1.242429
    127          1           0       18.203525   -0.328740   -0.488943
    128          1           0       17.734088    1.403234   -1.069383
    129          1           0       18.572396    2.239940    0.826301
    130          1           0       18.838351    0.721649    1.540023
    131          1           0       20.684881    0.472724   -0.033103
    132          1           0       19.817197    3.210813   -1.126758
    133          1           0       21.342976    2.562685   -1.505596
    134          1           0       19.770885    1.944469   -1.990472
    135          1           0       21.118241    1.332314    2.252390
    136          1           0       22.227641    1.908502    0.955252
    137          1           0       20.897004    2.997636    1.609951
 ---------------------------------------------------------------------

 SCF Done:  E(RCAM-B3LYP) =  -2933.50009001     A.U. after   15 cycles

 Excitation energies and oscillator strengths:

 Excited State   1:      Singlet-A      2.0172 eV  614.62 nm  f=0.2252  <S**2>=0.000
     240 -> 243        0.26633
     241 -> 242        0.65000
 This state for optimization and/or second-order correction.
 Total Energy, E(TD-HF/TD-DFT) =  -2933.42595803
 Copying the excited state density for this state as the 1-particle RhoCI density.

 The electronic state is 1-A.
 Alpha  occ. eigenvalues --  -46.79985 -19.22495 -19.20710 -19.17832 -19.16055
 Alpha  occ. eigenvalues --  -19.14915 -14.37952 -14.35566 -14.35418 -14.35327
 Alpha  occ. eigenvalues --  -10.35051 -10.33015 -10.30137 -10.27103 -10.26932
 Alpha  occ. eigenvalues --  -10.26722 -10.25734 -10.25327 -10.25238 -10.25079
 Alpha  occ. eigenvalues --  -10.25078 -10.24993 -10.24876 -10.24610 -10.23707
 Alpha  occ. eigenvalues --  -10.23575 -10.23374 -10.23137 -10.23105 -10.23087
 Alpha  occ. eigenvalues --  -10.23043 -10.22972 -10.22929 -10.22739 -10.22687
 Alpha  occ. eigenvalues --  -10.22680 -10.22651 -10.22544 -10.22329 -10.22229
 Alpha  occ. eigenvalues --  -10.22207 -10.22053 -10.22033 -10.21952 -10.21917
 Alpha  occ. eigenvalues --  -10.21854 -10.21752 -10.21708 -10.21692 -10.21432
 Alpha  occ. eigenvalues --  -10.21381 -10.21111 -10.21060 -10.21025 -10.20840
 Alpha  occ. eigenvalues --  -10.20751 -10.20550 -10.20380 -10.20158 -10.19995
 Alpha  occ. eigenvalues --  -10.19861 -10.19631 -10.19593 -10.19241 -10.18247
 Alpha  occ. eigenvalues --   -3.08629  -1.83562  -1.83120  -1.83022  -1.14485
 Alpha  occ. eigenvalues --   -1.10979  -1.06160  -1.04304  -1.03259  -1.03049
 Alpha  occ. eigenvalues --   -0.97774  -0.97434  -0.95249  -0.86306  -0.86092
 Alpha  occ. eigenvalues --   -0.85757  -0.85162  -0.84661  -0.84593  -0.83675
 Alpha  occ. eigenvalues --   -0.83152  -0.83076  -0.82650  -0.82139  -0.80997
 Alpha  occ. eigenvalues --   -0.80068  -0.79011  -0.78469  -0.78394  -0.77907
 Alpha  occ. eigenvalues --   -0.76962  -0.76211  -0.75666  -0.74918  -0.73746
 Alpha  occ. eigenvalues --   -0.72965  -0.72721  -0.71432  -0.71410  -0.71047
 Alpha  occ. eigenvalues --   -0.70705  -0.70356  -0.70047  -0.68113  -0.67812
 Alpha  occ. eigenvalues --   -0.66651  -0.65978  -0.65364  -0.64493  -0.64025
 Alpha  occ. eigenvalues --   -0.63045  -0.62507  -0.61805  -0.60598  -0.60284
 Alpha  occ. eigenvalues --   -0.59863  -0.59033  -0.58868  -0.58825  -0.58257
 Alpha  occ. eigenvalues --   -0.57324  -0.56914  -0.56364  -0.55573  -0.55448
 Alpha  occ. eigenvalues --   -0.54790  -0.54164  -0.53953  -0.53301  -0.52523
 Alpha  occ. eigenvalues --   -0.52206  -0.51783  -0.51506  -0.51323  -0.51198
 Alpha  occ. eigenvalues --   -0.51107  -0.50575  -0.49921  -0.49765  -0.49363
 Alpha  occ. eigenvalues --   -0.49123  -0.48947  -0.48912  -0.48531  -0.47880
 Alpha  occ. eigenvalues --   -0.47324  -0.47169  -0.47129  -0.46909  -0.46689
 Alpha  occ. eigenvalues --   -0.46494  -0.46249  -0.46066  -0.46028  -0.45788
 Alpha  occ. eigenvalues --   -0.45586  -0.45483  -0.45021  -0.44930  -0.44882
 Alpha  occ. eigenvalues --   -0.44631  -0.44353  -0.44217  -0.43807  -0.43695
 Alpha  occ. eigenvalues --   -0.43473  -0.43177  -0.43006  -0.42857  -0.42474
 Alpha  occ. eigenvalues --   -0.42375  -0.42206  -0.41920  -0.41636  -0.41430
 Alpha  occ. eigenvalues --   -0.41314  -0.41160  -0.41054  -0.40915  -0.40864
 Alpha  occ. eigenvalues --   -0.40830  -0.40363  -0.40203  -0.40063  -0.40023
 Alpha  occ. eigenvalues --   -0.39846  -0.39369  -0.38948  -0.38803  -0.38751
 Alpha  occ. eigenvalues --   -0.38604  -0.38512  -0.38498  -0.37834  -0.37615
 Alpha  occ. eigenvalues --   -0.37522  -0.37315  -0.37295  -0.37251  -0.37107
 Alpha  occ. eigenvalues --   -0.36585  -0.36453  -0.36342  -0.35950  -0.35922
 Alpha  occ. eigenvalues --   -0.35740  -0.35693  -0.35219  -0.35055  -0.34893
 Alpha  occ. eigenvalues --   -0.34866  -0.34500  -0.34406  -0.34019  -0.33793
 Alpha  occ. eigenvalues --   -0.33115  -0.32905  -0.32799  -0.32641  -0.32228
 Alpha  occ. eigenvalues --   -0.31877  -0.31611  -0.31334  -0.30866  -0.30615
 Alpha  occ. eigenvalues --   -0.30165  -0.29739  -0.28955  -0.27797  -0.27016
 Alpha  occ. eigenvalues --   -0.26377  -0.26246  -0.25723  -0.24376  -0.21218
 Alpha  occ. eigenvalues --   -0.19941
 Alpha virt. eigenvalues --   -0.07113  -0.03833  -0.00105   0.02003   0.02912
 Alpha virt. eigenvalues --    0.04078   0.04241   0.05136   0.05239   0.06326
 Alpha virt. eigenvalues --    0.06995   0.09151   0.09461   0.09618   0.09933

 Mulliken charges:
               1
     1  Mg   0.813934
     2  C    0.119550
     3  C   -0.196544
     4  C   -0.125663
     5  C   -0.206649
     6  N   -0.578240
     7  C    0.315925
     8  C   -0.139714
     9  C   -0.093663
    10  C    0.278723
    11  C   -0.321164
    12  C   -0.184594
    13  C   -0.235478
    14  C    0.589373
    15  O   -0.445879
    16  O   -0.497033
    17  N   -0.734283
    18  C    0.344027
    19  C    0.022550
    20  C   -0.012860
    21  C    0.298491
    22  C   -0.393476
    23  C   -0.044620
    24  C   -0.245150
    25  N   -0.688782
    26  C    0.290513
    27  C    0.075620
    28  C    0.040953
    29  C    0.282018
    30  C   -0.407397
    31  C   -0.259683
    32  C   -0.308387
    33  N   -0.697620
    34  C    0.258808
    35  C    0.066347
    36  C    0.030223
    37  C    0.254870
    38  C   -0.387433
    39  C    0.343233
    40  O   -0.452321
    41  C   -0.383232
    42  C    0.611080
    43  O   -0.506172
    44  O   -0.401544
    45  C   -0.110782
    46  C    0.044618
    47  C   -0.145830
    48  C    0.133543
    49  C   -0.372503
    50  C   -0.233362
    51  C   -0.178733
    52  C   -0.178448
    53  C   -0.060859
    54  C   -0.308863
    55  C   -0.150882
    56  C   -0.181952
    57  C   -0.139863
    58  C   -0.054778
    59  C   -0.328405
    60  C   -0.154947
    61  C   -0.207755
    62  C   -0.158935
    63  C   -0.037436
    64  C   -0.329806
    65  C   -0.306187
    66  H    0.083182
    67  H    0.079440
    68  H    0.081075
    69  H    0.127123
    70  H    0.099736
    71  H    0.111076
    72  H    0.094620
    73  H    0.121460
    74  H    0.115629
    75  H    0.094747
    76  H    0.118186
    77  H    0.143558
    78  H    0.133053
    79  H    0.128611
    80  H    0.103232
    81  H    0.072101
    82  H    0.098846
    83  H    0.087632
    84  H    0.129400
    85  H    0.118062
    86  H    0.090056
    87  H    0.111880
    88  H    0.077843
    89  H    0.115877
    90  H    0.095255
    91  H    0.123469
    92  H    0.118424
    93  H    0.149564
    94  H    0.132529
    95  H    0.141682
    96  H    0.131528
    97  H    0.158725
    98  H    0.135300
    99  H    0.130873
   100  H    0.094708
   101  H    0.086457
   102  H    0.099283
   103  H    0.111089
   104  H    0.134229
   105  H    0.108732
   106  H    0.091675
   107  H    0.089953
   108  H    0.106197
   109  H    0.084886
   110  H    0.079655
   111  H    0.059962
   112  H    0.114568
   113  H    0.101988
   114  H    0.092391
   115  H    0.078361
   116  H    0.068552
   117  H    0.083828
   118  H    0.061245
   119  H    0.096606
   120  H    0.096772
   121  H    0.077770
   122  H    0.124811
   123  H    0.059330
   124  H    0.120124
   125  H    0.096153
   126  H    0.096372
   127  H    0.085304
   128  H    0.090381
   129  H    0.091845
   130  H    0.071343
   131  H    0.085084
   132  H    0.086915
   133  H    0.086223
   134  H    0.115890
   135  H    0.077326
   136  H    0.111476
   137  H    0.102243
 Sum of Mulliken charges =  -0.00000

 Dipole moment (field-independent basis, Debye):
    X=              1.1561    Y=              3.2230    Z=              0.3227  Tot=              3.4392
 Quadrupole moment (field-independent basis, Debye-Ang):
   XX=           -344.8029   YY=           -385.1505   ZZ=           -397.7571
   XY=            -14.5005   XZ=             10.2477   YZ=             -5.5895

 Normal termination of Gaussian 16 at Sun Sep 22 15:58:04 2019.
