 Gaussian 16, Revision A.03,
 Gaussian 16:  ES64L-G16RevA.03 25-Dec-2016

 ----------------------------------------------------------------------
 # td=(NStates=1) iop(3/107=0140000000,3/108=0140000000) CAM-B3LYP/6-31
 G(d,p)
 ----------------------------------------------------------------------

 --
 TD
 --
 Symbolic Z-matrix:
 Charge =  0 Multiplicity = 1

                         Standard orientation:
 ---------------------------------------------------------------------
 Center     Atomic      Atomic             Coordinates (Angstroms)
 Number     Number       Type             X           Y           Z
 ---------------------------------------------------------------------
      1         12           0       -7.103097    0.641625   -0.026392
      2          6           0       -4.936667   -1.999730    0.519418
      3          6           0       -4.875540    2.834726    1.142952
      4          6           0       -9.319130    3.078963   -0.406568
      5          6           0       -9.558095   -1.679683   -0.914488
      6          7           0       -5.187586    0.384158    0.640143
      7          6           0       -4.395576   -0.779916    0.875279
      8          6           0       -2.901010   -0.378831    1.209834
      9          6           0       -3.169677    1.070712    1.595597
     10          6           0       -4.431587    1.500276    1.087595
     11          6           0       -2.962429    1.277073    3.220321
     12          6           0       -1.914408   -0.778027    0.056474
     13          6           0       -0.476722   -0.400848    0.536735
     14          6           0        0.562861   -0.679667   -0.616921
     15          8           0        0.178856   -0.987287   -1.702241
     16          8           0        1.779506   -0.420927   -0.292420
     17          7           0       -7.110899    2.568904    0.311227
     18          6           0       -6.030304    3.241547    0.795674
     19          6           0       -6.364998    4.716869    0.930384
     20          6           0       -7.636619    4.786890    0.338269
     21          6           0       -8.029070    3.507287    0.017197
     22          6           0       -5.508313    5.811637    1.319855
     23          6           0       -8.521667    6.012350    0.275118
     24          6           0       -8.343265    7.268355    0.821165
     25          7           0       -9.073848    0.686272   -0.668290
     26          6           0       -9.828381    1.817660   -0.786515
     27          6           0      -11.156352    1.545832   -1.163914
     28          6           0      -11.276060    0.176197   -1.257621
     29          6           0       -9.905194   -0.380174   -0.933638
     30          6           0      -12.230607    2.653209   -1.376006
     31          6           0      -12.470320   -0.649812   -1.813297
     32          6           0      -12.380156   -1.206263   -3.181248
     33          7           0       -7.289081   -1.404134   -0.124139
     34          6           0       -8.293661   -2.210776   -0.593770
     35          6           0       -7.881962   -3.648455   -0.361001
     36          6           0       -6.530617   -3.508436    0.003485
     37          6           0       -6.212168   -2.138015    0.066682
     38          6           0       -8.728235   -4.818303   -0.529876
     39          6           0       -5.375073   -4.333094    0.241538
     40          8           0       -5.282786   -5.600154    0.300947
     41          6           0       -4.163569   -3.307722    0.537816
     42          6           0       -3.594817   -3.774191    1.908115
     43          8           0       -3.832789   -3.072978    2.913942
     44          8           0       -2.811162   -4.846425    1.828261
     45          6           0       -2.182813   -5.137206    3.117923
     46          6           0        2.766237   -0.521022   -1.333200
     47          6           0        4.061997   -0.396724   -0.731786
     48          6           0        5.058956    0.391254   -1.054565
     49          6           0        5.112652    1.105982   -2.352751
     50          6           0        6.468669    0.403774   -0.275602
     51          6           0        7.680488   -0.229543   -1.055963
     52          6           0        8.945232   -0.185756   -0.242267
     53          6           0       10.242820   -0.533557   -0.980530
     54          6           0       10.157044   -1.938837   -1.500818
     55          6           0       11.422948   -0.382738   -0.046760
     56          6           0       12.809604   -0.480132   -0.782734
     57          6           0       13.992506   -0.109862    0.184958
     58          6           0       15.375757   -0.192367   -0.456824
     59          6           0       15.660403   -1.591261   -0.946273
     60          6           0       16.433299    0.331556    0.474459
     61          6           0       17.882345    0.530163   -0.105220
     62          6           0       18.881705    1.230614    0.804102
     63          6           0       20.373858    1.289641    0.296647
     64          6           0       20.487493    2.194307   -0.884291
     65          6           0       21.278914    1.823085    1.491753
     66          1           0       -4.208601    3.469030    1.946470
     67          1           0       -9.982509    4.078187   -0.648053
     68          1           0      -10.164330   -2.502725   -1.441131
     69          1           0       -2.572383   -1.170505    2.047567
     70          1           0       -2.397761    1.744512    1.279233
     71          1           0       -1.827744    1.150304    3.464870
     72          1           0       -3.159768    2.352460    3.348587
     73          1           0       -3.580358    0.646397    3.705615
     74          1           0       -1.854465   -1.776686   -0.488259
     75          1           0       -2.177579   -0.084720   -0.832012
     76          1           0       -0.201728    0.737191    1.075173
     77          1           0       -0.129992   -0.872810    1.402595
     78          1           0       -5.667546    6.665982    0.828877
     79          1           0       -5.738386    6.104085    2.466305
     80          1           0       -4.459757    5.467707    1.239776
     81          1           0       -9.321520    6.212231   -0.402380
     82          1           0       -9.118447    7.994405    0.655468
     83          1           0       -7.380047    7.666659    1.381604
     84          1           0      -12.062047    3.161386   -2.420298
     85          1           0      -13.165684    2.021223   -1.339622
     86          1           0      -12.277112    3.392483   -0.515096
     87          1           0      -12.285757   -1.722760   -1.177240
     88          1           0      -13.398039    0.010969   -1.501865
     89          1           0      -13.061623   -2.283163   -3.271191
     90          1           0      -12.591156   -0.355728   -3.906357
     91          1           0      -11.421302   -1.707581   -3.303860
     92          1           0       -9.000666   -4.994660   -1.579669
     93          1           0       -8.081266   -5.755317   -0.332046
     94          1           0       -9.737727   -4.863426   -0.054467
     95          1           0       -3.317416   -3.346568   -0.128656
     96          1           0       -1.634425   -4.239941    3.415179
     97          1           0       -2.952524   -5.350345    3.774307
     98          1           0       -1.639115   -6.071359    2.811564
     99          1           0        2.698102   -1.605267   -1.834880
    100          1           0        2.579887    0.271731   -2.212135
    101          1           0        4.210696   -1.093750    0.112845
    102          1           0        4.045525    1.301819   -2.813226
    103          1           0        5.460027    2.223912   -2.150695
    104          1           0        5.793491    0.610320   -3.013728
    105          1           0        6.445368    1.611693   -0.032276
    106          1           0        6.471247   -0.375095    0.541298
    107          1           0        7.140814   -1.120450   -1.390819
    108          1           0        7.790867    0.253413   -1.872846
    109          1           0        8.911856    0.704063    0.498682
    110          1           0        8.803379   -1.017550    0.598513
    111          1           0       10.370797    0.039343   -1.829943
    112          1           0        9.317551   -2.061225   -2.230464
    113          1           0       11.042685   -2.090322   -2.129764
    114          1           0       10.048229   -2.624284   -0.704638
    115          1           0       11.244504    0.683763    0.328124
    116          1           0       11.297349   -1.027168    0.830491
    117          1           0       12.895193   -1.458865   -1.191174
    118          1           0       12.748864    0.016613   -1.756646
    119          1           0       13.855900    0.929769    0.673966
    120          1           0       13.909172   -0.804895    0.998838
    121          1           0       15.375302    0.738321   -1.344641
    122          1           0       15.612454   -2.439083   -0.028671
    123          1           0       14.978376   -1.855118   -1.881136
    124          1           0       16.726017   -1.598475   -1.346582
    125          1           0       16.092618    1.318810    1.133163
    126          1           0       16.480068   -0.327547    1.384100
    127          1           0       18.142882   -0.272280   -0.408440
    128          1           0       17.846545    1.031138   -1.112699
    129          1           0       18.457560    2.211074    0.961314
    130          1           0       18.853405    0.899325    1.861074
    131          1           0       20.428291    0.291092   -0.026984
    132          1           0       19.955547    3.126363   -0.715704
    133          1           0       21.509767    2.573768   -1.165783
    134          1           0       19.743071    1.662107   -1.658501
    135          1           0       21.601131    1.129153    2.481773
    136          1           0       22.240392    2.207152    0.872124
    137          1           0       20.633587    2.861906    1.781888
 ---------------------------------------------------------------------

 SCF Done:  E(RCAM-B3LYP) =  -2933.42845232     A.U. after   16 cycles

 Excitation energies and oscillator strengths:

 Excited State   1:      Singlet-A      1.9923 eV  622.32 nm  f=0.2534  <S**2>=0.000
     240 -> 243        0.22194
     241 -> 242        0.66742
 This state for optimization and/or second-order correction.
 Total Energy, E(TD-HF/TD-DFT) =  -2933.35523685
 Copying the excited state density for this state as the 1-particle RhoCI density.

 The electronic state is 1-A.
 Alpha  occ. eigenvalues --  -46.78729 -19.23154 -19.22886 -19.16091 -19.15994
 Alpha  occ. eigenvalues --  -19.15144 -14.37927 -14.34862 -14.34711 -14.34566
 Alpha  occ. eigenvalues --  -10.34505 -10.34087 -10.29879 -10.29279 -10.26981
 Alpha  occ. eigenvalues --  -10.26439 -10.25878 -10.24739 -10.24514 -10.24511
 Alpha  occ. eigenvalues --  -10.24473 -10.24457 -10.24454 -10.24211 -10.24181
 Alpha  occ. eigenvalues --  -10.24100 -10.24022 -10.24002 -10.23789 -10.23759
 Alpha  occ. eigenvalues --  -10.23507 -10.23395 -10.23281 -10.23260 -10.23249
 Alpha  occ. eigenvalues --  -10.23233 -10.23161 -10.23069 -10.23002 -10.22842
 Alpha  occ. eigenvalues --  -10.22838 -10.22687 -10.22587 -10.22564 -10.22471
 Alpha  occ. eigenvalues --  -10.22389 -10.22288 -10.22219 -10.22030 -10.21934
 Alpha  occ. eigenvalues --  -10.21892 -10.21823 -10.21654 -10.21556 -10.21437
 Alpha  occ. eigenvalues --  -10.21179 -10.21169 -10.21169 -10.21071 -10.20858
 Alpha  occ. eigenvalues --  -10.20465 -10.20375 -10.20338 -10.19859 -10.19423
 Alpha  occ. eigenvalues --   -3.07596  -1.82519  -1.82051  -1.82042  -1.15908
 Alpha  occ. eigenvalues --   -1.13038  -1.05634  -1.02953  -1.02122  -0.99614
 Alpha  occ. eigenvalues --   -0.99118  -0.97270  -0.96470  -0.87550  -0.86758
 Alpha  occ. eigenvalues --   -0.85879  -0.85182  -0.84483  -0.83924  -0.83605
 Alpha  occ. eigenvalues --   -0.83488  -0.82432  -0.82362  -0.81832  -0.81408
 Alpha  occ. eigenvalues --   -0.80188  -0.79014  -0.78507  -0.78371  -0.77705
 Alpha  occ. eigenvalues --   -0.77303  -0.76464  -0.75760  -0.75479  -0.74094
 Alpha  occ. eigenvalues --   -0.72980  -0.72209  -0.71386  -0.70885  -0.70433
 Alpha  occ. eigenvalues --   -0.70301  -0.69786  -0.69275  -0.68615  -0.67804
 Alpha  occ. eigenvalues --   -0.67355  -0.66120  -0.65119  -0.63678  -0.63544
 Alpha  occ. eigenvalues --   -0.63226  -0.62025  -0.61859  -0.60722  -0.60158
 Alpha  occ. eigenvalues --   -0.59941  -0.59808  -0.59668  -0.59180  -0.57657
 Alpha  occ. eigenvalues --   -0.56842  -0.56760  -0.56295  -0.55557  -0.54914
 Alpha  occ. eigenvalues --   -0.54004  -0.53927  -0.53513  -0.53133  -0.52676
 Alpha  occ. eigenvalues --   -0.52317  -0.51556  -0.51266  -0.50871  -0.50728
 Alpha  occ. eigenvalues --   -0.50402  -0.49956  -0.49700  -0.49354  -0.48964
 Alpha  occ. eigenvalues --   -0.48396  -0.48185  -0.48140  -0.48040  -0.47956
 Alpha  occ. eigenvalues --   -0.47787  -0.47551  -0.46834  -0.46791  -0.46763
 Alpha  occ. eigenvalues --   -0.46650  -0.46308  -0.46137  -0.46088  -0.45929
 Alpha  occ. eigenvalues --   -0.45426  -0.45181  -0.45084  -0.44826  -0.44737
 Alpha  occ. eigenvalues --   -0.44353  -0.43858  -0.43754  -0.43524  -0.43376
 Alpha  occ. eigenvalues --   -0.42976  -0.42899  -0.42797  -0.42452  -0.42307
 Alpha  occ. eigenvalues --   -0.42160  -0.42013  -0.41849  -0.41570  -0.41523
 Alpha  occ. eigenvalues --   -0.41407  -0.41003  -0.40914  -0.40764  -0.40382
 Alpha  occ. eigenvalues --   -0.40300  -0.40036  -0.39885  -0.39714  -0.39610
 Alpha  occ. eigenvalues --   -0.39470  -0.39188  -0.39098  -0.38998  -0.38862
 Alpha  occ. eigenvalues --   -0.38656  -0.38215  -0.38144  -0.37982  -0.37910
 Alpha  occ. eigenvalues --   -0.37780  -0.37469  -0.37376  -0.37281  -0.37069
 Alpha  occ. eigenvalues --   -0.36875  -0.36756  -0.36661  -0.36016  -0.35918
 Alpha  occ. eigenvalues --   -0.35563  -0.35429  -0.35248  -0.34800  -0.34485
 Alpha  occ. eigenvalues --   -0.34239  -0.34043  -0.33904  -0.33605  -0.33480
 Alpha  occ. eigenvalues --   -0.33465  -0.33109  -0.33003  -0.32843  -0.32778
 Alpha  occ. eigenvalues --   -0.32617  -0.32216  -0.31897  -0.31314  -0.30361
 Alpha  occ. eigenvalues --   -0.30018  -0.29738  -0.29276  -0.27970  -0.27549
 Alpha  occ. eigenvalues --   -0.26254  -0.25764  -0.25656  -0.24933  -0.21585
 Alpha  occ. eigenvalues --   -0.19364
 Alpha virt. eigenvalues --   -0.06667  -0.03640  -0.00492   0.01545   0.03854
 Alpha virt. eigenvalues --    0.04272   0.04411   0.04650   0.04982   0.05754
 Alpha virt. eigenvalues --    0.06361   0.07665   0.08680   0.09263   0.09286

 Mulliken charges:
               1
     1  Mg   0.812846
     2  C    0.056054
     3  C   -0.226351
     4  C   -0.197638
     5  C   -0.193482
     6  N   -0.647981
     7  C    0.268139
     8  C   -0.126112
     9  C   -0.186739
    10  C    0.370693
    11  C   -0.304479
    12  C   -0.174938
    13  C   -0.264227
    14  C    0.595173
    15  O   -0.467284
    16  O   -0.423237
    17  N   -0.740607
    18  C    0.379253
    19  C    0.030319
    20  C    0.016401
    21  C    0.320123
    22  C   -0.381608
    23  C   -0.077135
    24  C   -0.258337
    25  N   -0.683048
    26  C    0.325491
    27  C    0.033093
    28  C    0.001484
    29  C    0.320459
    30  C   -0.359217
    31  C   -0.212410
    32  C   -0.277136
    33  N   -0.708467
    34  C    0.225239
    35  C    0.054672
    36  C    0.026782
    37  C    0.374405
    38  C   -0.421174
    39  C    0.341940
    40  O   -0.501769
    41  C   -0.318808
    42  C    0.618111
    43  O   -0.494825
    44  O   -0.432636
    45  C   -0.091071
    46  C   -0.000076
    47  C   -0.100517
    48  C    0.094481
    49  C   -0.354418
    50  C   -0.220585
    51  C   -0.169939
    52  C   -0.171575
    53  C   -0.065880
    54  C   -0.303521
    55  C   -0.162267
    56  C   -0.198463
    57  C   -0.157721
    58  C   -0.027036
    59  C   -0.294589
    60  C   -0.174412
    61  C   -0.159819
    62  C   -0.187166
    63  C   -0.049036
    64  C   -0.302163
    65  C   -0.283868
    66  H    0.083944
    67  H    0.063364
    68  H    0.084061
    69  H    0.112893
    70  H    0.113452
    71  H    0.099131
    72  H    0.103521
    73  H    0.148645
    74  H    0.135451
    75  H    0.114667
    76  H    0.089073
    77  H    0.132504
    78  H    0.140192
    79  H    0.104227
    80  H    0.112961
    81  H    0.098836
    82  H    0.102362
    83  H    0.084349
    84  H    0.118301
    85  H    0.103561
    86  H    0.124561
    87  H    0.071751
    88  H    0.093036
    89  H    0.073930
    90  H    0.108131
    91  H    0.121602
    92  H    0.127413
    93  H    0.144099
    94  H    0.128513
    95  H    0.148036
    96  H    0.134622
    97  H    0.153794
    98  H    0.129497
    99  H    0.117333
   100  H    0.107227
   101  H    0.085246
   102  H    0.097003
   103  H    0.091528
   104  H    0.137415
   105  H    0.082456
   106  H    0.098871
   107  H    0.103684
   108  H    0.106244
   109  H    0.093183
   110  H    0.064437
   111  H    0.091159
   112  H    0.092581
   113  H    0.096301
   114  H    0.106788
   115  H    0.080031
   116  H    0.089140
   117  H    0.103383
   118  H    0.087648
   119  H    0.082221
   120  H    0.095020
   121  H    0.048871
   122  H    0.085743
   123  H    0.098771
   124  H    0.100473
   125  H    0.056890
   126  H    0.081278
   127  H    0.101250
   128  H    0.075422
   129  H    0.091005
   130  H    0.087080
   131  H    0.100576
   132  H    0.107243
   133  H    0.101709
   134  H    0.084686
   135  H    0.092585
   136  H    0.081633
   137  H    0.080013
 Sum of Mulliken charges =  -0.00000

 Dipole moment (field-independent basis, Debye):
    X=              4.6643    Y=              3.8607    Z=             -0.0741  Tot=              6.0553
 Quadrupole moment (field-independent basis, Debye-Ang):
   XX=           -373.2158   YY=           -396.2559   ZZ=           -395.8398
   XY=            -31.5316   XZ=              9.0745   YZ=             -2.3385

 Normal termination of Gaussian 16 at Tue Sep 17 03:31:39 2019.
