 Gaussian 09, Revision D.01,
 Gaussian 09:  ES64L-G09RevD.01 24-Apr-2013

 -------------------------------------
 # td=(NStates=1) CAM-B3LYP/6-31G(d,p)
 -------------------------------------

 --
 TD
 --
 Symbolic Z-matrix:
 Charge =  0 Multiplicity = 1

                         Standard orientation:
 ---------------------------------------------------------------------
 Center     Atomic      Atomic             Coordinates (Angstroms)
 Number     Number       Type             X           Y           Z
 ---------------------------------------------------------------------
      1         12           0       -7.114028    0.595736   -0.003031
      2          6           0       -4.858806   -1.945553    0.442148
      3          6           0       -4.823502    2.879346    1.051673
      4          6           0       -9.467214    2.972344   -0.269390
      5          6           0       -9.505812   -1.767369   -0.805973
      6          7           0       -5.143755    0.468135    0.720110
      7          6           0       -4.333001   -0.655075    0.796740
      8          6           0       -2.884632   -0.292762    1.127669
      9          6           0       -3.042309    1.211961    1.721111
     10          6           0       -4.411016    1.586071    1.182191
     11          6           0       -2.839104    1.441192    3.157973
     12          6           0       -1.889207   -0.544463    0.042882
     13          6           0       -0.492914   -0.382268    0.409464
     14          6           0        0.543900   -0.726848   -0.632654
     15          8           0        0.276250   -1.088430   -1.808466
     16          8           0        1.831805   -0.614192   -0.214967
     17          7           0       -7.103286    2.652613    0.208472
     18          6           0       -6.028778    3.414486    0.607380
     19          6           0       -6.513005    4.770332    0.640862
     20          6           0       -7.820854    4.848659    0.319160
     21          6           0       -8.215004    3.399916    0.060928
     22          6           0       -5.558748    5.781599    0.937411
     23          6           0       -8.690478    6.029399    0.217305
     24          6           0       -8.546343    7.162857    0.884001
     25          7           0       -9.197720    0.614193   -0.471462
     26          6           0       -9.896310    1.722674   -0.678685
     27          6           0      -11.300158    1.359461   -1.038180
     28          6           0      -11.206060   -0.015522   -1.145634
     29          6           0       -9.992404   -0.471378   -0.846954
     30          6           0      -12.299981    2.368972   -1.334416
     31          6           0      -12.392599   -0.941614   -1.585491
     32          6           0      -12.378604   -1.118157   -3.089449
     33          7           0       -7.268948   -1.472935   -0.176187
     34          6           0       -8.354553   -2.262588   -0.495427
     35          6           0       -7.794344   -3.686430   -0.436161
     36          6           0       -6.344279   -3.562095   -0.161375
     37          6           0       -6.152707   -2.194944    0.084326
     38          6           0       -8.548270   -4.857954   -0.875820
     39          6           0       -5.278553   -4.327636    0.121222
     40          8           0       -5.121158   -5.568699    0.263181
     41          6           0       -4.163357   -3.301064    0.529548
     42          6           0       -3.610705   -3.589382    1.981421
     43          8           0       -3.870192   -2.979693    3.010351
     44          8           0       -2.709290   -4.630501    1.954608
     45          6           0       -2.156416   -5.021060    3.178051
     46          6           0        2.809566   -0.734903   -1.232041
     47          6           0        4.191225   -0.420773   -0.587739
     48          6           0        5.182100    0.399924   -1.062905
     49          6           0        5.237470    1.202688   -2.319877
     50          6           0        6.438543    0.474657   -0.243731
     51          6           0        7.706372    0.041066   -1.165515
     52          6           0        8.946998   -0.046163   -0.167774
     53          6           0       10.221343   -0.509154   -0.875681
     54          6           0       10.138156   -2.030077   -1.385572
     55          6           0       11.442340   -0.274911    0.058582
     56          6           0       12.765839   -0.434531   -0.783428
     57          6           0       13.943981   -0.173433    0.191080
     58          6           0       15.340995   -0.350075   -0.544344
     59          6           0       15.621259   -1.802108   -0.705748
     60          6           0       16.415048    0.373906    0.381762
     61          6           0       17.828835    0.507761   -0.180412
     62          6           0       18.863659    1.231413    0.797377
     63          6           0       20.278146    1.355779    0.306926
     64          6           0       20.362951    2.268967   -0.908096
     65          6           0       21.075114    1.848159    1.440293
     66          1           0       -4.139642    3.656607    1.171867
     67          1           0      -10.279510    3.754646   -0.515502
     68          1           0      -10.226435   -2.453845   -1.174300
     69          1           0       -2.553935   -0.975960    1.975552
     70          1           0       -2.347938    1.827656    1.102106
     71          1           0       -1.769726    1.158279    3.252756
     72          1           0       -3.401614    2.367521    3.523068
     73          1           0       -3.561929    0.707874    3.684955
     74          1           0       -1.956253   -1.532707   -0.368803
     75          1           0       -2.225802    0.143726   -0.745228
     76          1           0       -0.262970    0.604720    0.798891
     77          1           0       -0.179790   -0.982150    1.364093
     78          1           0       -5.786634    6.692315    0.412002
     79          1           0       -5.514032    6.081524    1.914856
     80          1           0       -4.489096    5.666842    1.012601
     81          1           0       -9.615237    5.968539   -0.530023
     82          1           0       -9.183034    8.100043    0.530506
     83          1           0       -7.529542    7.221962    1.475364
     84          1           0      -12.245961    2.977276   -2.142445
     85          1           0      -13.342693    1.818753   -1.579034
     86          1           0      -12.203302    3.117246   -0.619086
     87          1           0      -12.379488   -1.903417   -1.120787
     88          1           0      -13.324224   -0.523724   -1.288664
     89          1           0      -13.296562   -1.707481   -3.421235
     90          1           0      -12.349513   -0.125435   -3.526226
     91          1           0      -11.413840   -1.572020   -3.369303
     92          1           0       -8.957523   -4.840256   -1.883992
     93          1           0       -7.938502   -5.798174   -0.736422
     94          1           0       -9.523528   -4.962899   -0.510656
     95          1           0       -3.347653   -3.450611   -0.146352
     96          1           0       -1.616457   -4.003860    3.750912
     97          1           0       -3.053100   -5.218017    3.848268
     98          1           0       -1.352732   -5.858772    2.907767
     99          1           0        2.731121   -1.745715   -1.597125
    100          1           0        2.537938   -0.160744   -2.128367
    101          1           0        4.375699   -0.873159    0.348742
    102          1           0        4.252866    1.278227   -2.689321
    103          1           0        5.526285    2.286030   -2.043438
    104          1           0        5.771201    0.853099   -3.095485
    105          1           0        6.685891    1.525558    0.120334
    106          1           0        6.406284   -0.176119    0.671296
    107          1           0        7.285617   -0.966671   -1.626561
    108          1           0        7.708290    0.865932   -2.038021
    109          1           0        9.157737    0.893538    0.245970
    110          1           0        8.767250   -0.841173    0.502490
    111          1           0       10.375695    0.175641   -1.654761
    112          1           0        9.308215   -1.969636   -2.182723
    113          1           0       11.163023   -2.160251   -1.959684
    114          1           0       10.097856   -2.790999   -0.662337
    115          1           0       11.450176    0.690886    0.570349
    116          1           0       11.860020   -1.109788    0.898864
    117          1           0       12.863190   -1.584817   -1.291369
    118          1           0       12.803886    0.131152   -1.717150
    119          1           0       13.709740    1.020049    0.558331
    120          1           0       13.925725   -0.736638    1.162534
    121          1           0       15.181171    0.278174   -1.545425
    122          1           0       15.955022   -2.174496    0.214474
    123          1           0       14.822556   -2.343610   -1.309107
    124          1           0       16.606267   -2.005537   -1.447736
    125          1           0       16.073087    1.458898    0.522725
    126          1           0       16.462195   -0.138173    1.424689
    127          1           0       18.110813   -0.554828   -0.180475
    128          1           0       17.751593    1.031078   -1.260258
    129          1           0       18.489393    2.132383    1.262085
    130          1           0       18.873242    0.469009    1.615201
    131          1           0       20.666567    0.373335   -0.111985
    132          1           0       20.273710    3.381525   -0.754190
    133          1           0       21.326180    2.097791   -1.407673
    134          1           0       19.830203    2.187731   -1.843236
    135          1           0       21.036275    1.200791    2.277420
    136          1           0       22.130408    2.144122    1.066906
    137          1           0       20.737908    2.690625    1.802594
 ---------------------------------------------------------------------

 SCF Done:  E(RCAM-B3LYP) =  -2932.70739513     A.U. after   18 cycles

 Excitation energies and oscillator strengths:

 Excited State   1:      Singlet-A      2.0534 eV  603.79 nm  f=0.2125  <S**2>=0.000
     240 -> 243       -0.28016
     241 -> 242        0.64165
 This state for optimization and/or second-order correction.
 Total Energy, E(TD-HF/TD-KS) =  -2932.63193269
 Copying the excited state density for this state as the 1-particle RhoCI density.

 The electronic state is 1-A.
 Alpha  occ. eigenvalues --  -46.84968 -19.26768 -19.25864 -19.21443 -19.20945
 Alpha  occ. eigenvalues --  -19.19159 -14.42488 -14.39741 -14.39032 -14.38368
 Alpha  occ. eigenvalues --  -10.40096 -10.39769 -10.33843 -10.33327 -10.32201
 Alpha  occ. eigenvalues --  -10.31757 -10.31447 -10.30977 -10.30008 -10.29585
 Alpha  occ. eigenvalues --  -10.29135 -10.29025 -10.28814 -10.28634 -10.28469
 Alpha  occ. eigenvalues --  -10.28431 -10.28273 -10.27948 -10.27855 -10.27608
 Alpha  occ. eigenvalues --  -10.27588 -10.27451 -10.27388 -10.27366 -10.27324
 Alpha  occ. eigenvalues --  -10.27189 -10.26976 -10.26942 -10.26700 -10.26654
 Alpha  occ. eigenvalues --  -10.26518 -10.26495 -10.26347 -10.26281 -10.26211
 Alpha  occ. eigenvalues --  -10.25964 -10.25886 -10.25884 -10.25872 -10.25845
 Alpha  occ. eigenvalues --  -10.25828 -10.25694 -10.25686 -10.25677 -10.25506
 Alpha  occ. eigenvalues --  -10.25413 -10.25353 -10.25235 -10.25108 -10.25079
 Alpha  occ. eigenvalues --  -10.24862 -10.24798 -10.24720 -10.23929 -10.23003
 Alpha  occ. eigenvalues --   -3.13785  -1.88515  -1.88025  -1.87933  -1.18200
 Alpha  occ. eigenvalues --   -1.17572  -1.08947  -1.08042  -1.07608  -1.04377
 Alpha  occ. eigenvalues --   -1.03603  -1.03168  -1.02135  -0.93891  -0.91661
 Alpha  occ. eigenvalues --   -0.90552  -0.90407  -0.90177  -0.89600  -0.89336
 Alpha  occ. eigenvalues --   -0.88938  -0.88031  -0.87964  -0.87595  -0.86767
 Alpha  occ. eigenvalues --   -0.85128  -0.84535  -0.83987  -0.83573  -0.82990
 Alpha  occ. eigenvalues --   -0.81793  -0.81327  -0.80675  -0.79481  -0.79268
 Alpha  occ. eigenvalues --   -0.78988  -0.78329  -0.76826  -0.76436  -0.75888
 Alpha  occ. eigenvalues --   -0.75486  -0.74431  -0.74192  -0.73092  -0.72648
 Alpha  occ. eigenvalues --   -0.72113  -0.70853  -0.69439  -0.69019  -0.68058
 Alpha  occ. eigenvalues --   -0.66758  -0.65814  -0.65489  -0.64960  -0.64044
 Alpha  occ. eigenvalues --   -0.63879  -0.63806  -0.63499  -0.62694  -0.61980
 Alpha  occ. eigenvalues --   -0.61284  -0.61025  -0.60803  -0.60076  -0.59841
 Alpha  occ. eigenvalues --   -0.59592  -0.58767  -0.58182  -0.57196  -0.57146
 Alpha  occ. eigenvalues --   -0.56932  -0.56437  -0.55591  -0.55353  -0.54798
 Alpha  occ. eigenvalues --   -0.54472  -0.54387  -0.53836  -0.53540  -0.53154
 Alpha  occ. eigenvalues --   -0.52746  -0.52441  -0.52232  -0.51827  -0.51761
 Alpha  occ. eigenvalues --   -0.51604  -0.51278  -0.51148  -0.50900  -0.50749
 Alpha  occ. eigenvalues --   -0.50670  -0.50277  -0.50144  -0.49926  -0.49814
 Alpha  occ. eigenvalues --   -0.49578  -0.49293  -0.48847  -0.48696  -0.48611
 Alpha  occ. eigenvalues --   -0.48334  -0.48136  -0.47821  -0.47693  -0.47551
 Alpha  occ. eigenvalues --   -0.47297  -0.47118  -0.47012  -0.46780  -0.46007
 Alpha  occ. eigenvalues --   -0.45874  -0.45470  -0.45088  -0.44982  -0.44903
 Alpha  occ. eigenvalues --   -0.44754  -0.44634  -0.44540  -0.44448  -0.44196
 Alpha  occ. eigenvalues --   -0.43893  -0.43808  -0.43685  -0.43675  -0.43349
 Alpha  occ. eigenvalues --   -0.42939  -0.42897  -0.42674  -0.42324  -0.42257
 Alpha  occ. eigenvalues --   -0.42009  -0.41796  -0.41678  -0.41659  -0.41626
 Alpha  occ. eigenvalues --   -0.40715  -0.40537  -0.40294  -0.40227  -0.40016
 Alpha  occ. eigenvalues --   -0.39836  -0.39762  -0.39432  -0.39285  -0.39092
 Alpha  occ. eigenvalues --   -0.38947  -0.38637  -0.38281  -0.38177  -0.37842
 Alpha  occ. eigenvalues --   -0.37435  -0.37116  -0.36930  -0.36851  -0.36485
 Alpha  occ. eigenvalues --   -0.36397  -0.36294  -0.35820  -0.35732  -0.35446
 Alpha  occ. eigenvalues --   -0.35321  -0.34617  -0.34550  -0.33814  -0.33702
 Alpha  occ. eigenvalues --   -0.33153  -0.32738  -0.32481  -0.31571  -0.29727
 Alpha  occ. eigenvalues --   -0.29200  -0.28606  -0.28108  -0.27490  -0.23592
 Alpha  occ. eigenvalues --   -0.21437
 Alpha virt. eigenvalues --   -0.06559  -0.04187   0.00396   0.03922   0.04970
 Alpha virt. eigenvalues --    0.05384   0.05711   0.06203   0.06866   0.07127
 Alpha virt. eigenvalues --    0.08370   0.10443   0.11074   0.11383   0.11546

 Mulliken charges:
               1
     1  Mg   0.814433
     2  C    0.014594
     3  C   -0.179259
     4  C   -0.159094
     5  C   -0.188817
     6  N   -0.647187
     7  C    0.328576
     8  C   -0.174736
     9  C   -0.137874
    10  C    0.321446
    11  C   -0.300778
    12  C   -0.149998
    13  C   -0.274443
    14  C    0.614821
    15  O   -0.500534
    16  O   -0.470802
    17  N   -0.730420
    18  C    0.305840
    19  C    0.046749
    20  C    0.017928
    21  C    0.310347
    22  C   -0.430039
    23  C   -0.060214
    24  C   -0.252303
    25  N   -0.680739
    26  C    0.276181
    27  C    0.028007
    28  C   -0.017818
    29  C    0.323960
    30  C   -0.377623
    31  C   -0.230923
    32  C   -0.300139
    33  N   -0.769917
    34  C    0.340200
    35  C    0.036157
    36  C    0.060179
    37  C    0.361527
    38  C   -0.405422
    39  C    0.304040
    40  O   -0.497307
    41  C   -0.316739
    42  C    0.620006
    43  O   -0.470661
    44  O   -0.436772
    45  C   -0.065635
    46  C    0.014771
    47  C   -0.149389
    48  C    0.127155
    49  C   -0.366909
    50  C   -0.226440
    51  C   -0.199068
    52  C   -0.158913
    53  C   -0.067338
    54  C   -0.311059
    55  C   -0.166221
    56  C   -0.172357
    57  C   -0.156636
    58  C   -0.051193
    59  C   -0.292238
    60  C   -0.174961
    61  C   -0.172351
    62  C   -0.167370
    63  C   -0.040539
    64  C   -0.325093
    65  C   -0.299332
    66  H    0.073788
    67  H    0.076149
    68  H    0.080164
    69  H    0.114046
    70  H    0.105154
    71  H    0.117604
    72  H    0.121829
    73  H    0.122256
    74  H    0.133245
    75  H    0.118024
    76  H    0.139209
    77  H    0.128590
    78  H    0.126557
    79  H    0.135629
    80  H    0.117450
    81  H    0.086640
    82  H    0.104577
    83  H    0.094347
    84  H    0.137087
    85  H    0.097033
    86  H    0.124795
    87  H    0.100580
    88  H    0.104004
    89  H    0.094767
    90  H    0.110630
    91  H    0.104425
    92  H    0.135894
    93  H    0.152124
    94  H    0.132595
    95  H    0.160167
    96  H    0.078903
    97  H    0.136221
    98  H    0.124481
    99  H    0.129304
   100  H    0.123455
   101  H    0.094396
   102  H    0.112212
   103  H    0.107224
   104  H    0.139927
   105  H    0.090119
   106  H    0.093563
   107  H    0.094120
   108  H    0.084319
   109  H    0.098761
   110  H    0.108136
   111  H    0.095363
   112  H    0.100222
   113  H    0.087698
   114  H    0.119029
   115  H    0.093111
   116  H    0.066900
   117  H    0.055698
   118  H    0.095801
   119  H    0.052811
   120  H    0.092057
   121  H    0.072664
   122  H    0.115760
   123  H    0.107934
   124  H    0.069656
   125  H    0.081069
   126  H    0.071997
   127  H    0.093199
   128  H    0.075406
   129  H    0.091724
   130  H    0.078964
   131  H    0.083501
   132  H    0.089598
   133  H    0.092913
   134  H    0.105985
   135  H    0.104172
   136  H    0.082940
   137  H    0.116006
 Sum of Mulliken charges =   0.00000

 Dipole moment (field-independent basis, Debye):
    X=              1.7778    Y=              5.4620    Z=             -0.4051  Tot=              5.7583
 Quadrupole moment (field-independent basis, Debye-Ang):
   XX=           -357.1171   YY=           -396.3946   ZZ=           -399.2661
   XY=            -17.8203   XZ=             20.2177   YZ=             -1.0809

 Normal termination of Gaussian 09 at Sat Jul  6 20:59:48 2019.
