 Gaussian 16, Revision A.03,
 Gaussian 16:  ES64L-G16RevA.03 25-Dec-2016

 ----------------------------------------------------------------------
 # td=(NStates=1) iop(3/107=0140000000,3/108=0140000000) CAM-B3LYP/6-31
 G(d,p)
 ----------------------------------------------------------------------

 --
 TD
 --
 Symbolic Z-matrix:
 Charge =  0 Multiplicity = 1

                         Standard orientation:
 ---------------------------------------------------------------------
 Center     Atomic      Atomic             Coordinates (Angstroms)
 Number     Number       Type             X           Y           Z
 ---------------------------------------------------------------------
      1         12           0       -7.108500    0.643076    0.047730
      2          6           0       -4.861428   -1.969038    0.527169
      3          6           0       -4.796025    2.767930    1.345354
      4          6           0       -9.272646    3.196099   -0.385829
      5          6           0       -9.523397   -1.685068   -0.849456
      6          7           0       -5.077859    0.485630    0.675396
      7          6           0       -4.289984   -0.694179    0.780882
      8          6           0       -2.909759   -0.467561    1.358996
      9          6           0       -3.048064    0.993794    1.751016
     10          6           0       -4.413338    1.508670    1.284931
     11          6           0       -2.843736    1.207060    3.267610
     12          6           0       -1.821528   -0.773710    0.270256
     13          6           0       -0.355962   -0.601183    0.707928
     14          6           0        0.540457   -0.743202   -0.507153
     15          8           0        0.192781   -0.980685   -1.581581
     16          8           0        1.841447   -0.533900   -0.006165
     17          7           0       -6.988754    2.646486    0.370476
     18          6           0       -5.996152    3.385452    0.909463
     19          6           0       -6.276630    4.757922    0.843724
     20          6           0       -7.488261    4.886788    0.412767
     21          6           0       -8.033313    3.518830    0.031672
     22          6           0       -5.390254    5.821794    1.209603
     23          6           0       -8.333804    6.067869    0.180495
     24          6           0       -8.214333    7.283181    0.781510
     25          7           0       -9.033139    0.725050   -0.553365
     26          6           0       -9.632951    1.924612   -0.760754
     27          6           0      -11.068348    1.635315   -1.209609
     28          6           0      -11.160300    0.230915   -1.292118
     29          6           0       -9.823147   -0.272584   -0.952845
     30          6           0      -12.081245    2.676374   -1.411371
     31          6           0      -12.291125   -0.627939   -1.818488
     32          6           0      -12.191079   -1.079428   -3.339575
     33          7           0       -7.267447   -1.421911   -0.175006
     34          6           0       -8.326598   -2.179510   -0.562304
     35          6           0       -7.951117   -3.543633   -0.566480
     36          6           0       -6.598837   -3.549104   -0.177120
     37          6           0       -6.227369   -2.230036    0.057293
     38          6           0       -8.814586   -4.741185   -0.937006
     39          6           0       -5.420141   -4.365919    0.151139
     40          8           0       -5.368844   -5.610002    0.103335
     41          6           0       -4.190612   -3.356761    0.553981
     42          6           0       -3.701190   -3.759555    1.902208
     43          8           0       -3.902497   -3.209919    2.931462
     44          8           0       -3.045460   -4.938196    1.749994
     45          6           0       -2.597076   -5.470013    3.148917
     46          6           0        2.772108   -0.642436   -1.155092
     47          6           0        4.133080   -0.480080   -0.561435
     48          6           0        5.095393    0.345706   -1.010025
     49          6           0        5.028717    1.253106   -2.277927
     50          6           0        6.389751    0.378837   -0.173557
     51          6           0        7.699574   -0.096452   -0.996030
     52          6           0        8.913054   -0.013601   -0.243819
     53          6           0       10.200978   -0.518442   -0.959868
     54          6           0       10.079548   -1.911443   -1.520200
     55          6           0       11.448868   -0.349185   -0.075765
     56          6           0       12.773428   -0.494673   -0.780937
     57          6           0       13.931653   -0.155681    0.102742
     58          6           0       15.335326   -0.301790   -0.585602
     59          6           0       15.701111   -1.655903   -1.079062
     60          6           0       16.353800    0.247300    0.475669
     61          6           0       17.778720    0.455169   -0.127270
     62          6           0       18.663970    1.297975    0.807337
     63          6           0       20.168338    1.345432    0.347552
     64          6           0       20.339067    2.114471   -0.996009
     65          6           0       21.024054    1.989560    1.426272
     66          1           0       -3.930645    3.515793    1.729597
     67          1           0       -9.786123    4.019535   -0.921318
     68          1           0      -10.172722   -2.356025   -1.445359
     69          1           0       -2.795485   -1.183733    2.156271
     70          1           0       -2.269143    1.408499    1.261800
     71          1           0       -1.815650    0.972854    3.457741
     72          1           0       -3.084291    2.206710    3.499655
     73          1           0       -3.570499    0.597577    3.606128
     74          1           0       -2.002684   -1.763804   -0.138336
     75          1           0       -2.011970   -0.109155   -0.693649
     76          1           0       -0.120697    0.401803    1.079398
     77          1           0       -0.099316   -1.136881    1.564421
     78          1           0       -5.369219    6.738553    0.347256
     79          1           0       -5.327656    6.235188    2.138917
     80          1           0       -4.306594    5.488700    0.973007
     81          1           0       -9.096315    5.980658   -0.662615
     82          1           0       -8.744734    8.278118    0.273392
     83          1           0       -7.646258    7.668367    1.833754
     84          1           0      -11.903884    3.269504   -2.303631
     85          1           0      -13.150584    2.326021   -1.506097
     86          1           0      -12.470439    3.242834   -0.438142
     87          1           0      -12.578232   -1.581168   -1.354002
     88          1           0      -13.256607    0.036150   -1.814393
     89          1           0      -13.036501   -1.804933   -3.575697
     90          1           0      -12.158116   -0.212885   -4.029446
     91          1           0      -11.310816   -1.768898   -3.565876
     92          1           0       -8.909267   -4.573196   -1.939848
     93          1           0       -8.354906   -5.728327   -0.751969
     94          1           0       -9.639184   -4.739769   -0.487229
     95          1           0       -3.349199   -3.575599   -0.309994
     96          1           0       -1.818626   -4.983872    3.430989
     97          1           0       -3.499691   -5.588324    3.838362
     98          1           0       -2.256924   -6.355801    2.869770
     99          1           0        2.612189   -1.584368   -1.651280
    100          1           0        2.702273    0.164210   -1.938499
    101          1           0        4.202050   -1.020677    0.315353
    102          1           0        4.009891    1.288235   -2.811972
    103          1           0        5.255691    2.248115   -2.104461
    104          1           0        5.740903    0.876206   -3.179967
    105          1           0        6.487447    1.529141    0.176621
    106          1           0        6.272431   -0.118234    0.781073
    107          1           0        7.567441   -1.025765   -1.611696
    108          1           0        7.657289    0.744690   -1.951834
    109          1           0        8.946056    0.991322    0.112989
    110          1           0        8.810206   -0.467845    0.718564
    111          1           0       10.460128    0.109091   -1.807418
    112          1           0        9.121641   -2.293172   -2.125534
    113          1           0       10.864007   -2.357803   -2.154978
    114          1           0       10.149375   -2.497974   -0.423577
    115          1           0       11.457391    0.579350    0.373201
    116          1           0       11.375890   -0.984305    0.683685
    117          1           0       12.847723   -1.546039   -1.187451
    118          1           0       12.674598    0.143988   -1.724341
    119          1           0       13.796380    0.849267    0.403442
    120          1           0       14.193944   -0.633866    0.931859
    121          1           0       15.337381    0.457011   -1.403705
    122          1           0       15.540844   -2.456945   -0.377955
    123          1           0       15.099795   -1.915572   -1.869464
    124          1           0       16.736034   -1.765744   -1.403957
    125          1           0       15.929154    0.998024    1.237240
    126          1           0       16.395165   -0.717894    1.177805
    127          1           0       18.018776   -0.542772   -0.331882
    128          1           0       17.492225    0.963685   -1.207272
    129          1           0       18.273846    2.276647    1.008466
    130          1           0       18.596682    0.874777    1.649680
    131          1           0       20.412500    0.304138    0.137827
    132          1           0       19.981832    3.103970   -1.017450
    133          1           0       21.311396    2.526879   -1.178569
    134          1           0       19.826725    1.586635   -1.877779
    135          1           0       20.868333    1.312842    2.342336
    136          1           0       22.041500    2.203942    1.177586
    137          1           0       20.348856    2.925036    1.676139
 ---------------------------------------------------------------------

 SCF Done:  E(RCAM-B3LYP) =  -2933.50729389     A.U. after   16 cycles

 Excitation energies and oscillator strengths:

 Excited State   1:      Singlet-A      2.0854 eV  594.53 nm  f=0.2488  <S**2>=0.000
     240 -> 243        0.24988
     241 -> 242        0.65752
 This state for optimization and/or second-order correction.
 Total Energy, E(TD-HF/TD-DFT) =  -2933.43065597
 Copying the excited state density for this state as the 1-particle RhoCI density.

 The electronic state is 1-A.
 Alpha  occ. eigenvalues --  -46.79577 -19.21545 -19.21004 -19.18475 -19.16338
 Alpha  occ. eigenvalues --  -19.15573 -14.37064 -14.35343 -14.35295 -14.34121
 Alpha  occ. eigenvalues --  -10.34454 -10.33356 -10.30453 -10.26513 -10.26396
 Alpha  occ. eigenvalues --  -10.25308 -10.25280 -10.25164 -10.25059 -10.24981
 Alpha  occ. eigenvalues --  -10.24600 -10.24560 -10.24536 -10.24041 -10.23839
 Alpha  occ. eigenvalues --  -10.23617 -10.23539 -10.23353 -10.23112 -10.23064
 Alpha  occ. eigenvalues --  -10.23013 -10.23002 -10.22784 -10.22684 -10.22653
 Alpha  occ. eigenvalues --  -10.22465 -10.22369 -10.22311 -10.22280 -10.22261
 Alpha  occ. eigenvalues --  -10.22225 -10.22140 -10.22130 -10.22029 -10.21812
 Alpha  occ. eigenvalues --  -10.21708 -10.21641 -10.21591 -10.21493 -10.21484
 Alpha  occ. eigenvalues --  -10.21311 -10.21223 -10.21124 -10.21068 -10.21005
 Alpha  occ. eigenvalues --  -10.20608 -10.20422 -10.20135 -10.19424 -10.19380
 Alpha  occ. eigenvalues --  -10.19293 -10.19208 -10.19192 -10.18978 -10.18513
 Alpha  occ. eigenvalues --   -3.08181  -1.83136  -1.82668  -1.82561  -1.13882
 Alpha  occ. eigenvalues --   -1.11957  -1.05829  -1.03863  -1.03379  -0.99543
 Alpha  occ. eigenvalues --   -0.98920  -0.97963  -0.96976  -0.86440  -0.86279
 Alpha  occ. eigenvalues --   -0.85152  -0.84985  -0.84730  -0.84193  -0.83954
 Alpha  occ. eigenvalues --   -0.83296  -0.82490  -0.82369  -0.82077  -0.81148
 Alpha  occ. eigenvalues --   -0.80441  -0.79509  -0.78810  -0.77828  -0.77440
 Alpha  occ. eigenvalues --   -0.76786  -0.76544  -0.75810  -0.75088  -0.73911
 Alpha  occ. eigenvalues --   -0.72928  -0.72321  -0.71988  -0.71512  -0.71331
 Alpha  occ. eigenvalues --   -0.70989  -0.70722  -0.69859  -0.68451  -0.67914
 Alpha  occ. eigenvalues --   -0.67075  -0.65975  -0.64718  -0.64379  -0.63536
 Alpha  occ. eigenvalues --   -0.62030  -0.61667  -0.61422  -0.60436  -0.60134
 Alpha  occ. eigenvalues --   -0.59880  -0.59548  -0.59450  -0.59008  -0.58129
 Alpha  occ. eigenvalues --   -0.56995  -0.56753  -0.55822  -0.55330  -0.54890
 Alpha  occ. eigenvalues --   -0.54349  -0.53897  -0.53784  -0.52958  -0.52231
 Alpha  occ. eigenvalues --   -0.52076  -0.51729  -0.51566  -0.51264  -0.50958
 Alpha  occ. eigenvalues --   -0.50590  -0.50254  -0.49867  -0.49330  -0.49253
 Alpha  occ. eigenvalues --   -0.49103  -0.48863  -0.48619  -0.48262  -0.48119
 Alpha  occ. eigenvalues --   -0.47712  -0.47569  -0.47258  -0.47157  -0.46698
 Alpha  occ. eigenvalues --   -0.46479  -0.46134  -0.46003  -0.45852  -0.45819
 Alpha  occ. eigenvalues --   -0.45603  -0.45405  -0.45238  -0.44837  -0.44809
 Alpha  occ. eigenvalues --   -0.44525  -0.44360  -0.44193  -0.43912  -0.43807
 Alpha  occ. eigenvalues --   -0.43584  -0.43195  -0.43013  -0.42790  -0.42728
 Alpha  occ. eigenvalues --   -0.42536  -0.42254  -0.42110  -0.41573  -0.41462
 Alpha  occ. eigenvalues --   -0.41277  -0.41205  -0.41042  -0.40771  -0.40699
 Alpha  occ. eigenvalues --   -0.40379  -0.40001  -0.39909  -0.39658  -0.39560
 Alpha  occ. eigenvalues --   -0.39390  -0.39328  -0.39142  -0.39063  -0.38778
 Alpha  occ. eigenvalues --   -0.38553  -0.38480  -0.38256  -0.38178  -0.38121
 Alpha  occ. eigenvalues --   -0.37891  -0.37568  -0.37376  -0.37293  -0.37098
 Alpha  occ. eigenvalues --   -0.36912  -0.36578  -0.36363  -0.36347  -0.36043
 Alpha  occ. eigenvalues --   -0.35808  -0.35725  -0.35055  -0.34899  -0.34785
 Alpha  occ. eigenvalues --   -0.34655  -0.34157  -0.34087  -0.33953  -0.33217
 Alpha  occ. eigenvalues --   -0.33037  -0.33023  -0.32863  -0.32585  -0.32518
 Alpha  occ. eigenvalues --   -0.32153  -0.31994  -0.31605  -0.31279  -0.30374
 Alpha  occ. eigenvalues --   -0.29975  -0.29848  -0.29713  -0.28248  -0.26870
 Alpha  occ. eigenvalues --   -0.26427  -0.26110  -0.25852  -0.25404  -0.21655
 Alpha  occ. eigenvalues --   -0.20076
 Alpha virt. eigenvalues --   -0.06886  -0.03985   0.00441   0.02333   0.04098
 Alpha virt. eigenvalues --    0.04251   0.04956   0.05198   0.05679   0.05816
 Alpha virt. eigenvalues --    0.06812   0.09009   0.09432   0.09600   0.09892

 Mulliken charges:
               1
     1  Mg   0.808860
     2  C    0.081890
     3  C   -0.216439
     4  C   -0.131266
     5  C   -0.167323
     6  N   -0.644146
     7  C    0.266275
     8  C   -0.144181
     9  C   -0.161637
    10  C    0.381377
    11  C   -0.297713
    12  C   -0.185956
    13  C   -0.283500
    14  C    0.631871
    15  O   -0.417633
    16  O   -0.506970
    17  N   -0.718776
    18  C    0.321053
    19  C    0.094392
    20  C    0.033485
    21  C    0.269214
    22  C   -0.395008
    23  C   -0.091444
    24  C   -0.234827
    25  N   -0.678502
    26  C    0.278801
    27  C    0.020236
    28  C    0.051798
    29  C    0.265502
    30  C   -0.405225
    31  C   -0.249974
    32  C   -0.311777
    33  N   -0.740009
    34  C    0.334535
    35  C   -0.045047
    36  C    0.049255
    37  C    0.287331
    38  C   -0.351036
    39  C    0.342913
    40  O   -0.470701
    41  C   -0.342802
    42  C    0.647645
    43  O   -0.463661
    44  O   -0.476084
    45  C   -0.092221
    46  C    0.005647
    47  C   -0.122812
    48  C    0.130578
    49  C   -0.372042
    50  C   -0.232060
    51  C   -0.157348
    52  C   -0.156402
    53  C   -0.063696
    54  C   -0.294231
    55  C   -0.166331
    56  C   -0.187390
    57  C   -0.159255
    58  C   -0.066910
    59  C   -0.319763
    60  C   -0.199391
    61  C   -0.168299
    62  C   -0.157651
    63  C   -0.053412
    64  C   -0.315379
    65  C   -0.303177
    66  H    0.070902
    67  H    0.095716
    68  H    0.090197
    69  H    0.130259
    70  H    0.108708
    71  H    0.103951
    72  H    0.106581
    73  H    0.133668
    74  H    0.116488
    75  H    0.102326
    76  H    0.133653
    77  H    0.140232
    78  H    0.094953
    79  H    0.138336
    80  H    0.096993
    81  H    0.097350
    82  H    0.083159
    83  H    0.098258
    84  H    0.128295
    85  H    0.108541
    86  H    0.110062
    87  H    0.110056
    88  H    0.091421
    89  H    0.096712
    90  H    0.112907
    91  H    0.096631
    92  H    0.135373
    93  H    0.141359
    94  H    0.130381
    95  H    0.148732
    96  H    0.137133
    97  H    0.142048
    98  H    0.135205
    99  H    0.130222
   100  H    0.103791
   101  H    0.091632
   102  H    0.104991
   103  H    0.133804
   104  H    0.107218
   105  H    0.074882
   106  H    0.103722
   107  H    0.100042
   108  H    0.048870
   109  H    0.099713
   110  H    0.092401
   111  H    0.081420
   112  H    0.089992
   113  H    0.111311
   114  H    0.062834
   115  H    0.090989
   116  H    0.095857
   117  H    0.085084
   118  H    0.081467
   119  H    0.092727
   120  H    0.098227
   121  H    0.076560
   122  H    0.101830
   123  H    0.114532
   124  H    0.105164
   125  H    0.080241
   126  H    0.057737
   127  H    0.108600
   128  H    0.066189
   129  H    0.093481
   130  H    0.102735
   131  H    0.086220
   132  H    0.098605
   133  H    0.093188
   134  H    0.096090
   135  H    0.091606
   136  H    0.110018
   137  H    0.086181
 Sum of Mulliken charges =  -0.00000

 Dipole moment (field-independent basis, Debye):
    X=              2.1540    Y=              3.7530    Z=              0.2306  Tot=              4.3334
 Quadrupole moment (field-independent basis, Debye-Ang):
   XX=           -358.1124   YY=           -389.9657   ZZ=           -391.6599
   XY=            -20.6272   XZ=             17.3362   YZ=             -4.2973

 Normal termination of Gaussian 16 at Wed Sep 18 07:52:53 2019.
