 Gaussian 09, Revision D.01,
 Gaussian 09:  ES64L-G09RevD.01 24-Apr-2013

 -------------------------------------
 # td=(NStates=1) CAM-B3LYP/6-31G(d,p)
 -------------------------------------

 --
 TD
 --
 Symbolic Z-matrix:
 Charge =  0 Multiplicity = 1

                         Standard orientation:
 ---------------------------------------------------------------------
 Center     Atomic      Atomic             Coordinates (Angstroms)
 Number     Number       Type             X           Y           Z
 ---------------------------------------------------------------------
      1         12           0       -7.138492    0.619981    0.048849
      2          6           0       -4.805489   -1.965624    0.532553
      3          6           0       -4.794742    2.781025    1.042168
      4          6           0       -9.395420    3.160971   -0.387267
      5          6           0       -9.480694   -1.738047   -1.007937
      6          7           0       -5.163247    0.373778    0.679984
      7          6           0       -4.357682   -0.736563    0.765075
      8          6           0       -2.831797   -0.438839    1.301636
      9          6           0       -3.134837    1.073100    1.648303
     10          6           0       -4.373633    1.418257    1.007488
     11          6           0       -3.002276    1.237250    3.285061
     12          6           0       -1.829411   -0.683402    0.100731
     13          6           0       -0.375553   -0.611828    0.652695
     14          6           0        0.566319   -0.743242   -0.629104
     15          8           0        0.257232   -0.996362   -1.768899
     16          8           0        1.829205   -0.421898   -0.123262
     17          7           0       -7.108002    2.638525    0.372441
     18          6           0       -6.029162    3.373261    0.774278
     19          6           0       -6.414488    4.806433    0.838975
     20          6           0       -7.828011    4.857202    0.434578
     21          6           0       -8.145935    3.496932    0.085592
     22          6           0       -5.506679    5.834592    1.195422
     23          6           0       -8.624966    6.014932    0.325698
     24          6           0       -8.455809    7.133024    0.993587
     25          7           0       -9.175531    0.723823   -0.413651
     26          6           0       -9.899602    1.843227   -0.625883
     27          6           0      -11.108863    1.467025   -1.168451
     28          6           0      -11.153237    0.096576   -1.389332
     29          6           0       -9.879461   -0.404980   -0.923693
     30          6           0      -12.243755    2.435212   -1.649298
     31          6           0      -12.292561   -0.817456   -1.850469
     32          6           0      -12.268274   -1.057674   -3.312548
     33          7           0       -7.206145   -1.392546   -0.222871
     34          6           0       -8.212969   -2.188633   -0.552849
     35          6           0       -7.847792   -3.640155   -0.562741
     36          6           0       -6.418895   -3.561439   -0.261721
     37          6           0       -6.080526   -2.151803   -0.029834
     38          6           0       -8.585297   -4.845117   -0.826727
     39          6           0       -5.294207   -4.387221    0.087697
     40          8           0       -5.236938   -5.598520    0.192283
     41          6           0       -4.132268   -3.341955    0.526729
     42          6           0       -3.611959   -3.762019    1.965173
     43          8           0       -3.907591   -3.215348    3.033257
     44          8           0       -2.761337   -4.734215    1.854432
     45          6           0       -2.033828   -5.264418    2.962534
     46          6           0        2.885000   -0.505952   -1.167607
     47          6           0        4.190310   -0.313802   -0.537559
     48          6           0        5.171542    0.563917   -0.912778
     49          6           0        5.048464    1.390364   -2.178793
     50          6           0        6.467835    0.567623   -0.123882
     51          6           0        7.501744    0.040818   -0.964812
     52          6           0        8.876583    0.047166   -0.143981
     53          6           0       10.155601   -0.611684   -0.783423
     54          6           0        9.982774   -2.015686   -1.079017
     55          6           0       11.393051   -0.326959    0.038597
     56          6           0       12.739918   -0.458445   -0.713326
     57          6           0       13.968404   -0.192976    0.178275
     58          6           0       15.329081   -0.161283   -0.459650
     59          6           0       15.534767   -1.646246   -0.961684
     60          6           0       16.433878    0.431849    0.517699
     61          6           0       17.802153    0.349519   -0.181957
     62          6           0       18.815221    1.212572    0.707036
     63          6           0       20.234540    1.303175    0.053419
     64          6           0       20.227930    2.154887   -1.122642
     65          6           0       21.315807    1.927040    1.046585
     66          1           0       -3.970575    3.579464    1.348738
     67          1           0      -10.079659    3.959967   -0.487221
     68          1           0      -10.170686   -2.526353   -1.101776
     69          1           0       -2.597013   -1.068954    2.185091
     70          1           0       -2.315979    1.724282    1.368563
     71          1           0       -2.002105    0.785054    3.594803
     72          1           0       -3.416181    2.391943    3.474653
     73          1           0       -3.788559    0.720046    3.631935
     74          1           0       -2.120408   -1.524691   -0.436787
     75          1           0       -1.782154    0.140585   -0.628162
     76          1           0       -0.331915    0.295071    1.190097
     77          1           0       -0.109574   -1.653916    1.130646
     78          1           0       -5.916200    6.779100    0.834517
     79          1           0       -5.418512    5.916897    2.406928
     80          1           0       -4.509831    5.684784    0.724956
     81          1           0       -9.619863    5.975651   -0.186855
     82          1           0       -8.977785    8.094634    0.776301
     83          1           0       -7.542625    7.162899    1.623006
     84          1           0      -12.173166    2.830245   -2.568576
     85          1           0      -13.335927    1.907505   -1.583622
     86          1           0      -12.389934    3.273864   -0.766249
     87          1           0      -12.240446   -1.687827   -1.238204
     88          1           0      -13.206053   -0.173643   -1.486900
     89          1           0      -13.280067   -1.433458   -3.748677
     90          1           0      -12.023787   -0.218149   -3.921252
     91          1           0      -11.457859   -1.781427   -3.692456
     92          1           0       -9.174423   -4.838924   -1.752404
     93          1           0       -7.994840   -5.782705   -0.683838
     94          1           0       -9.293120   -5.144831    0.118453
     95          1           0       -3.489436   -3.588487   -0.155697
     96          1           0       -1.581030   -4.325818    3.562135
     97          1           0       -2.605794   -5.460782    3.702144
     98          1           0       -1.578576   -6.136718    2.538335
     99          1           0        2.790698   -1.498083   -1.524374
    100          1           0        2.749971    0.164739   -1.983131
    101          1           0        4.232150   -1.016525    0.366174
    102          1           0        3.999243    1.308754   -2.511780
    103          1           0        5.440407    2.395984   -1.962434
    104          1           0        5.908783    1.083490   -2.804176
    105          1           0        6.728885    1.572219   -0.175871
    106          1           0        6.428706    0.145498    0.969005
    107          1           0        7.167653   -0.995793   -1.180881
    108          1           0        7.696968    0.610974   -1.988965
    109          1           0        9.043814    0.947949    0.093086
    110          1           0        8.735175   -0.342137    0.850630
    111          1           0       10.115655   -0.155235   -1.720589
    112          1           0        9.015605   -2.239413   -1.632904
    113          1           0       10.844741   -2.460835   -1.630887
    114          1           0       10.039465   -2.685222   -0.051679
    115          1           0       11.499527    0.678913    0.566918
    116          1           0       11.227563   -0.768941    1.012531
    117          1           0       12.550630   -1.512153   -1.035385
    118          1           0       12.728523    0.183563   -1.523991
    119          1           0       13.759577    0.819285    0.347380
    120          1           0       13.941194   -1.033111    1.007040
    121          1           0       15.180394    0.603088   -1.404217
    122          1           0       15.554353   -2.366874   -0.096107
    123          1           0       14.842567   -2.042974   -1.565186
    124          1           0       16.438555   -1.913459   -1.505417
    125          1           0       15.921422    1.406618    0.677423
    126          1           0       16.458717   -0.099705    1.422657
    127          1           0       18.091535   -0.932217   -0.195706
    128          1           0       17.866047    0.738779   -1.208922
    129          1           0       18.263207    2.237168    0.851909
    130          1           0       18.666169    0.767655    1.635126
    131          1           0       20.726762    0.502266   -0.189795
    132          1           0       19.869260    3.096315   -0.815534
    133          1           0       21.343767    2.288761   -1.541867
    134          1           0       19.560723    1.805341   -1.951647
    135          1           0       21.387980    1.400343    2.180639
    136          1           0       22.222579    1.752203    0.786577
    137          1           0       21.097845    2.896367    1.309975
 ---------------------------------------------------------------------

 SCF Done:  E(RCAM-B3LYP) =  -2932.62332661     A.U. after   18 cycles

 Excitation energies and oscillator strengths:

 Excited State   1:      Singlet-A      2.0472 eV  605.63 nm  f=0.2272  <S**2>=0.000
     240 -> 243        0.25112
     241 -> 242        0.64909
 This state for optimization and/or second-order correction.
 Total Energy, E(TD-HF/TD-KS) =  -2932.54809316
 Copying the excited state density for this state as the 1-particle RhoCI density.

 The electronic state is 1-A.
 Alpha  occ. eigenvalues --  -46.84090 -19.26621 -19.25853 -19.22550 -19.19952
 Alpha  occ. eigenvalues --  -19.19887 -14.42136 -14.39543 -14.39171 -14.38534
 Alpha  occ. eigenvalues --  -10.39892 -10.39161 -10.34441 -10.31498 -10.31281
 Alpha  occ. eigenvalues --  -10.30499 -10.30280 -10.30186 -10.29367 -10.29019
 Alpha  occ. eigenvalues --  -10.28997 -10.28698 -10.28399 -10.28356 -10.28286
 Alpha  occ. eigenvalues --  -10.28218 -10.27896 -10.27767 -10.27647 -10.27547
 Alpha  occ. eigenvalues --  -10.27546 -10.27466 -10.27329 -10.27310 -10.27275
 Alpha  occ. eigenvalues --  -10.27055 -10.27047 -10.27007 -10.26941 -10.26896
 Alpha  occ. eigenvalues --  -10.26727 -10.26706 -10.26683 -10.26682 -10.26237
 Alpha  occ. eigenvalues --  -10.26190 -10.25992 -10.25891 -10.25882 -10.25684
 Alpha  occ. eigenvalues --  -10.25661 -10.25635 -10.25585 -10.25502 -10.25337
 Alpha  occ. eigenvalues --  -10.25112 -10.25105 -10.25031 -10.25019 -10.24887
 Alpha  occ. eigenvalues --  -10.24701 -10.24648 -10.23779 -10.23574 -10.23305
 Alpha  occ. eigenvalues --   -3.13123  -1.87834  -1.87346  -1.87311  -1.19278
 Alpha  occ. eigenvalues --   -1.16580  -1.10398  -1.09494  -1.07843  -1.04824
 Alpha  occ. eigenvalues --   -1.03337  -1.02988  -1.01658  -0.92574  -0.92362
 Alpha  occ. eigenvalues --   -0.90844  -0.90149  -0.89813  -0.89126  -0.88831
 Alpha  occ. eigenvalues --   -0.88675  -0.87592  -0.87002  -0.86675  -0.86382
 Alpha  occ. eigenvalues --   -0.85455  -0.84312  -0.84132  -0.83820  -0.82470
 Alpha  occ. eigenvalues --   -0.82064  -0.81383  -0.80453  -0.80306  -0.78290
 Alpha  occ. eigenvalues --   -0.77346  -0.76961  -0.76718  -0.76003  -0.75863
 Alpha  occ. eigenvalues --   -0.75563  -0.74476  -0.74444  -0.73330  -0.72274
 Alpha  occ. eigenvalues --   -0.71471  -0.70094  -0.69401  -0.68835  -0.67778
 Alpha  occ. eigenvalues --   -0.67072  -0.66335  -0.65586  -0.65438  -0.65036
 Alpha  occ. eigenvalues --   -0.64437  -0.64188  -0.64097  -0.63299  -0.63055
 Alpha  occ. eigenvalues --   -0.61666  -0.60631  -0.60260  -0.59835  -0.58827
 Alpha  occ. eigenvalues --   -0.58562  -0.58457  -0.57666  -0.57163  -0.57068
 Alpha  occ. eigenvalues --   -0.56011  -0.55890  -0.55622  -0.55478  -0.55046
 Alpha  occ. eigenvalues --   -0.54784  -0.54589  -0.54543  -0.54019  -0.53248
 Alpha  occ. eigenvalues --   -0.52873  -0.52327  -0.51955  -0.51640  -0.51502
 Alpha  occ. eigenvalues --   -0.51363  -0.51194  -0.50885  -0.50628  -0.50500
 Alpha  occ. eigenvalues --   -0.50328  -0.50107  -0.49944  -0.49763  -0.49724
 Alpha  occ. eigenvalues --   -0.49261  -0.48887  -0.48800  -0.48501  -0.48247
 Alpha  occ. eigenvalues --   -0.48153  -0.47839  -0.47426  -0.47400  -0.47314
 Alpha  occ. eigenvalues --   -0.46995  -0.46862  -0.46767  -0.46502  -0.46214
 Alpha  occ. eigenvalues --   -0.45987  -0.45845  -0.45641  -0.45510  -0.45426
 Alpha  occ. eigenvalues --   -0.45222  -0.45046  -0.44647  -0.44367  -0.44149
 Alpha  occ. eigenvalues --   -0.43875  -0.43776  -0.43427  -0.43302  -0.43206
 Alpha  occ. eigenvalues --   -0.43143  -0.42875  -0.42644  -0.42584  -0.42387
 Alpha  occ. eigenvalues --   -0.42158  -0.42074  -0.41839  -0.41370  -0.41176
 Alpha  occ. eigenvalues --   -0.41087  -0.40963  -0.40827  -0.40470  -0.39999
 Alpha  occ. eigenvalues --   -0.39877  -0.39783  -0.39707  -0.39600  -0.39074
 Alpha  occ. eigenvalues --   -0.38606  -0.38499  -0.38365  -0.38112  -0.37679
 Alpha  occ. eigenvalues --   -0.37596  -0.37519  -0.37346  -0.37169  -0.36793
 Alpha  occ. eigenvalues --   -0.36463  -0.36247  -0.36059  -0.35740  -0.35585
 Alpha  occ. eigenvalues --   -0.35326  -0.35282  -0.34070  -0.33833  -0.33081
 Alpha  occ. eigenvalues --   -0.32845  -0.32630  -0.32034  -0.30957  -0.29354
 Alpha  occ. eigenvalues --   -0.29095  -0.28507  -0.27586  -0.26538  -0.23072
 Alpha  occ. eigenvalues --   -0.21294
 Alpha virt. eigenvalues --   -0.06515  -0.03359   0.01218   0.03442   0.05883
 Alpha virt. eigenvalues --    0.06001   0.06403   0.06687   0.06943   0.07297
 Alpha virt. eigenvalues --    0.08984   0.10519   0.11564   0.11736   0.12124

 Mulliken charges:
               1
     1  Mg   0.817531
     2  C    0.065644
     3  C   -0.256825
     4  C   -0.164503
     5  C   -0.133778
     6  N   -0.639546
     7  C    0.270790
     8  C   -0.146025
     9  C   -0.169043
    10  C    0.401812
    11  C   -0.302300
    12  C   -0.173526
    13  C   -0.253276
    14  C    0.599760
    15  O   -0.454790
    16  O   -0.500276
    17  N   -0.733680
    18  C    0.354225
    19  C    0.023404
    20  C    0.031114
    21  C    0.332850
    22  C   -0.396220
    23  C   -0.064609
    24  C   -0.259027
    25  N   -0.710339
    26  C    0.342436
    27  C   -0.017848
    28  C    0.016742
    29  C    0.262383
    30  C   -0.360592
    31  C   -0.211810
    32  C   -0.307454
    33  N   -0.704812
    34  C    0.265430
    35  C    0.071964
    36  C   -0.023485
    37  C    0.256349
    38  C   -0.417625
    39  C    0.335893
    40  O   -0.467341
    41  C   -0.297992
    42  C    0.611153
    43  O   -0.504334
    44  O   -0.420353
    45  C   -0.082168
    46  C    0.012218
    47  C   -0.124998
    48  C    0.082020
    49  C   -0.360253
    50  C   -0.197774
    51  C   -0.189728
    52  C   -0.177591
    53  C   -0.049712
    54  C   -0.292116
    55  C   -0.193061
    56  C   -0.177689
    57  C   -0.156132
    58  C   -0.062501
    59  C   -0.323659
    60  C   -0.167125
    61  C   -0.165985
    62  C   -0.169593
    63  C   -0.046327
    64  C   -0.293651
    65  C   -0.310652
    66  H    0.073955
    67  H    0.084599
    68  H    0.102979
    69  H    0.126869
    70  H    0.106142
    71  H    0.117016
    72  H    0.089352
    73  H    0.148439
    74  H    0.127290
    75  H    0.114477
    76  H    0.140863
    77  H    0.128766
    78  H    0.123519
    79  H    0.109225
    80  H    0.121359
    81  H    0.094067
    82  H    0.108863
    83  H    0.094587
    84  H    0.139634
    85  H    0.088429
    86  H    0.085774
    87  H    0.114011
    88  H    0.097023
    89  H    0.091329
    90  H    0.121863
    91  H    0.099945
    92  H    0.129281
    93  H    0.159564
    94  H    0.108055
    95  H    0.148857
    96  H    0.109345
    97  H    0.150228
    98  H    0.141937
    99  H    0.128310
   100  H    0.111009
   101  H    0.085280
   102  H    0.118912
   103  H    0.116236
   104  H    0.127878
   105  H    0.103331
   106  H    0.110399
   107  H    0.098752
   108  H    0.080896
   109  H    0.100438
   110  H    0.080301
   111  H    0.088802
   112  H    0.101331
   113  H    0.102473
   114  H    0.064812
   115  H    0.064322
   116  H    0.093857
   117  H    0.089155
   118  H    0.100813
   119  H    0.090171
   120  H    0.083129
   121  H    0.052783
   122  H    0.085059
   123  H    0.117207
   124  H    0.092612
   125  H    0.092011
   126  H    0.106972
   127  H    0.058147
   128  H    0.099000
   129  H    0.078677
   130  H    0.103819
   131  H    0.102020
   132  H    0.107875
   133  H    0.077963
   134  H    0.095188
   135  H    0.047702
   136  H    0.113236
   137  H    0.109882
 Sum of Mulliken charges =   0.00000

 Dipole moment (field-independent basis, Debye):
    X=              3.2721    Y=              4.0182    Z=             -0.2523  Tot=              5.1880
 Quadrupole moment (field-independent basis, Debye-Ang):
   XX=           -363.9456   YY=           -387.2904   ZZ=           -398.1788
   XY=            -16.7545   XZ=             12.8893   YZ=             -4.2789

 Normal termination of Gaussian 09 at Wed Jul  3 17:38:49 2019.
