 Gaussian 16, Revision A.03,
 Gaussian 16:  ES64L-G16RevA.03 25-Dec-2016

 ----------------------------------------------------------------------
 # td=(NStates=1) iop(3/107=0140000000,3/108=0140000000) CAM-B3LYP/6-31
 G(d,p)
 ----------------------------------------------------------------------

 --
 TD
 --
 Symbolic Z-matrix:
 Charge =  0 Multiplicity = 1

                         Standard orientation:
 ---------------------------------------------------------------------
 Center     Atomic      Atomic             Coordinates (Angstroms)
 Number     Number       Type             X           Y           Z
 ---------------------------------------------------------------------
      1         12           0       -7.107875    0.632307   -0.000359
      2          6           0       -4.822732   -1.958825    0.524919
      3          6           0       -4.803201    2.933815    1.155384
      4          6           0       -9.318377    3.097583   -0.392878
      5          6           0       -9.546126   -1.694453   -0.734933
      6          7           0       -5.105125    0.445134    0.642106
      7          6           0       -4.253654   -0.757513    0.811192
      8          6           0       -2.872058   -0.465435    1.162693
      9          6           0       -3.061408    1.004361    1.778623
     10          6           0       -4.393537    1.483778    1.136788
     11          6           0       -3.093825    1.175828    3.331068
     12          6           0       -1.903824   -0.552443    0.016639
     13          6           0       -0.423240   -0.512207    0.522849
     14          6           0        0.578015   -0.796219   -0.491059
     15          8           0        0.210696   -1.174486   -1.589482
     16          8           0        1.852512   -0.389188   -0.216880
     17          7           0       -7.081430    2.600074    0.427237
     18          6           0       -5.974735    3.337024    0.825537
     19          6           0       -6.357315    4.847232    0.863701
     20          6           0       -7.647322    4.875990    0.387582
     21          6           0       -8.002802    3.488544    0.101540
     22          6           0       -5.390782    5.894041    1.187299
     23          6           0       -8.425828    6.020955    0.115751
     24          6           0       -8.382414    7.183177    0.730651
     25          7           0       -9.039846    0.750967   -0.593745
     26          6           0       -9.830621    1.876541   -0.661935
     27          6           0      -11.208826    1.511779   -1.174899
     28          6           0      -11.258248    0.166440   -1.276970
     29          6           0       -9.895556   -0.376054   -0.870535
     30          6           0      -12.228074    2.631331   -1.514698
     31          6           0      -12.363887   -0.585380   -1.770264
     32          6           0      -12.189142   -1.211869   -3.119713
     33          7           0       -7.223262   -1.367361   -0.246254
     34          6           0       -8.266250   -2.172833   -0.551306
     35          6           0       -7.883519   -3.515837   -0.525142
     36          6           0       -6.565158   -3.555003   -0.166465
     37          6           0       -6.215131   -2.202426    0.099052
     38          6           0       -8.793974   -4.660005   -0.805454
     39          6           0       -5.396743   -4.321051    0.180955
     40          8           0       -5.198064   -5.538573    0.096997
     41          6           0       -4.156838   -3.383734    0.481324
     42          6           0       -3.637784   -3.812325    1.860333
     43          8           0       -3.814280   -3.100193    2.923753
     44          8           0       -2.835875   -4.828528    1.734978
     45          6           0       -2.346087   -5.324805    2.971887
     46          6           0        2.799057   -0.698179   -1.302372
     47          6           0        4.168170   -0.554534   -0.644655
     48          6           0        5.166039    0.269866   -0.944297
     49          6           0        5.060090    1.247769   -2.068237
     50          6           0        6.495465    0.325808   -0.086442
     51          6           0        7.668999   -0.266473   -0.827622
     52          6           0        8.911545   -0.172789   -0.041455
     53          6           0       10.143816   -0.675147   -0.812319
     54          6           0       10.141149   -2.178004   -1.230671
     55          6           0       11.451783   -0.360246   -0.015729
     56          6           0       12.789148   -0.474614   -0.723778
     57          6           0       13.912170   -0.157370    0.177089
     58          6           0       15.290117   -0.091485   -0.457660
     59          6           0       15.622702   -1.496344   -1.028949
     60          6           0       16.381317    0.444004    0.399466
     61          6           0       17.782242    0.565045   -0.201107
     62          6           0       18.765358    1.210823    0.743362
     63          6           0       20.181002    1.367304    0.215234
     64          6           0       20.216567    2.235416   -1.097218
     65          6           0       21.190169    1.983011    1.245647
     66          1           0       -4.029653    3.498320    1.466114
     67          1           0       -9.968272    3.878683   -0.376819
     68          1           0      -10.230275   -2.534494   -1.033838
     69          1           0       -2.697235   -1.138124    2.056659
     70          1           0       -2.228015    1.472545    1.422532
     71          1           0       -2.183073    0.941038    3.785769
     72          1           0       -3.599381    2.254185    3.594936
     73          1           0       -3.825722    0.442481    3.704913
     74          1           0       -2.048256   -1.475554   -0.583413
     75          1           0       -2.058656    0.203625   -0.838428
     76          1           0       -0.197067    0.513058    0.746957
     77          1           0       -0.221665   -1.296938    1.241381
     78          1           0       -5.622957    6.856135    0.459779
     79          1           0       -5.646837    6.355301    2.225428
     80          1           0       -4.304626    5.600550    1.081716
     81          1           0       -9.134851    5.831018   -0.764825
     82          1           0       -8.993197    8.016416    0.347962
     83          1           0       -7.519338    7.428800    1.434816
     84          1           0      -11.673216    3.376500   -2.053118
     85          1           0      -13.056507    2.389445   -2.064085
     86          1           0      -12.469505    3.272088   -0.649127
     87          1           0      -12.543103   -1.315456   -0.900920
     88          1           0      -13.356525   -0.007759   -1.749867
     89          1           0      -12.943776   -1.876307   -3.492571
     90          1           0      -12.206929   -0.353772   -3.777082
     91          1           0      -11.210249   -1.585357   -3.467301
     92          1           0       -9.192402   -4.574078   -1.818074
     93          1           0       -8.223263   -5.591722   -0.814579
     94          1           0       -9.917253   -4.753514   -0.169076
     95          1           0       -3.422032   -3.539475   -0.269096
     96          1           0       -1.613860   -4.845044    3.420043
     97          1           0       -3.158146   -5.737546    3.621072
     98          1           0       -1.751655   -6.241298    2.482012
     99          1           0        2.611990   -1.783071   -1.669529
    100          1           0        2.453688   -0.066313   -2.216948
    101          1           0        4.448455   -1.212167    0.236317
    102          1           0        3.909074    1.525253   -2.298759
    103          1           0        5.457965    2.199796   -1.885997
    104          1           0        5.475609    0.895995   -3.080347
    105          1           0        6.619613    1.304866    0.152870
    106          1           0        6.346668   -0.133370    0.822820
    107          1           0        7.395560   -1.179140   -1.064495
    108          1           0        7.887475    0.446636   -1.704416
    109          1           0        9.196391    1.022017    0.302658
    110          1           0        9.030072   -0.757890    1.052498
    111          1           0       10.086857   -0.053573   -1.674464
    112          1           0        9.264833   -2.484012   -1.811525
    113          1           0       10.988011   -2.757186   -1.736345
    114          1           0        9.835776   -2.803548   -0.434133
    115          1           0       11.446753    0.728353    0.449437
    116          1           0       11.413973   -0.822693    0.899027
    117          1           0       12.862477   -1.533774   -1.197164
    118          1           0       12.622762    0.081532   -1.670162
    119          1           0       13.801223    0.764868    0.567571
    120          1           0       13.943823   -0.897482    1.132426
    121          1           0       15.005606    0.597205   -1.419970
    122          1           0       15.793878   -2.324130   -0.316088
    123          1           0       14.927602   -2.150157   -1.650918
    124          1           0       16.665925   -1.405283   -1.679795
    125          1           0       16.105371    1.484675    0.754750
    126          1           0       16.399643   -0.095784    1.597351
    127          1           0       18.159486   -0.361886   -0.546410
    128          1           0       17.806487    1.367249   -0.986084
    129          1           0       18.359007    2.282028    1.153699
    130          1           0       18.934118    0.683183    1.727559
    131          1           0       20.542744    0.521987   -0.168023
    132          1           0       20.189167    3.480720   -0.989017
    133          1           0       21.073585    1.948206   -1.657895
    134          1           0       19.497780    2.160595   -1.832198
    135          1           0       21.219705    1.397174    2.131285
    136          1           0       22.292948    1.992462    0.788255
    137          1           0       21.062218    2.968074    1.529437
 ---------------------------------------------------------------------

 SCF Done:  E(RCAM-B3LYP) =  -2933.53886471     A.U. after   15 cycles

 Excitation energies and oscillator strengths:

 Excited State   1:      Singlet-A      1.9862 eV  624.22 nm  f=0.3036  <S**2>=0.000
     240 -> 243       -0.15891
     241 -> 242        0.68942
 This state for optimization and/or second-order correction.
 Total Energy, E(TD-HF/TD-DFT) =  -2933.46587214
 Copying the excited state density for this state as the 1-particle RhoCI density.

 The electronic state is 1-A.
 Alpha  occ. eigenvalues --  -46.79230 -19.23784 -19.22276 -19.16198 -19.15734
 Alpha  occ. eigenvalues --  -19.14226 -14.38677 -14.35780 -14.34735 -14.34193
 Alpha  occ. eigenvalues --  -10.34600 -10.33875 -10.29226 -10.29153 -10.28068
 Alpha  occ. eigenvalues --  -10.27122 -10.26166 -10.25568 -10.25056 -10.24805
 Alpha  occ. eigenvalues --  -10.24731 -10.24601 -10.23931 -10.23830 -10.23529
 Alpha  occ. eigenvalues --  -10.23479 -10.23273 -10.23265 -10.23136 -10.23100
 Alpha  occ. eigenvalues --  -10.23079 -10.23011 -10.22996 -10.22991 -10.22970
 Alpha  occ. eigenvalues --  -10.22593 -10.22498 -10.22353 -10.22321 -10.22290
 Alpha  occ. eigenvalues --  -10.22261 -10.22219 -10.22186 -10.22113 -10.21779
 Alpha  occ. eigenvalues --  -10.21738 -10.21693 -10.21603 -10.21601 -10.21440
 Alpha  occ. eigenvalues --  -10.21382 -10.21208 -10.21098 -10.21084 -10.20992
 Alpha  occ. eigenvalues --  -10.20925 -10.20616 -10.20557 -10.20515 -10.20391
 Alpha  occ. eigenvalues --  -10.20277 -10.20222 -10.20179 -10.20099 -10.19565
 Alpha  occ. eigenvalues --   -3.07985  -1.82916  -1.82441  -1.82417  -1.14904
 Alpha  occ. eigenvalues --   -1.12481  -1.03960  -1.03564  -1.00881  -0.99570
 Alpha  occ. eigenvalues --   -0.98641  -0.96914  -0.95258  -0.86628  -0.86325
 Alpha  occ. eigenvalues --   -0.85741  -0.85618  -0.85070  -0.84498  -0.84349
 Alpha  occ. eigenvalues --   -0.83667  -0.83424  -0.81863  -0.81596  -0.81371
 Alpha  occ. eigenvalues --   -0.80548  -0.79652  -0.78963  -0.78652  -0.78186
 Alpha  occ. eigenvalues --   -0.77298  -0.76869  -0.75966  -0.75161  -0.73886
 Alpha  occ. eigenvalues --   -0.73157  -0.72775  -0.71759  -0.71635  -0.71124
 Alpha  occ. eigenvalues --   -0.70503  -0.69740  -0.69667  -0.69063  -0.67548
 Alpha  occ. eigenvalues --   -0.67068  -0.66392  -0.65772  -0.65392  -0.63830
 Alpha  occ. eigenvalues --   -0.63382  -0.63155  -0.61038  -0.60915  -0.60799
 Alpha  occ. eigenvalues --   -0.60038  -0.59327  -0.59044  -0.58409  -0.58277
 Alpha  occ. eigenvalues --   -0.57265  -0.56198  -0.55945  -0.55251  -0.55144
 Alpha  occ. eigenvalues --   -0.54340  -0.54145  -0.53604  -0.53368  -0.52996
 Alpha  occ. eigenvalues --   -0.52585  -0.52353  -0.51846  -0.51244  -0.50826
 Alpha  occ. eigenvalues --   -0.50397  -0.50246  -0.50080  -0.49824  -0.49319
 Alpha  occ. eigenvalues --   -0.49221  -0.48661  -0.48467  -0.48385  -0.48121
 Alpha  occ. eigenvalues --   -0.48023  -0.47329  -0.47264  -0.47041  -0.46649
 Alpha  occ. eigenvalues --   -0.46593  -0.46404  -0.46114  -0.45938  -0.45583
 Alpha  occ. eigenvalues --   -0.45518  -0.45051  -0.44905  -0.44569  -0.44545
 Alpha  occ. eigenvalues --   -0.44343  -0.44187  -0.44033  -0.43912  -0.43361
 Alpha  occ. eigenvalues --   -0.43134  -0.43080  -0.42703  -0.42309  -0.42150
 Alpha  occ. eigenvalues --   -0.42101  -0.42052  -0.41644  -0.41514  -0.40883
 Alpha  occ. eigenvalues --   -0.40830  -0.40817  -0.40653  -0.40442  -0.40239
 Alpha  occ. eigenvalues --   -0.40079  -0.40045  -0.39845  -0.39814  -0.39574
 Alpha  occ. eigenvalues --   -0.39345  -0.39117  -0.39071  -0.38821  -0.38781
 Alpha  occ. eigenvalues --   -0.38700  -0.38624  -0.38447  -0.38207  -0.37987
 Alpha  occ. eigenvalues --   -0.37896  -0.37825  -0.37594  -0.37516  -0.37169
 Alpha  occ. eigenvalues --   -0.36960  -0.36897  -0.36600  -0.36551  -0.36228
 Alpha  occ. eigenvalues --   -0.36165  -0.35569  -0.35289  -0.34860  -0.34620
 Alpha  occ. eigenvalues --   -0.34420  -0.34266  -0.34059  -0.33821  -0.33412
 Alpha  occ. eigenvalues --   -0.33277  -0.33011  -0.32935  -0.32840  -0.32827
 Alpha  occ. eigenvalues --   -0.32500  -0.32298  -0.32030  -0.31676  -0.30453
 Alpha  occ. eigenvalues --   -0.29955  -0.29869  -0.29046  -0.28219  -0.27564
 Alpha  occ. eigenvalues --   -0.26254  -0.25938  -0.25533  -0.25425  -0.22288
 Alpha  occ. eigenvalues --   -0.18801
 Alpha virt. eigenvalues --   -0.06413  -0.02676   0.00082   0.01833   0.03300
 Alpha virt. eigenvalues --    0.04035   0.04206   0.04746   0.04835   0.06076
 Alpha virt. eigenvalues --    0.06703   0.09364   0.09382   0.09584   0.10199

 Mulliken charges:
               1
     1  Mg   0.806899
     2  C    0.081081
     3  C   -0.205304
     4  C   -0.215885
     5  C   -0.167253
     6  N   -0.600605
     7  C    0.245171
     8  C   -0.149715
     9  C   -0.139373
    10  C    0.316617
    11  C   -0.313771
    12  C   -0.182297
    13  C   -0.249809
    14  C    0.584506
    15  O   -0.472364
    16  O   -0.473028
    17  N   -0.708044
    18  C    0.365151
    19  C    0.057275
    20  C    0.040822
    21  C    0.332733
    22  C   -0.401719
    23  C   -0.063014
    24  C   -0.257976
    25  N   -0.696514
    26  C    0.330369
    27  C    0.052598
    28  C    0.034827
    29  C    0.285727
    30  C   -0.378123
    31  C   -0.260174
    32  C   -0.321187
    33  N   -0.721473
    34  C    0.293837
    35  C   -0.000747
    36  C    0.091430
    37  C    0.236934
    38  C   -0.385096
    39  C    0.323044
    40  O   -0.489729
    41  C   -0.309061
    42  C    0.611522
    43  O   -0.518306
    44  O   -0.386833
    45  C   -0.092091
    46  C    0.000558
    47  C   -0.123763
    48  C    0.118648
    49  C   -0.372084
    50  C   -0.226409
    51  C   -0.142939
    52  C   -0.164312
    53  C   -0.042355
    54  C   -0.336748
    55  C   -0.168461
    56  C   -0.168794
    57  C   -0.147621
    58  C   -0.036027
    59  C   -0.311867
    60  C   -0.151488
    61  C   -0.168390
    62  C   -0.163349
    63  C   -0.038986
    64  C   -0.324288
    65  C   -0.315201
    66  H    0.071474
    67  H    0.055609
    68  H    0.086091
    69  H    0.134920
    70  H    0.098075
    71  H    0.123777
    72  H    0.092624
    73  H    0.136687
    74  H    0.130210
    75  H    0.111027
    76  H    0.138567
    77  H    0.139035
    78  H    0.109951
    79  H    0.128526
    80  H    0.122248
    81  H    0.091106
    82  H    0.104526
    83  H    0.090378
    84  H    0.124167
    85  H    0.120308
    86  H    0.121734
    87  H    0.100196
    88  H    0.098147
    89  H    0.111628
    90  H    0.110796
    91  H    0.116658
    92  H    0.123370
    93  H    0.137871
    94  H    0.081464
    95  H    0.162841
    96  H    0.142340
    97  H    0.142748
    98  H    0.101946
    99  H    0.127001
   100  H    0.126357
   101  H    0.082808
   102  H    0.091783
   103  H    0.120569
   104  H    0.116627
   105  H    0.108689
   106  H    0.103695
   107  H    0.113425
   108  H    0.093844
   109  H    0.061903
   110  H    0.057565
   111  H    0.086594
   112  H    0.095391
   113  H    0.108043
   114  H    0.107900
   115  H    0.054836
   116  H    0.097597
   117  H    0.080587
   118  H    0.091677
   119  H    0.097795
   120  H    0.067968
   121  H    0.068557
   122  H    0.101010
   123  H    0.098118
   124  H    0.067949
   125  H    0.088703
   126  H    0.045357
   127  H    0.106757
   128  H    0.105202
   129  H    0.062446
   130  H    0.077130
   131  H    0.103816
   132  H    0.061901
   133  H    0.101183
   134  H    0.109828
   135  H    0.103372
   136  H    0.078281
   137  H    0.119514
 Sum of Mulliken charges =  -0.00000

 Dipole moment (field-independent basis, Debye):
    X=              3.1273    Y=              5.7250    Z=             -0.0183  Tot=              6.5235
 Quadrupole moment (field-independent basis, Debye-Ang):
   XX=           -371.3359   YY=           -392.0133   ZZ=           -396.0320
   XY=            -38.7578   XZ=             12.8748   YZ=             -3.5284

 Normal termination of Gaussian 16 at Tue Sep  3 23:59:09 2019.
