 Gaussian 09, Revision D.01,
 Gaussian 09:  ES64L-G09RevD.01 24-Apr-2013

 -------------------------------------
 # td=(NStates=1) CAM-B3LYP/6-31G(d,p)
 -------------------------------------

 --
 TD
 --
 Symbolic Z-matrix:
 Charge =  0 Multiplicity = 1

                         Standard orientation:
 ---------------------------------------------------------------------
 Center     Atomic      Atomic             Coordinates (Angstroms)
 Number     Number       Type             X           Y           Z
 ---------------------------------------------------------------------
      1         12           0       -7.085404    0.626651    0.045266
      2          6           0       -4.901658   -1.929574    0.577361
      3          6           0       -4.778695    2.852629    1.208205
      4          6           0       -9.326298    3.129239   -0.549449
      5          6           0       -9.506366   -1.660921   -0.950174
      6          7           0       -5.072534    0.531388    0.641794
      7          6           0       -4.345246   -0.624656    0.713241
      8          6           0       -2.936510   -0.350737    1.214865
      9          6           0       -2.997843    1.161289    1.692630
     10          6           0       -4.322513    1.542540    1.203156
     11          6           0       -2.870957    1.386938    3.202310
     12          6           0       -1.877936   -0.639570    0.095123
     13          6           0       -0.464026   -0.516710    0.633399
     14          6           0        0.500775   -0.800403   -0.525278
     15          8           0        0.249831   -1.110317   -1.653407
     16          8           0        1.788030   -0.628292   -0.085103
     17          7           0       -7.030923    2.669597    0.245455
     18          6           0       -6.042559    3.411082    0.730317
     19          6           0       -6.418386    4.802165    0.813400
     20          6           0       -7.724350    4.920081    0.335360
     21          6           0       -8.049654    3.479845   -0.074974
     22          6           0       -5.495292    5.872053    1.327265
     23          6           0       -8.421267    6.095971    0.098052
     24          6           0       -8.424672    7.296777    0.829066
     25          7           0       -9.071774    0.687618   -0.609860
     26          6           0       -9.830857    1.786400   -0.684079
     27          6           0      -11.137160    1.436971   -1.336498
     28          6           0      -11.242352    0.167901   -1.253015
     29          6           0      -10.018302   -0.374244   -0.861504
     30          6           0      -12.200748    2.473588   -1.647781
     31          6           0      -12.487743   -0.707649   -1.669333
     32          6           0      -12.421693   -1.255880   -3.148241
     33          7           0       -7.264853   -1.378867   -0.128013
     34          6           0       -8.267110   -2.183506   -0.535869
     35          6           0       -7.851326   -3.584021   -0.551951
     36          6           0       -6.575403   -3.551576   -0.179765
     37          6           0       -6.251843   -2.123475    0.063201
     38          6           0       -8.687067   -4.806164   -0.891132
     39          6           0       -5.405441   -4.303462    0.129250
     40          8           0       -5.230892   -5.487849    0.252672
     41          6           0       -4.190491   -3.317102    0.645493
     42          6           0       -3.745071   -3.719075    2.079627
     43          8           0       -3.907067   -3.094095    3.151680
     44          8           0       -2.840417   -4.698845    1.971281
     45          6           0       -2.303704   -5.138119    3.184159
     46          6           0        2.830787   -0.760016   -1.091024
     47          6           0        4.078945   -0.566347   -0.471744
     48          6           0        5.099701    0.116903   -1.059933
     49          6           0        5.168527    0.979207   -2.258860
     50          6           0        6.436104    0.143230   -0.175624
     51          6           0        7.723078   -0.268150   -0.909771
     52          6           0        8.988870   -0.197619   -0.181414
     53          6           0       10.233537   -0.571985   -1.023065
     54          6           0       10.085199   -1.945984   -1.430997
     55          6           0       11.530041   -0.373847   -0.151182
     56          6           0       12.841045   -0.659213   -0.771284
     57          6           0       14.025305   -0.074910    0.066276
     58          6           0       15.384771   -0.215138   -0.513364
     59          6           0       15.765017   -1.603362   -1.030175
     60          6           0       16.502081    0.397116    0.359469
     61          6           0       17.801653    0.503737   -0.196743
     62          6           0       18.814497    1.293612    0.688648
     63          6           0       20.209261    1.412223    0.298821
     64          6           0       20.294622    2.315586   -0.914405
     65          6           0       20.970378    2.135238    1.421411
     66          1           0       -3.875855    3.472658    1.614567
     67          1           0      -10.082408    3.965187   -1.027413
     68          1           0      -10.294729   -2.326679   -1.217647
     69          1           0       -2.724186   -0.992893    1.970647
     70          1           0       -2.261853    1.923981    1.112536
     71          1           0       -1.900183    1.097511    3.436440
     72          1           0       -3.152293    2.238945    3.486595
     73          1           0       -3.464004    0.519173    3.770155
     74          1           0       -1.982969   -1.750422   -0.414397
     75          1           0       -2.012462    0.270834   -0.678767
     76          1           0       -0.174821    0.419396    1.103041
     77          1           0       -0.352498   -1.437730    1.451446
     78          1           0       -5.673020    6.836704    0.730754
     79          1           0       -5.888461    5.927190    2.525374
     80          1           0       -4.545264    5.564049    1.116975
     81          1           0       -9.185724    6.052440   -0.771484
     82          1           0       -9.012895    8.142994    0.627653
     83          1           0       -7.964069    7.511398    1.813485
     84          1           0      -11.879092    3.178556   -2.470808
     85          1           0      -12.954437    1.956937   -2.372911
     86          1           0      -12.655826    3.039092   -0.818886
     87          1           0      -12.737044   -1.628313   -1.067075
     88          1           0      -13.512834   -0.118604   -1.427861
     89          1           0      -13.383050   -1.739844   -3.390162
     90          1           0      -12.345824   -0.324362   -3.724001
     91          1           0      -11.630957   -2.048541   -3.346445
     92          1           0       -9.173547   -4.859097   -1.941413
     93          1           0       -8.036462   -5.665651   -0.860562
     94          1           0       -9.355135   -4.972780   -0.029058
     95          1           0       -3.240179   -3.520325    0.046415
     96          1           0       -1.857913   -4.284178    3.672841
     97          1           0       -3.078446   -5.647467    3.847143
     98          1           0       -1.462810   -5.858989    2.792817
     99          1           0        2.879494   -1.781313   -1.604434
    100          1           0        2.508238    0.048441   -1.848457
    101          1           0        4.266573   -1.045293    0.598451
    102          1           0        4.208967    1.030355   -2.723605
    103          1           0        5.493999    2.081831   -2.155840
    104          1           0        6.007172    0.525700   -3.032680
    105          1           0        6.616417    1.299035    0.124419
    106          1           0        6.291319   -0.249015    0.841922
    107          1           0        7.511341   -1.344481   -1.335196
    108          1           0        7.586790    0.433514   -1.758289
    109          1           0        9.098074    0.838200    0.110588
    110          1           0        9.069926   -0.758072    0.744368
    111          1           0       10.428052   -0.007440   -2.035586
    112          1           0        9.349022   -1.981911   -2.159416
    113          1           0       10.970396   -2.292683   -2.007019
    114          1           0       10.046212   -2.643452   -0.648977
    115          1           0       11.407305    0.652068    0.227841
    116          1           0       11.554241   -0.999295    0.760120
    117          1           0       13.025851   -1.695981   -0.877411
    118          1           0       12.642390   -0.184353   -1.910757
    119          1           0       13.858223    1.075537    0.403234
    120          1           0       14.083231   -0.638928    1.040758
    121          1           0       15.350135    0.500071   -1.313499
    122          1           0       15.716403   -2.311821   -0.012145
    123          1           0       15.147950   -2.280742   -1.794895
    124          1           0       16.785459   -1.483972   -1.599987
    125          1           0       16.088181    1.359046    0.777293
    126          1           0       16.597952   -0.103455    1.390583
    127          1           0       18.320872   -0.536442   -0.321518
    128          1           0       17.932717    0.997297   -1.374958
    129          1           0       18.439599    2.319476    0.875437
    130          1           0       18.633816    0.602737    1.621498
    131          1           0       20.583322    0.436248   -0.023515
    132          1           0       19.721974    3.308014   -0.817762
    133          1           0       21.325320    2.565108   -1.211418
    134          1           0       19.700905    1.887505   -1.965666
    135          1           0       21.132857    1.364824    2.371525
    136          1           0       22.182331    2.381766    1.110164
    137          1           0       20.335853    3.024502    1.860164
 ---------------------------------------------------------------------

 SCF Done:  E(RCAM-B3LYP) =  -2932.68022486     A.U. after   18 cycles

 Excitation energies and oscillator strengths:

 Excited State   1:      Singlet-A      2.0249 eV  612.31 nm  f=0.2813  <S**2>=0.000
     240 -> 242       -0.15143
     240 -> 243        0.21109
     241 -> 242        0.64330
     241 -> 243        0.10448
 This state for optimization and/or second-order correction.
 Total Energy, E(TD-HF/TD-KS) =  -2932.60581245
 Copying the excited state density for this state as the 1-particle RhoCI density.

 The electronic state is 1-A.
 Alpha  occ. eigenvalues --  -46.85265 -19.26329 -19.25487 -19.21452 -19.20512
 Alpha  occ. eigenvalues --  -19.19899 -14.41507 -14.40339 -14.39762 -14.39727
 Alpha  occ. eigenvalues --  -10.39249 -10.39192 -10.34805 -10.32073 -10.31575
 Alpha  occ. eigenvalues --  -10.30808 -10.30724 -10.30506 -10.30359 -10.29197
 Alpha  occ. eigenvalues --  -10.29168 -10.29118 -10.29046 -10.29037 -10.28958
 Alpha  occ. eigenvalues --  -10.28706 -10.28599 -10.28591 -10.28478 -10.28358
 Alpha  occ. eigenvalues --  -10.28070 -10.28065 -10.28011 -10.27784 -10.27484
 Alpha  occ. eigenvalues --  -10.27215 -10.27205 -10.27143 -10.27100 -10.27082
 Alpha  occ. eigenvalues --  -10.26958 -10.26891 -10.26852 -10.26851 -10.26693
 Alpha  occ. eigenvalues --  -10.26614 -10.26582 -10.26512 -10.26360 -10.26327
 Alpha  occ. eigenvalues --  -10.26149 -10.26126 -10.26001 -10.25937 -10.25837
 Alpha  occ. eigenvalues --  -10.25758 -10.25700 -10.25578 -10.25507 -10.25437
 Alpha  occ. eigenvalues --  -10.25062 -10.24711 -10.24711 -10.24355 -10.22320
 Alpha  occ. eigenvalues --   -3.14245  -1.88959  -1.88512  -1.88393  -1.18741
 Alpha  occ. eigenvalues --   -1.17844  -1.11401  -1.09510  -1.07392  -1.06587
 Alpha  occ. eigenvalues --   -1.05326  -1.03531  -1.02887  -0.91711  -0.91277
 Alpha  occ. eigenvalues --   -0.90776  -0.90415  -0.89771  -0.89429  -0.89350
 Alpha  occ. eigenvalues --   -0.89070  -0.88482  -0.87564  -0.87141  -0.86218
 Alpha  occ. eigenvalues --   -0.85565  -0.84249  -0.83401  -0.82867  -0.82208
 Alpha  occ. eigenvalues --   -0.81819  -0.81049  -0.80533  -0.79812  -0.78605
 Alpha  occ. eigenvalues --   -0.78098  -0.76948  -0.76074  -0.75545  -0.75146
 Alpha  occ. eigenvalues --   -0.74551  -0.74089  -0.73463  -0.73247  -0.72360
 Alpha  occ. eigenvalues --   -0.71251  -0.69891  -0.69183  -0.68858  -0.68378
 Alpha  occ. eigenvalues --   -0.67959  -0.65553  -0.64746  -0.64521  -0.63626
 Alpha  occ. eigenvalues --   -0.63514  -0.62637  -0.62367  -0.62125  -0.61946
 Alpha  occ. eigenvalues --   -0.61695  -0.60278  -0.60046  -0.59442  -0.59374
 Alpha  occ. eigenvalues --   -0.58635  -0.58113  -0.57093  -0.56577  -0.56334
 Alpha  occ. eigenvalues --   -0.56207  -0.55624  -0.55301  -0.54982  -0.54571
 Alpha  occ. eigenvalues --   -0.54318  -0.54155  -0.53800  -0.53698  -0.53353
 Alpha  occ. eigenvalues --   -0.52865  -0.52634  -0.52018  -0.51953  -0.51558
 Alpha  occ. eigenvalues --   -0.51101  -0.50880  -0.50784  -0.50670  -0.50543
 Alpha  occ. eigenvalues --   -0.50375  -0.50273  -0.50200  -0.50044  -0.49439
 Alpha  occ. eigenvalues --   -0.49165  -0.49099  -0.48864  -0.48662  -0.48251
 Alpha  occ. eigenvalues --   -0.48047  -0.47985  -0.47423  -0.47304  -0.47271
 Alpha  occ. eigenvalues --   -0.46912  -0.46642  -0.46352  -0.46142  -0.46003
 Alpha  occ. eigenvalues --   -0.45800  -0.45702  -0.45272  -0.45194  -0.44978
 Alpha  occ. eigenvalues --   -0.44776  -0.44576  -0.44534  -0.44143  -0.43728
 Alpha  occ. eigenvalues --   -0.43557  -0.43522  -0.43389  -0.43185  -0.42869
 Alpha  occ. eigenvalues --   -0.42676  -0.42616  -0.42286  -0.42089  -0.41952
 Alpha  occ. eigenvalues --   -0.41890  -0.41839  -0.41403  -0.41189  -0.41111
 Alpha  occ. eigenvalues --   -0.40915  -0.40746  -0.40668  -0.40183  -0.39938
 Alpha  occ. eigenvalues --   -0.39878  -0.39615  -0.39188  -0.39088  -0.38879
 Alpha  occ. eigenvalues --   -0.38635  -0.38535  -0.38452  -0.37979  -0.37926
 Alpha  occ. eigenvalues --   -0.37690  -0.37344  -0.36922  -0.36790  -0.36388
 Alpha  occ. eigenvalues --   -0.36077  -0.35871  -0.35797  -0.35782  -0.35590
 Alpha  occ. eigenvalues --   -0.35562  -0.35092  -0.34523  -0.34222  -0.33781
 Alpha  occ. eigenvalues --   -0.33471  -0.33055  -0.32000  -0.31340  -0.30890
 Alpha  occ. eigenvalues --   -0.29409  -0.29271  -0.29031  -0.26895  -0.22897
 Alpha  occ. eigenvalues --   -0.20813
 Alpha virt. eigenvalues --   -0.06341  -0.02579   0.01916   0.03312   0.05183
 Alpha virt. eigenvalues --    0.05323   0.05604   0.06206   0.06265   0.07244
 Alpha virt. eigenvalues --    0.08213   0.10093   0.10990   0.11193   0.11296

 Mulliken charges:
               1
     1  Mg   0.830750
     2  C    0.056795
     3  C   -0.223676
     4  C   -0.187724
     5  C   -0.176345
     6  N   -0.639257
     7  C    0.293671
     8  C   -0.154158
     9  C   -0.162543
    10  C    0.347950
    11  C   -0.290391
    12  C   -0.155910
    13  C   -0.259151
    14  C    0.616123
    15  O   -0.456913
    16  O   -0.503335
    17  N   -0.688429
    18  C    0.328944
    19  C   -0.005864
    20  C    0.045318
    21  C    0.302584
    22  C   -0.334998
    23  C   -0.125444
    24  C   -0.254335
    25  N   -0.630861
    26  C    0.273219
    27  C    0.006619
    28  C    0.076865
    29  C    0.241167
    30  C   -0.382560
    31  C   -0.251994
    32  C   -0.303994
    33  N   -0.692152
    34  C    0.232215
    35  C    0.016032
    36  C    0.053379
    37  C    0.293832
    38  C   -0.380553
    39  C    0.333544
    40  O   -0.447209
    41  C   -0.330021
    42  C    0.621958
    43  O   -0.495780
    44  O   -0.420921
    45  C   -0.079722
    46  C    0.022488
    47  C   -0.134916
    48  C    0.132248
    49  C   -0.363197
    50  C   -0.226187
    51  C   -0.167592
    52  C   -0.158110
    53  C   -0.072470
    54  C   -0.296122
    55  C   -0.164740
    56  C   -0.159451
    57  C   -0.178547
    58  C   -0.041177
    59  C   -0.297472
    60  C   -0.163701
    61  C   -0.163535
    62  C   -0.147083
    63  C   -0.045566
    64  C   -0.288105
    65  C   -0.276282
    66  H    0.073096
    67  H    0.097631
    68  H    0.085388
    69  H    0.123350
    70  H    0.097634
    71  H    0.118253
    72  H    0.120887
    73  H    0.114558
    74  H    0.114738
    75  H    0.097078
    76  H    0.141841
    77  H    0.115137
    78  H    0.119215
    79  H    0.106440
    80  H    0.123851
    81  H    0.093128
    82  H    0.110301
    83  H    0.105444
    84  H    0.111842
    85  H    0.101172
    86  H    0.135467
    87  H    0.104988
    88  H    0.090653
    89  H    0.105977
    90  H    0.113238
    91  H    0.110486
    92  H    0.117282
    93  H    0.148097
    94  H    0.133970
    95  H    0.152367
    96  H    0.129483
    97  H    0.128928
    98  H    0.109853
    99  H    0.129970
   100  H    0.115985
   101  H    0.105738
   102  H    0.114429
   103  H    0.122904
   104  H    0.105408
   105  H    0.062035
   106  H    0.089551
   107  H    0.083762
   108  H    0.095275
   109  H    0.090172
   110  H    0.100316
   111  H    0.067460
   112  H    0.109759
   113  H    0.085219
   114  H    0.102089
   115  H    0.086071
   116  H    0.079328
   117  H    0.110249
   118  H    0.052411
   119  H    0.071394
   120  H    0.080348
   121  H    0.099826
   122  H    0.069616
   123  H    0.094594
   124  H    0.103520
   125  H    0.089303
   126  H    0.078845
   127  H    0.088491
   128  H    0.049262
   129  H    0.085455
   130  H    0.071096
   131  H    0.097351
   132  H    0.093934
   133  H    0.103270
   134  H    0.060144
   135  H    0.077519
   136  H    0.074755
   137  H    0.104164
 Sum of Mulliken charges =   0.00000

 Dipole moment (field-independent basis, Debye):
    X=              0.6226    Y=              4.2371    Z=              0.0992  Tot=              4.2837
 Quadrupole moment (field-independent basis, Debye-Ang):
   XX=           -349.0584   YY=           -395.1412   ZZ=           -399.0696
   XY=            -21.0135   XZ=             16.6824   YZ=             -0.0770

 Normal termination of Gaussian 09 at Thu Jul  4 09:12:37 2019.
