 Gaussian 09, Revision D.01,
 Gaussian 09:  ES64L-G09RevD.01 24-Apr-2013

 -------------------------------------
 # td=(NStates=1) CAM-B3LYP/6-31G(d,p)
 -------------------------------------

 --
 TD
 --
 Symbolic Z-matrix:
 Charge =  0 Multiplicity = 1

                         Standard orientation:
 ---------------------------------------------------------------------
 Center     Atomic      Atomic             Coordinates (Angstroms)
 Number     Number       Type             X           Y           Z
 ---------------------------------------------------------------------
      1         12           0       -7.206401    0.579785    0.151856
      2          6           0       -4.860232   -1.977858    0.433872
      3          6           0       -4.858355    2.821063    1.361670
      4          6           0       -9.436409    3.067903   -0.389265
      5          6           0       -9.592901   -1.739971   -0.685424
      6          7           0       -5.044664    0.390689    0.733095
      7          6           0       -4.262027   -0.720387    0.748458
      8          6           0       -2.852752   -0.414557    1.221387
      9          6           0       -2.941877    1.058977    1.733528
     10          6           0       -4.318265    1.495192    1.235714
     11          6           0       -3.030674    1.108595    3.283648
     12          6           0       -2.000211   -0.551155    0.064148
     13          6           0       -0.446355   -0.373011    0.501221
     14          6           0        0.440092   -0.609129   -0.675345
     15          8           0        0.106211   -0.928747   -1.828094
     16          8           0        1.678509   -0.435640   -0.343708
     17          7           0       -7.139678    2.584287    0.323902
     18          6           0       -6.112107    3.302352    0.777785
     19          6           0       -6.327648    4.776663    0.862095
     20          6           0       -7.645785    4.851403    0.355244
     21          6           0       -8.147343    3.499572    0.020463
     22          6           0       -5.409500    5.874320    1.135289
     23          6           0       -8.413416    6.056221    0.075879
     24          6           0       -8.395602    7.100395    0.924586
     25          7           0       -9.158449    0.655927   -0.421845
     26          6           0       -9.929757    1.755643   -0.581744
     27          6           0      -11.224988    1.508130   -1.217023
     28          6           0      -11.217945    0.142275   -1.275421
     29          6           0       -9.993585   -0.382081   -0.885334
     30          6           0      -12.196044    2.565756   -1.550415
     31          6           0      -12.384708   -0.715428   -1.695256
     32          6           0      -12.247698   -1.088011   -3.227836
     33          7           0       -7.209964   -1.408741   -0.150843
     34          6           0       -8.314608   -2.148088   -0.469244
     35          6           0       -7.907134   -3.613109   -0.463804
     36          6           0       -6.567012   -3.580816   -0.206497
     37          6           0       -6.131484   -2.163314    0.083819
     38          6           0       -8.835092   -4.647909   -0.782851
     39          6           0       -5.353168   -4.375954    0.165395
     40          8           0       -5.184953   -5.549763    0.118657
     41          6           0       -4.150325   -3.300551    0.606558
     42          6           0       -3.505819   -3.766980    1.846858
     43          8           0       -3.624557   -3.181803    2.961114
     44          8           0       -2.727335   -4.760361    1.652582
     45          6           0       -2.106461   -5.324063    2.827606
     46          6           0        2.801350   -0.588864   -1.353828
     47          6           0        4.126295   -0.487021   -0.675622
     48          6           0        5.130478    0.317871   -0.995162
     49          6           0        5.070238    1.325807   -2.243363
     50          6           0        6.429139    0.323539   -0.250224
     51          6           0        7.655598   -0.080634   -0.986896
     52          6           0        8.917645   -0.128395   -0.118385
     53          6           0       10.159060   -0.594155   -0.871830
     54          6           0       10.152935   -2.021662   -1.285131
     55          6           0       11.512589   -0.308670   -0.023392
     56          6           0       12.779907   -0.515650   -0.633443
     57          6           0       13.936886   -0.072738    0.264464
     58          6           0       15.384453   -0.211022   -0.347242
     59          6           0       15.800044   -1.688142   -0.566459
     60          6           0       16.442145    0.589052    0.484741
     61          6           0       17.801852    0.516647   -0.174587
     62          6           0       18.777345    1.353856    0.694825
     63          6           0       20.205047    1.295929    0.139378
     64          6           0       20.404684    2.004338   -1.172722
     65          6           0       21.229224    1.951101    1.187613
     66          1           0       -3.974163    3.550259    1.715342
     67          1           0      -10.129816    3.981666   -0.644205
     68          1           0      -10.419754   -2.324383   -1.031634
     69          1           0       -2.573667   -1.237805    1.861521
     70          1           0       -2.098711    1.596915    1.341625
     71          1           0       -2.039717    0.901770    3.599674
     72          1           0       -2.969072    2.080876    3.593255
     73          1           0       -3.845581    0.450478    3.711496
     74          1           0       -2.108679   -1.571248   -0.347247
     75          1           0       -2.096296    0.315473   -0.819750
     76          1           0       -0.378912    0.550128    0.914167
     77          1           0       -0.373894   -1.201068    1.305700
     78          1           0       -5.875563    6.911029    0.635465
     79          1           0       -5.364116    6.002941    2.256258
     80          1           0       -4.461907    5.686066    0.551778
     81          1           0       -9.212687    5.755102   -0.583308
     82          1           0       -9.028818    7.885333    0.579512
     83          1           0       -7.831536    7.070448    1.842976
     84          1           0      -11.995181    3.189160   -2.173607
     85          1           0      -13.217612    2.029926   -1.810442
     86          1           0      -12.437136    3.270111   -0.604290
     87          1           0      -12.367824   -1.757838   -1.222565
     88          1           0      -13.513377   -0.160278   -1.504522
     89          1           0      -13.147868   -1.836272   -3.421120
     90          1           0      -12.419287   -0.136282   -3.722027
     91          1           0      -11.123588   -1.575049   -3.154700
     92          1           0       -9.086841   -4.606319   -1.808909
     93          1           0       -8.322571   -5.558200   -0.548370
     94          1           0       -9.868929   -4.516517   -0.184643
     95          1           0       -3.345876   -3.452661   -0.156385
     96          1           0       -1.378090   -4.564047    3.324223
     97          1           0       -2.785600   -5.435213    3.517308
     98          1           0       -1.622784   -6.293260    2.420544
     99          1           0        2.454503   -1.515701   -1.959081
    100          1           0        2.719395    0.214944   -2.038876
    101          1           0        4.054236   -1.083174    0.390634
    102          1           0        4.021660    1.427596   -2.373920
    103          1           0        5.541263    2.274244   -2.172398
    104          1           0        5.500352    0.725442   -3.133754
    105          1           0        6.501056    1.176120    0.051545
    106          1           0        6.270748   -0.266185    0.642027
    107          1           0        7.566829   -0.986040   -1.313148
    108          1           0        7.688901    0.647773   -1.922887
    109          1           0        9.111064    0.893221    0.436124
    110          1           0        8.837228   -0.920245    0.552179
    111          1           0       10.107508    0.068726   -1.702491
    112          1           0        9.177346   -2.360246   -1.891727
    113          1           0       10.954192   -2.231695   -2.075428
    114          1           0       10.139071   -2.837780   -0.330903
    115          1           0       11.304282    0.691747    0.404020
    116          1           0       11.444561   -1.070929    0.873612
    117          1           0       12.873707   -1.643440   -1.035783
    118          1           0       12.922208   -0.023622   -1.668463
    119          1           0       13.721755    0.941721    0.513103
    120          1           0       13.886007   -0.559031    1.150597
    121          1           0       15.380436   -0.051729   -1.418603
    122          1           0       16.100987   -2.176295    0.516574
    123          1           0       14.774311   -2.202358   -1.060577
    124          1           0       16.615578   -1.764107   -1.481062
    125          1           0       16.201153    1.661843    0.788026
    126          1           0       16.460793   -0.009856    1.423619
    127          1           0       18.140534   -0.463593   -0.256216
    128          1           0       17.691118    0.894472   -1.148368
    129          1           0       18.334197    2.407946    0.705242
    130          1           0       18.789324    1.063383    1.762341
    131          1           0       20.574445    0.159589    0.101035
    132          1           0       19.957546    3.134642   -1.033386
    133          1           0       21.452375    2.223734   -1.368538
    134          1           0       19.686189    1.485600   -1.966320
    135          1           0       21.462442    1.291679    2.068262
    136          1           0       22.223586    2.221994    0.721372
    137          1           0       20.897333    3.056679    1.726658
 ---------------------------------------------------------------------

 SCF Done:  E(RCAM-B3LYP) =  -2932.62128049     A.U. after   16 cycles

 Excitation energies and oscillator strengths:

 Excited State   1:      Singlet-A      2.0987 eV  590.78 nm  f=0.1777  <S**2>=0.000
     240 -> 243        0.29249
     241 -> 242        0.63814
 This state for optimization and/or second-order correction.
 Total Energy, E(TD-HF/TD-KS) =  -2932.54415641
 Copying the excited state density for this state as the 1-particle RhoCI density.

 The electronic state is 1-A.
 Alpha  occ. eigenvalues --  -46.84150 -19.27732 -19.25980 -19.21399 -19.19382
 Alpha  occ. eigenvalues --  -19.19364 -14.41559 -14.39822 -14.39085 -14.38550
 Alpha  occ. eigenvalues --  -10.38903 -10.38584 -10.36055 -10.32786 -10.32100
 Alpha  occ. eigenvalues --  -10.31316 -10.31007 -10.30359 -10.29236 -10.29211
 Alpha  occ. eigenvalues --  -10.28967 -10.28648 -10.28617 -10.28480 -10.28375
 Alpha  occ. eigenvalues --  -10.28065 -10.28026 -10.27791 -10.27751 -10.27713
 Alpha  occ. eigenvalues --  -10.27674 -10.27632 -10.27627 -10.27416 -10.27396
 Alpha  occ. eigenvalues --  -10.27350 -10.27273 -10.27045 -10.26933 -10.26732
 Alpha  occ. eigenvalues --  -10.26596 -10.26406 -10.26394 -10.26381 -10.26365
 Alpha  occ. eigenvalues --  -10.26340 -10.26302 -10.26207 -10.26202 -10.26114
 Alpha  occ. eigenvalues --  -10.26004 -10.25991 -10.25953 -10.25835 -10.25831
 Alpha  occ. eigenvalues --  -10.25726 -10.25673 -10.25563 -10.25514 -10.25280
 Alpha  occ. eigenvalues --  -10.25021 -10.24915 -10.24169 -10.23819 -10.23684
 Alpha  occ. eigenvalues --   -3.13187  -1.87892  -1.87414  -1.87374  -1.20750
 Alpha  occ. eigenvalues --   -1.18051  -1.13295  -1.06690  -1.06566  -1.03978
 Alpha  occ. eigenvalues --   -1.03091  -1.02547  -1.01790  -0.92527  -0.92175
 Alpha  occ. eigenvalues --   -0.90915  -0.90625  -0.89846  -0.88998  -0.88682
 Alpha  occ. eigenvalues --   -0.88196  -0.88011  -0.87396  -0.86970  -0.86526
 Alpha  occ. eigenvalues --   -0.85408  -0.84790  -0.84298  -0.83262  -0.82297
 Alpha  occ. eigenvalues --   -0.82124  -0.81261  -0.80477  -0.79640  -0.78981
 Alpha  occ. eigenvalues --   -0.77761  -0.77149  -0.76836  -0.76659  -0.75068
 Alpha  occ. eigenvalues --   -0.74442  -0.74072  -0.73870  -0.73327  -0.71978
 Alpha  occ. eigenvalues --   -0.71490  -0.70415  -0.69525  -0.67878  -0.67570
 Alpha  occ. eigenvalues --   -0.67415  -0.66854  -0.65194  -0.65034  -0.64996
 Alpha  occ. eigenvalues --   -0.64163  -0.63073  -0.62825  -0.62432  -0.62351
 Alpha  occ. eigenvalues --   -0.61165  -0.60727  -0.60473  -0.59278  -0.58568
 Alpha  occ. eigenvalues --   -0.58141  -0.57726  -0.57407  -0.57083  -0.56799
 Alpha  occ. eigenvalues --   -0.56366  -0.56024  -0.55748  -0.54953  -0.54895
 Alpha  occ. eigenvalues --   -0.54491  -0.54341  -0.54117  -0.53723  -0.53334
 Alpha  occ. eigenvalues --   -0.52925  -0.52526  -0.51792  -0.51703  -0.51643
 Alpha  occ. eigenvalues --   -0.51493  -0.51310  -0.50995  -0.50896  -0.50545
 Alpha  occ. eigenvalues --   -0.50408  -0.50309  -0.49784  -0.49657  -0.49510
 Alpha  occ. eigenvalues --   -0.49303  -0.48930  -0.48776  -0.48552  -0.48357
 Alpha  occ. eigenvalues --   -0.48227  -0.47817  -0.47495  -0.47350  -0.47191
 Alpha  occ. eigenvalues --   -0.47083  -0.46509  -0.46365  -0.46233  -0.46123
 Alpha  occ. eigenvalues --   -0.45925  -0.45817  -0.45521  -0.45399  -0.45197
 Alpha  occ. eigenvalues --   -0.44930  -0.44725  -0.44639  -0.44228  -0.44147
 Alpha  occ. eigenvalues --   -0.44079  -0.43902  -0.43490  -0.43359  -0.43271
 Alpha  occ. eigenvalues --   -0.43172  -0.42949  -0.42481  -0.42342  -0.41945
 Alpha  occ. eigenvalues --   -0.41883  -0.41696  -0.41637  -0.41469  -0.41236
 Alpha  occ. eigenvalues --   -0.40941  -0.40617  -0.40492  -0.40416  -0.40263
 Alpha  occ. eigenvalues --   -0.40156  -0.39679  -0.39548  -0.39071  -0.39036
 Alpha  occ. eigenvalues --   -0.38850  -0.38464  -0.38300  -0.37943  -0.37862
 Alpha  occ. eigenvalues --   -0.37512  -0.37355  -0.36687  -0.36581  -0.36225
 Alpha  occ. eigenvalues --   -0.36025  -0.35957  -0.35688  -0.35622  -0.35436
 Alpha  occ. eigenvalues --   -0.35314  -0.35054  -0.34848  -0.33301  -0.33155
 Alpha  occ. eigenvalues --   -0.32987  -0.32633  -0.31624  -0.30691  -0.30666
 Alpha  occ. eigenvalues --   -0.29868  -0.29649  -0.27717  -0.26834  -0.22860
 Alpha  occ. eigenvalues --   -0.20387
 Alpha virt. eigenvalues --   -0.05100  -0.03384   0.01724   0.04197   0.05478
 Alpha virt. eigenvalues --    0.05712   0.06145   0.06707   0.06920   0.07212
 Alpha virt. eigenvalues --    0.08530   0.10394   0.11028   0.11065   0.11689

 Mulliken charges:
               1
     1  Mg   0.831473
     2  C    0.093172
     3  C   -0.200776
     4  C   -0.183651
     5  C   -0.153922
     6  N   -0.613536
     7  C    0.315819
     8  C   -0.125578
     9  C   -0.162012
    10  C    0.298969
    11  C   -0.293657
    12  C   -0.182340
    13  C   -0.271110
    14  C    0.611799
    15  O   -0.512528
    16  O   -0.470328
    17  N   -0.687781
    18  C    0.293661
    19  C    0.048939
    20  C   -0.019029
    21  C    0.277999
    22  C   -0.379130
    23  C   -0.074391
    24  C   -0.240414
    25  N   -0.681475
    26  C    0.276319
    27  C    0.058313
    28  C    0.028615
    29  C    0.243830
    30  C   -0.346577
    31  C   -0.267499
    32  C   -0.275847
    33  N   -0.769332
    34  C    0.312218
    35  C    0.033658
    36  C   -0.017189
    37  C    0.312147
    38  C   -0.386231
    39  C    0.364293
    40  O   -0.421705
    41  C   -0.345240
    42  C    0.611164
    43  O   -0.536951
    44  O   -0.404788
    45  C   -0.079100
    46  C    0.005141
    47  C   -0.129242
    48  C    0.073638
    49  C   -0.361649
    50  C   -0.184545
    51  C   -0.165504
    52  C   -0.177558
    53  C   -0.062389
    54  C   -0.300705
    55  C   -0.160317
    56  C   -0.171332
    57  C   -0.165713
    58  C   -0.065940
    59  C   -0.292679
    60  C   -0.171189
    61  C   -0.180222
    62  C   -0.165036
    63  C   -0.038031
    64  C   -0.288414
    65  C   -0.310018
    66  H    0.078950
    67  H    0.079577
    68  H    0.075718
    69  H    0.130093
    70  H    0.104339
    71  H    0.101679
    72  H    0.113987
    73  H    0.140122
    74  H    0.120004
    75  H    0.097687
    76  H    0.136195
    77  H    0.126614
    78  H    0.105337
    79  H    0.125110
    80  H    0.123315
    81  H    0.088140
    82  H    0.103038
    83  H    0.120214
    84  H    0.135033
    85  H    0.094258
    86  H    0.099309
    87  H    0.098599
    88  H    0.069930
    89  H    0.090303
    90  H    0.119914
    91  H    0.094111
    92  H    0.146468
    93  H    0.142508
    94  H    0.114123
    95  H    0.157747
    96  H    0.120594
    97  H    0.154483
    98  H    0.129012
    99  H    0.142429
   100  H    0.126783
   101  H    0.089421
   102  H    0.118572
   103  H    0.127019
   104  H    0.122395
   105  H    0.110238
   106  H    0.091545
   107  H    0.111624
   108  H    0.070383
   109  H    0.074472
   110  H    0.101600
   111  H    0.092738
   112  H    0.082053
   113  H    0.110278
   114  H    0.078296
   115  H    0.085938
   116  H    0.073942
   117  H    0.075892
   118  H    0.078876
   119  H    0.096866
   120  H    0.100267
   121  H    0.085637
   122  H    0.079931
   123  H    0.078804
   124  H    0.088938
   125  H    0.085086
   126  H    0.086542
   127  H    0.107598
   128  H    0.102169
   129  H    0.083510
   130  H    0.094178
   131  H    0.074843
   132  H    0.075590
   133  H    0.113736
   134  H    0.091765
   135  H    0.099677
   136  H    0.093196
   137  H    0.062098
 Sum of Mulliken charges =   0.00000

 Dipole moment (field-independent basis, Debye):
    X=              3.8294    Y=              3.2438    Z=              0.7633  Tot=              5.0763
 Quadrupole moment (field-independent basis, Debye-Ang):
   XX=           -366.4306   YY=           -388.8835   ZZ=           -400.9805
   XY=            -14.2164   XZ=              6.2160   YZ=             -3.7883

 Normal termination of Gaussian 09 at Thu Jul  4 20:56:22 2019.
