 Gaussian 16, Revision A.03,
 Gaussian 16:  ES64L-G16RevA.03 25-Dec-2016

 ----------------------------------------------------------------------
 # td=(NStates=1) iop(3/107=0140000000,3/108=0140000000) CAM-B3LYP/6-31
 G(d,p)
 ----------------------------------------------------------------------

 --
 TD
 --
 Symbolic Z-matrix:
 Charge =  0 Multiplicity = 1

                         Standard orientation:
 ---------------------------------------------------------------------
 Center     Atomic      Atomic             Coordinates (Angstroms)
 Number     Number       Type             X           Y           Z
 ---------------------------------------------------------------------
      1         12           0       -7.055504    0.639149   -0.004492
      2          6           0       -4.870847   -1.976435    0.437440
      3          6           0       -4.727796    2.802139    1.088759
      4          6           0       -9.400879    3.274719   -0.411805
      5          6           0       -9.540203   -1.659924   -0.847337
      6          7           0       -5.193069    0.384585    0.770769
      7          6           0       -4.439588   -0.697757    0.715206
      8          6           0       -2.946184   -0.496278    1.137334
      9          6           0       -3.016648    0.907529    1.709526
     10          6           0       -4.396472    1.448237    1.134013
     11          6           0       -2.969514    1.043627    3.281327
     12          6           0       -1.949224   -0.669862    0.103557
     13          6           0       -0.445784   -0.517476    0.515244
     14          6           0        0.512904   -0.765234   -0.563543
     15          8           0        0.253206   -1.090342   -1.749931
     16          8           0        1.765699   -0.528610   -0.184863
     17          7           0       -7.056454    2.674917    0.240858
     18          6           0       -5.970710    3.286128    0.720209
     19          6           0       -6.351479    4.764627    0.878798
     20          6           0       -7.656728    4.904940    0.465994
     21          6           0       -8.048675    3.515528   -0.029942
     22          6           0       -5.416663    5.840922    1.332625
     23          6           0       -8.396634    6.143149    0.095548
     24          6           0       -8.148947    7.318399    0.627652
     25          7           0       -9.073736    0.862195   -0.493732
     26          6           0       -9.800714    1.995464   -0.708352
     27          6           0      -11.160247    1.620012   -1.149280
     28          6           0      -11.272044    0.249898   -1.238262
     29          6           0       -9.909009   -0.219904   -0.864400
     30          6           0      -12.178762    2.698422   -1.296134
     31          6           0      -12.417765   -0.658011   -1.640772
     32          6           0      -12.386333   -1.117702   -3.059376
     33          7           0       -7.191809   -1.356490   -0.276468
     34          6           0       -8.293211   -2.126382   -0.570295
     35          6           0       -7.935244   -3.527463   -0.624196
     36          6           0       -6.563264   -3.472605   -0.158258
     37          6           0       -6.208241   -2.158761    0.078439
     38          6           0       -8.768487   -4.725161   -0.887470
     39          6           0       -5.433667   -4.398756    0.212633
     40          8           0       -5.321486   -5.589292    0.208808
     41          6           0       -4.258901   -3.363667    0.541179
     42          6           0       -3.722991   -3.727611    1.874755
     43          8           0       -3.987315   -3.288365    3.000929
     44          8           0       -2.731732   -4.668392    1.741254
     45          6           0       -2.295205   -5.211179    2.981484
     46          6           0        2.791738   -0.845142   -1.175646
     47          6           0        4.121659   -0.514004   -0.502284
     48          6           0        5.174553    0.205333   -0.974904
     49          6           0        5.089842    0.882921   -2.264810
     50          6           0        6.386565    0.243158   -0.173477
     51          6           0        7.626759   -0.294643   -0.956146
     52          6           0        9.007753   -0.307384   -0.138150
     53          6           0       10.203923   -0.661615   -0.820272
     54          6           0       10.133798   -2.056343   -1.461938
     55          6           0       11.501238   -0.433631    0.013354
     56          6           0       12.855718   -0.519792   -0.774861
     57          6           0       14.018658   -0.178256    0.229019
     58          6           0       15.384493   -0.192610   -0.397535
     59          6           0       15.759470   -1.482729   -0.932533
     60          6           0       16.458218    0.371464    0.523955
     61          6           0       17.816665    0.521996   -0.194383
     62          6           0       18.749272    1.363718    0.698865
     63          6           0       20.137705    1.488142    0.196536
     64          6           0       20.280242    2.352010   -1.049690
     65          6           0       20.952789    2.152966    1.351813
     66          1           0       -4.002698    3.436018    1.717474
     67          1           0      -10.177019    4.120040   -0.624250
     68          1           0      -10.606818   -2.237977   -0.835934
     69          1           0       -2.672109   -1.125162    2.068389
     70          1           0       -2.097816    1.563876    1.509625
     71          1           0       -1.821589    0.746074    3.544535
     72          1           0       -3.173824    2.168781    3.698968
     73          1           0       -3.682034    0.285224    3.785467
     74          1           0       -1.939799   -1.621667   -0.584251
     75          1           0       -2.035263    0.057153   -0.714792
     76          1           0       -0.280326    0.513348    0.855898
     77          1           0       -0.297109   -1.189358    1.409237
     78          1           0       -5.392393    6.752749    0.683096
     79          1           0       -5.577749    5.980045    2.410658
     80          1           0       -4.381327    5.462046    1.486455
     81          1           0       -9.131084    5.879534   -0.611383
     82          1           0       -8.596877    8.240419    0.241924
     83          1           0       -7.353870    7.250338    1.243445
     84          1           0      -12.048782    3.092461   -2.355308
     85          1           0      -13.044128    2.294160   -1.496385
     86          1           0      -12.242449    3.487019   -0.504347
     87          1           0      -12.339807   -1.656569   -0.946391
     88          1           0      -13.617016   -0.166764   -1.378828
     89          1           0      -13.109057   -1.947879   -3.414819
     90          1           0      -12.573487   -0.223798   -3.851220
     91          1           0      -11.239975   -1.628226   -3.250469
     92          1           0       -9.398159   -4.524980   -1.866429
     93          1           0       -8.351077   -5.437622   -1.077246
     94          1           0       -9.294539   -4.810866    0.037655
     95          1           0       -3.522154   -3.622038   -0.125287
     96          1           0       -1.680917   -4.615000    3.399411
     97          1           0       -3.132530   -5.527059    3.714760
     98          1           0       -1.694942   -6.091884    2.670810
     99          1           0        2.774555   -1.704645   -1.471255
    100          1           0        2.691368   -0.311303   -2.280730
    101          1           0        4.311614   -0.639496    0.601486
    102          1           0        3.902879    0.955132   -2.858849
    103          1           0        5.509611    1.683770   -2.137534
    104          1           0        5.623378    0.418141   -3.222807
    105          1           0        6.840066    1.372803   -0.005391
    106          1           0        6.328000   -0.307288    0.691022
    107          1           0        7.595043   -1.461107   -1.258565
    108          1           0        7.685957    0.430186   -1.852052
    109          1           0        9.031789    0.736483    0.282628
    110          1           0        8.711261   -0.880950    0.736428
    111          1           0       10.287488   -0.069054   -1.746270
    112          1           0        9.137359   -2.322941   -2.104089
    113          1           0       10.986218   -2.215914   -2.211312
    114          1           0       10.103842   -2.709758   -0.613897
    115          1           0       11.739043    0.440510    0.563851
    116          1           0       11.678911   -1.092243    1.063023
    117          1           0       13.048801   -1.367719   -1.314384
    118          1           0       12.999004    0.218644   -1.614743
    119          1           0       13.827802    0.876738    0.855846
    120          1           0       14.067979   -0.964146    1.220631
    121          1           0       15.335413    0.416314   -1.280062
    122          1           0       15.850114   -2.219018   -0.293130
    123          1           0       14.974442   -1.964853   -1.490771
    124          1           0       16.765036   -1.438778   -1.547931
    125          1           0       16.315599    1.349497    0.740377
    126          1           0       16.639979   -0.297708    1.302300
    127          1           0       18.124892   -0.398873   -0.240511
    128          1           0       17.633330    0.941488   -1.191841
    129          1           0       18.455179    2.426649    0.902950
    130          1           0       18.689756    1.045462    1.771103
    131          1           0       20.601836    0.489246    0.059399
    132          1           0       19.912691    3.333163   -0.727930
    133          1           0       21.363148    2.618340   -1.341525
    134          1           0       19.678233    1.962461   -2.006151
    135          1           0       21.249667    1.427253    2.061484
    136          1           0       21.949580    2.435583    1.109315
    137          1           0       20.530974    3.064476    1.768480
 ---------------------------------------------------------------------

 SCF Done:  E(RCAM-B3LYP) =  -2933.35896347     A.U. after   15 cycles

 Excitation energies and oscillator strengths:

 Excited State   1:      Singlet-A      2.0380 eV  608.35 nm  f=0.2352  <S**2>=0.000
     240 -> 243        0.23319
     241 -> 242        0.66566
 This state for optimization and/or second-order correction.
 Total Energy, E(TD-HF/TD-DFT) =  -2933.28406682
 Copying the excited state density for this state as the 1-particle RhoCI density.

 The electronic state is 1-A.
 Alpha  occ. eigenvalues --  -46.79940 -19.22904 -19.21208 -19.16884 -19.16189
 Alpha  occ. eigenvalues --  -19.15927 -14.38368 -14.36116 -14.35443 -14.34945
 Alpha  occ. eigenvalues --  -10.34680 -10.33926 -10.30916 -10.27490 -10.27214
 Alpha  occ. eigenvalues --  -10.26519 -10.26169 -10.26112 -10.25586 -10.25552
 Alpha  occ. eigenvalues --  -10.25061 -10.24799 -10.24672 -10.24451 -10.24410
 Alpha  occ. eigenvalues --  -10.24165 -10.24051 -10.23978 -10.23839 -10.23642
 Alpha  occ. eigenvalues --  -10.23584 -10.23468 -10.23459 -10.23345 -10.23010
 Alpha  occ. eigenvalues --  -10.22840 -10.22758 -10.22698 -10.22632 -10.22621
 Alpha  occ. eigenvalues --  -10.22487 -10.22396 -10.22361 -10.22182 -10.22102
 Alpha  occ. eigenvalues --  -10.22097 -10.22091 -10.21944 -10.21891 -10.21891
 Alpha  occ. eigenvalues --  -10.21665 -10.21355 -10.21270 -10.21099 -10.20905
 Alpha  occ. eigenvalues --  -10.20870 -10.20795 -10.20508 -10.20223 -10.20125
 Alpha  occ. eigenvalues --  -10.20108 -10.18963 -10.18951 -10.18749 -10.18436
 Alpha  occ. eigenvalues --   -3.08668  -1.83602  -1.83148  -1.83074  -1.13401
 Alpha  occ. eigenvalues --   -1.11928  -1.07572  -1.02405  -1.02264  -1.00725
 Alpha  occ. eigenvalues --   -0.99563  -0.99189  -0.96432  -0.87867  -0.87066
 Alpha  occ. eigenvalues --   -0.86523  -0.85951  -0.85160  -0.84241  -0.84015
 Alpha  occ. eigenvalues --   -0.83924  -0.83054  -0.82851  -0.82134  -0.81640
 Alpha  occ. eigenvalues --   -0.80024  -0.79783  -0.79129  -0.78539  -0.78208
 Alpha  occ. eigenvalues --   -0.77295  -0.76757  -0.76429  -0.75838  -0.74232
 Alpha  occ. eigenvalues --   -0.73307  -0.72481  -0.72240  -0.72037  -0.71100
 Alpha  occ. eigenvalues --   -0.70904  -0.70532  -0.69736  -0.69017  -0.68366
 Alpha  occ. eigenvalues --   -0.66572  -0.66329  -0.65402  -0.63674  -0.63281
 Alpha  occ. eigenvalues --   -0.62957  -0.62261  -0.61291  -0.61171  -0.60431
 Alpha  occ. eigenvalues --   -0.60331  -0.59577  -0.59480  -0.58735  -0.58183
 Alpha  occ. eigenvalues --   -0.57944  -0.57005  -0.55913  -0.55541  -0.55138
 Alpha  occ. eigenvalues --   -0.54923  -0.54148  -0.53756  -0.53571  -0.53010
 Alpha  occ. eigenvalues --   -0.52642  -0.51862  -0.51808  -0.51376  -0.50830
 Alpha  occ. eigenvalues --   -0.50551  -0.50410  -0.50207  -0.49650  -0.49490
 Alpha  occ. eigenvalues --   -0.49347  -0.48992  -0.48895  -0.48637  -0.48424
 Alpha  occ. eigenvalues --   -0.48059  -0.47653  -0.47442  -0.46958  -0.46784
 Alpha  occ. eigenvalues --   -0.46674  -0.46617  -0.46323  -0.46142  -0.46054
 Alpha  occ. eigenvalues --   -0.45939  -0.45897  -0.45668  -0.45270  -0.45012
 Alpha  occ. eigenvalues --   -0.44785  -0.44317  -0.44139  -0.44032  -0.43943
 Alpha  occ. eigenvalues --   -0.43760  -0.43713  -0.43353  -0.42971  -0.42830
 Alpha  occ. eigenvalues --   -0.42611  -0.42467  -0.42259  -0.41840  -0.41645
 Alpha  occ. eigenvalues --   -0.41515  -0.41362  -0.40862  -0.40755  -0.40594
 Alpha  occ. eigenvalues --   -0.40460  -0.40284  -0.40181  -0.39991  -0.39792
 Alpha  occ. eigenvalues --   -0.39741  -0.39607  -0.39379  -0.38987  -0.38911
 Alpha  occ. eigenvalues --   -0.38722  -0.38380  -0.38175  -0.37828  -0.37734
 Alpha  occ. eigenvalues --   -0.37709  -0.37561  -0.37375  -0.37212  -0.36926
 Alpha  occ. eigenvalues --   -0.36538  -0.36467  -0.36361  -0.36174  -0.35739
 Alpha  occ. eigenvalues --   -0.35660  -0.35482  -0.35408  -0.35019  -0.34811
 Alpha  occ. eigenvalues --   -0.34729  -0.34405  -0.33930  -0.33752  -0.33347
 Alpha  occ. eigenvalues --   -0.33302  -0.33078  -0.32994  -0.32493  -0.32366
 Alpha  occ. eigenvalues --   -0.32254  -0.32012  -0.31916  -0.30627  -0.30508
 Alpha  occ. eigenvalues --   -0.30019  -0.29819  -0.29491  -0.28827  -0.27018
 Alpha  occ. eigenvalues --   -0.26581  -0.26467  -0.25859  -0.25089  -0.22171
 Alpha  occ. eigenvalues --   -0.19850
 Alpha virt. eigenvalues --   -0.06905  -0.04000   0.00312   0.02520   0.03121
 Alpha virt. eigenvalues --    0.03476   0.04005   0.04304   0.05160   0.05245
 Alpha virt. eigenvalues --    0.06460   0.08080   0.08191   0.08503   0.09664

 Mulliken charges:
               1
     1  Mg   0.818120
     2  C    0.082037
     3  C   -0.196638
     4  C   -0.160281
     5  C   -0.171729
     6  N   -0.653440
     7  C    0.302486
     8  C   -0.140435
     9  C   -0.141830
    10  C    0.326324
    11  C   -0.299004
    12  C   -0.173626
    13  C   -0.274829
    14  C    0.619522
    15  O   -0.506269
    16  O   -0.455973
    17  N   -0.693510
    18  C    0.354073
    19  C    0.006031
    20  C   -0.024553
    21  C    0.266208
    22  C   -0.397321
    23  C   -0.024242
    24  C   -0.246933
    25  N   -0.675470
    26  C    0.324301
    27  C   -0.012254
    28  C    0.081271
    29  C    0.236133
    30  C   -0.371227
    31  C   -0.230840
    32  C   -0.270253
    33  N   -0.737343
    34  C    0.287597
    35  C   -0.007387
    36  C   -0.058086
    37  C    0.352120
    38  C   -0.293575
    39  C    0.371694
    40  O   -0.439266
    41  C   -0.309726
    42  C    0.621113
    43  O   -0.500964
    44  O   -0.455292
    45  C   -0.071403
    46  C    0.050998
    47  C   -0.168361
    48  C    0.184719
    49  C   -0.338204
    50  C   -0.233440
    51  C   -0.179718
    52  C   -0.170506
    53  C   -0.044451
    54  C   -0.311856
    55  C   -0.161211
    56  C   -0.184950
    57  C   -0.161803
    58  C   -0.051156
    59  C   -0.311632
    60  C   -0.167302
    61  C   -0.185312
    62  C   -0.164242
    63  C   -0.053243
    64  C   -0.291689
    65  C   -0.333357
    66  H    0.089084
    67  H    0.103514
    68  H    0.093809
    69  H    0.116864
    70  H    0.096216
    71  H    0.086824
    72  H    0.095756
    73  H    0.129463
    74  H    0.119309
    75  H    0.117708
    76  H    0.138413
    77  H    0.134781
    78  H    0.131124
    79  H    0.130796
    80  H    0.100119
    81  H    0.075809
    82  H    0.102038
    83  H    0.094638
    84  H    0.112815
    85  H    0.115253
    86  H    0.123873
    87  H    0.091084
    88  H    0.069162
    89  H    0.105703
    90  H    0.094480
    91  H    0.081576
    92  H    0.098137
    93  H    0.123025
    94  H    0.139710
    95  H    0.163816
    96  H    0.127794
    97  H    0.124182
    98  H    0.110875
    99  H    0.142154
   100  H    0.097331
   101  H    0.082760
   102  H    0.072200
   103  H    0.123033
   104  H    0.105282
   105  H    0.075171
   106  H    0.104808
   107  H    0.078846
   108  H    0.083222
   109  H    0.080331
   110  H    0.091615
   111  H    0.092985
   112  H    0.087564
   113  H    0.098137
   114  H    0.111749
   115  H    0.109923
   116  H    0.056117
   117  H    0.109330
   118  H    0.087712
   119  H    0.064045
   120  H    0.046217
   121  H    0.081744
   122  H    0.110073
   123  H    0.091806
   124  H    0.087217
   125  H    0.096981
   126  H    0.093743
   127  H    0.108674
   128  H    0.090330
   129  H    0.077291
   130  H    0.087177
   131  H    0.079855
   132  H    0.098890
   133  H    0.094428
   134  H    0.084069
   135  H    0.105779
   136  H    0.094441
   137  H    0.100604
 Sum of Mulliken charges =  -0.00000

 Dipole moment (field-independent basis, Debye):
    X=              1.7704    Y=              3.7837    Z=              0.0679  Tot=              4.1780
 Quadrupole moment (field-independent basis, Debye-Ang):
   XX=           -336.5782   YY=           -398.3185   ZZ=           -398.4448
   XY=            -16.5907   XZ=             16.9298   YZ=              0.2030

 Normal termination of Gaussian 16 at Wed Sep  4 08:19:36 2019.
