 Gaussian 16, Revision A.03,
 Gaussian 16:  ES64L-G16RevA.03 25-Dec-2016

 ----------------------------------------------------------------------
 # td=(NStates=1) iop(3/107=0140000000,3/108=0140000000) CAM-B3LYP/6-31
 G(d,p)
 ----------------------------------------------------------------------

 --
 TD
 --
 Symbolic Z-matrix:
 Charge =  0 Multiplicity = 1

                         Standard orientation:
 ---------------------------------------------------------------------
 Center     Atomic      Atomic             Coordinates (Angstroms)
 Number     Number       Type             X           Y           Z
 ---------------------------------------------------------------------
      1         12           0       -7.181872    0.602995    0.107663
      2          6           0       -4.905320   -1.990897    0.451151
      3          6           0       -4.757628    2.859787    1.092943
      4          6           0       -9.398379    3.030854   -0.428412
      5          6           0       -9.475610   -1.766641   -0.982297
      6          7           0       -5.057608    0.485310    0.734868
      7          6           0       -4.380211   -0.699106    0.674092
      8          6           0       -2.906044   -0.422646    1.232889
      9          6           0       -3.082756    1.056431    1.853804
     10          6           0       -4.357876    1.527365    1.278288
     11          6           0       -2.988399    1.085748    3.253126
     12          6           0       -1.790828   -0.624674    0.213266
     13          6           0       -0.499946   -0.412524    0.667232
     14          6           0        0.546542   -0.538007   -0.495961
     15          8           0        0.312475   -0.888423   -1.566889
     16          8           0        1.741821   -0.392247   -0.013201
     17          7           0       -7.070914    2.622881    0.266241
     18          6           0       -6.008856    3.387969    0.795456
     19          6           0       -6.370652    4.807110    0.741436
     20          6           0       -7.651096    4.858375    0.313789
     21          6           0       -8.101189    3.476812    0.008149
     22          6           0       -5.480651    5.885309    1.280340
     23          6           0       -8.547568    5.967154    0.260214
     24          6           0       -8.468113    7.112075    0.934600
     25          7           0       -9.038415    0.603233   -0.619012
     26          6           0       -9.892873    1.816826   -0.721756
     27          6           0      -11.198114    1.475795   -1.350448
     28          6           0      -11.278484    0.127836   -1.341528
     29          6           0       -9.880168   -0.365620   -0.986812
     30          6           0      -12.305599    2.490277   -1.571512
     31          6           0      -12.436428   -0.673176   -1.814569
     32          6           0      -12.297075   -0.982173   -3.375745
     33          7           0       -7.216929   -1.393936   -0.130064
     34          6           0       -8.221679   -2.277868   -0.583332
     35          6           0       -7.810084   -3.624987   -0.634567
     36          6           0       -6.450746   -3.570216   -0.160735
     37          6           0       -6.195597   -2.184245    0.138130
     38          6           0       -8.700457   -4.822234   -0.872455
     39          6           0       -5.176149   -4.341735    0.106423
     40          8           0       -5.127896   -5.605140    0.194091
     41          6           0       -4.114340   -3.257209    0.545518
     42          6           0       -3.459753   -3.653457    1.892573
     43          8           0       -3.712956   -3.162424    2.930738
     44          8           0       -2.753514   -4.774272    1.798127
     45          6           0       -2.330551   -5.439663    2.983574
     46          6           0        2.792546   -0.719463   -1.033564
     47          6           0        4.090923   -0.436987   -0.337377
     48          6           0        5.112876    0.336538   -0.870800
     49          6           0        5.081662    1.171933   -2.099691
     50          6           0        6.505210    0.449115   -0.184184
     51          6           0        7.716006   -0.034286   -1.002628
     52          6           0        8.939421   -0.143495   -0.074558
     53          6           0       10.216914   -0.588414   -0.892631
     54          6           0       10.021426   -2.000522   -1.278999
     55          6           0       11.490367   -0.387120   -0.053148
     56          6           0       12.824667   -0.516811   -0.776789
     57          6           0       13.992202   -0.226191    0.127890
     58          6           0       15.352972   -0.355725   -0.452899
     59          6           0       15.749698   -1.808400   -0.735748
     60          6           0       16.367110    0.310372    0.431167
     61          6           0       17.734613    0.676882   -0.326035
     62          6           0       18.725622    1.259725    0.719313
     63          6           0       20.157239    1.435563    0.123060
     64          6           0       20.107822    2.289750   -1.238738
     65          6           0       21.092288    2.087322    1.139840
     66          1           0       -3.925035    3.596946    1.422982
     67          1           0      -10.159932    3.817077   -0.360075
     68          1           0      -10.250549   -2.403685   -1.234502
     69          1           0       -2.692314   -1.151310    1.875184
     70          1           0       -2.340551    1.680362    1.372657
     71          1           0       -2.154612    0.497814    3.895338
     72          1           0       -3.124713    2.008284    3.781954
     73          1           0       -3.959163    0.667212    3.676668
     74          1           0       -2.034168   -1.565364   -0.478027
     75          1           0       -1.899835    0.228323   -0.498094
     76          1           0       -0.528219    0.688021    1.106268
     77          1           0       -0.159517   -1.206605    1.437200
     78          1           0       -5.646111    6.931591    0.744137
     79          1           0       -5.772247    6.296507    2.306383
     80          1           0       -4.409924    5.598290    1.231946
     81          1           0       -9.507287    5.739426   -0.349968
     82          1           0       -9.272485    7.901584    1.019248
     83          1           0       -7.612801    7.433335    1.578250
     84          1           0      -11.846240    3.142828   -2.402682
     85          1           0      -13.252645    2.174188   -1.860850
     86          1           0      -12.487492    3.239327   -0.728034
     87          1           0      -12.454531   -1.631383   -1.230802
     88          1           0      -13.287508    0.043097   -1.556282
     89          1           0      -13.392720   -1.301079   -3.819072
     90          1           0      -12.147786   -0.039066   -3.798563
     91          1           0      -11.504476   -1.843337   -3.636635
     92          1           0       -8.865032   -4.755827   -1.867994
     93          1           0       -8.251529   -5.788341   -0.692456
     94          1           0       -9.548619   -4.803726   -0.332465
     95          1           0       -3.274976   -3.298712   -0.109885
     96          1           0       -1.582734   -4.749482    3.217887
     97          1           0       -3.094140   -5.419508    3.673987
     98          1           0       -1.764193   -6.281034    2.634355
     99          1           0        2.737286   -1.768629   -1.258033
    100          1           0        2.578802   -0.024122   -1.903358
    101          1           0        4.326306   -1.003329    0.721862
    102          1           0        3.966513    1.082485   -2.644247
    103          1           0        5.289203    2.303555   -1.878902
    104          1           0        5.451704    0.693958   -3.037036
    105          1           0        6.516174    1.589154    0.273041
    106          1           0        6.600973   -0.098609    0.723869
    107          1           0        7.289605   -0.958519   -1.372662
    108          1           0        7.924051    0.429574   -2.013424
    109          1           0        9.167319    0.909874    0.415343
    110          1           0        8.772453   -0.757352    0.824887
    111          1           0       10.444802    0.086563   -1.735677
    112          1           0        9.203238   -2.090518   -1.938804
    113          1           0       10.948255   -2.340106   -1.984551
    114          1           0        9.894297   -2.527760   -0.468922
    115          1           0       11.455823    0.641666    0.397397
    116          1           0       11.441063   -0.811655    0.913590
    117          1           0       12.670427   -1.682815   -1.079891
    118          1           0       12.803553    0.019234   -1.674320
    119          1           0       14.053062    0.707785    0.347412
    120          1           0       13.952674   -0.994988    0.912170
    121          1           0       15.320254    0.221955   -1.372901
    122          1           0       15.709220   -2.498225    0.090553
    123          1           0       14.985726   -2.342829   -1.501531
    124          1           0       16.633604   -1.825509   -1.157082
    125          1           0       16.038958    1.220510    0.904434
    126          1           0       16.654042   -0.266196    1.416928
    127          1           0       18.323416   -0.174875   -1.113700
    128          1           0       17.381506    1.344350   -1.145861
    129          1           0       18.414568    2.286955    1.125693
    130          1           0       18.978060    0.532229    1.554396
    131          1           0       20.447747    0.538455   -0.012293
    132          1           0       19.810685    3.080527   -0.998334
    133          1           0       21.262863    2.347707   -1.783539
    134          1           0       19.569335    1.843976   -2.099934
    135          1           0       21.335137    1.684720    2.148235
    136          1           0       22.049222    2.507770    0.725432
    137          1           0       20.798830    3.058404    1.380494
 ---------------------------------------------------------------------

 SCF Done:  E(RCAM-B3LYP) =  -2933.44969408     A.U. after   16 cycles

 Excitation energies and oscillator strengths:

 Excited State   1:      Singlet-A      1.9345 eV  640.90 nm  f=0.2502  <S**2>=0.000
     240 -> 243       -0.23150
     241 -> 242        0.66716
 This state for optimization and/or second-order correction.
 Total Energy, E(TD-HF/TD-DFT) =  -2933.37860187
 Copying the excited state density for this state as the 1-particle RhoCI density.

 The electronic state is 1-A.
 Alpha  occ. eigenvalues --  -46.79629 -19.21275 -19.20829 -19.16070 -19.16028
 Alpha  occ. eigenvalues --  -19.15939 -14.37440 -14.35626 -14.35328 -14.34877
 Alpha  occ. eigenvalues --  -10.33904 -10.32957 -10.31042 -10.28027 -10.26207
 Alpha  occ. eigenvalues --  -10.25807 -10.25624 -10.25498 -10.25147 -10.25041
 Alpha  occ. eigenvalues --  -10.25013 -10.25009 -10.24401 -10.24123 -10.23937
 Alpha  occ. eigenvalues --  -10.23909 -10.23578 -10.23443 -10.23399 -10.23373
 Alpha  occ. eigenvalues --  -10.23293 -10.23079 -10.23048 -10.22992 -10.22978
 Alpha  occ. eigenvalues --  -10.22736 -10.22702 -10.22671 -10.22643 -10.22367
 Alpha  occ. eigenvalues --  -10.22349 -10.22345 -10.22257 -10.22097 -10.22092
 Alpha  occ. eigenvalues --  -10.21970 -10.21918 -10.21789 -10.21708 -10.21685
 Alpha  occ. eigenvalues --  -10.21598 -10.21412 -10.21352 -10.21349 -10.21278
 Alpha  occ. eigenvalues --  -10.20776 -10.20642 -10.20567 -10.20046 -10.19821
 Alpha  occ. eigenvalues --  -10.19609 -10.19594 -10.19303 -10.19042 -10.18630
 Alpha  occ. eigenvalues --   -3.08287  -1.83220  -1.82790  -1.82674  -1.15235
 Alpha  occ. eigenvalues --   -1.14270  -1.05899  -1.05274  -1.02893  -0.99047
 Alpha  occ. eigenvalues --   -0.97761  -0.97079  -0.96082  -0.87829  -0.86451
 Alpha  occ. eigenvalues --   -0.85949  -0.85421  -0.84240  -0.84182  -0.83824
 Alpha  occ. eigenvalues --   -0.83600  -0.83446  -0.82733  -0.82465  -0.80853
 Alpha  occ. eigenvalues --   -0.80277  -0.79229  -0.78641  -0.78197  -0.77194
 Alpha  occ. eigenvalues --   -0.76781  -0.76518  -0.75533  -0.75335  -0.73536
 Alpha  occ. eigenvalues --   -0.72780  -0.72566  -0.72278  -0.71748  -0.71722
 Alpha  occ. eigenvalues --   -0.70834  -0.70534  -0.69939  -0.68449  -0.67910
 Alpha  occ. eigenvalues --   -0.67349  -0.65528  -0.65202  -0.64094  -0.63297
 Alpha  occ. eigenvalues --   -0.62640  -0.62128  -0.61312  -0.60853  -0.60370
 Alpha  occ. eigenvalues --   -0.59884  -0.59586  -0.59392  -0.58371  -0.57939
 Alpha  occ. eigenvalues --   -0.57853  -0.56007  -0.55941  -0.55303  -0.54929
 Alpha  occ. eigenvalues --   -0.54599  -0.54016  -0.53811  -0.53443  -0.53343
 Alpha  occ. eigenvalues --   -0.52770  -0.52116  -0.51860  -0.51058  -0.50949
 Alpha  occ. eigenvalues --   -0.50857  -0.50022  -0.49964  -0.49651  -0.49548
 Alpha  occ. eigenvalues --   -0.49281  -0.48787  -0.48465  -0.48064  -0.47946
 Alpha  occ. eigenvalues --   -0.47786  -0.47366  -0.47280  -0.47039  -0.46850
 Alpha  occ. eigenvalues --   -0.46754  -0.46425  -0.46202  -0.46055  -0.45957
 Alpha  occ. eigenvalues --   -0.45700  -0.45480  -0.45175  -0.45112  -0.44813
 Alpha  occ. eigenvalues --   -0.44704  -0.44500  -0.44238  -0.44066  -0.43777
 Alpha  occ. eigenvalues --   -0.43573  -0.43167  -0.43095  -0.42829  -0.42740
 Alpha  occ. eigenvalues --   -0.42528  -0.42365  -0.42073  -0.41800  -0.41689
 Alpha  occ. eigenvalues --   -0.41304  -0.41143  -0.41007  -0.40947  -0.40483
 Alpha  occ. eigenvalues --   -0.40354  -0.40248  -0.40067  -0.39968  -0.39883
 Alpha  occ. eigenvalues --   -0.39770  -0.39273  -0.39071  -0.39063  -0.38930
 Alpha  occ. eigenvalues --   -0.38596  -0.38534  -0.38270  -0.38256  -0.37740
 Alpha  occ. eigenvalues --   -0.37683  -0.37464  -0.37255  -0.37062  -0.36952
 Alpha  occ. eigenvalues --   -0.36393  -0.36288  -0.36251  -0.35814  -0.35772
 Alpha  occ. eigenvalues --   -0.35750  -0.35725  -0.35175  -0.34701  -0.34603
 Alpha  occ. eigenvalues --   -0.34389  -0.34019  -0.33799  -0.33565  -0.33475
 Alpha  occ. eigenvalues --   -0.33251  -0.32951  -0.32917  -0.32819  -0.32761
 Alpha  occ. eigenvalues --   -0.32604  -0.31958  -0.31231  -0.30559  -0.30218
 Alpha  occ. eigenvalues --   -0.30122  -0.29691  -0.29376  -0.28406  -0.26896
 Alpha  occ. eigenvalues --   -0.26820  -0.26498  -0.26037  -0.24755  -0.21421
 Alpha  occ. eigenvalues --   -0.19293
 Alpha virt. eigenvalues --   -0.06978  -0.03570  -0.00418   0.02373   0.03154
 Alpha virt. eigenvalues --    0.04361   0.05075   0.05529   0.05990   0.06332
 Alpha virt. eigenvalues --    0.06734   0.08990   0.09253   0.09855   0.09989

 Mulliken charges:
               1
     1  Mg   0.820331
     2  C    0.094696
     3  C   -0.172038
     4  C   -0.201743
     5  C   -0.199336
     6  N   -0.611381
     7  C    0.274863
     8  C   -0.130385
     9  C   -0.132144
    10  C    0.283455
    11  C   -0.313199
    12  C   -0.164897
    13  C   -0.261314
    14  C    0.595734
    15  O   -0.439299
    16  O   -0.458813
    17  N   -0.702034
    18  C    0.277593
    19  C    0.050378
    20  C    0.032534
    21  C    0.312814
    22  C   -0.386297
    23  C   -0.070580
    24  C   -0.260628
    25  N   -0.676349
    26  C    0.263437
    27  C    0.066016
    28  C    0.013566
    29  C    0.320040
    30  C   -0.380353
    31  C   -0.245479
    32  C   -0.289910
    33  N   -0.733834
    34  C    0.290910
    35  C   -0.008124
    36  C   -0.019800
    37  C    0.357507
    38  C   -0.360307
    39  C    0.362190
    40  O   -0.473592
    41  C   -0.312053
    42  C    0.590303
    43  O   -0.450954
    44  O   -0.444688
    45  C   -0.076829
    46  C   -0.002497
    47  C   -0.126934
    48  C    0.114867
    49  C   -0.356476
    50  C   -0.209045
    51  C   -0.173256
    52  C   -0.181013
    53  C   -0.059359
    54  C   -0.280570
    55  C   -0.182727
    56  C   -0.174777
    57  C   -0.126038
    58  C   -0.068571
    59  C   -0.300347
    60  C   -0.181905
    61  C   -0.164339
    62  C   -0.168568
    63  C   -0.049519
    64  C   -0.283864
    65  C   -0.338870
    66  H    0.074747
    67  H    0.077723
    68  H    0.063775
    69  H    0.109483
    70  H    0.098182
    71  H    0.102752
    72  H    0.111961
    73  H    0.113847
    74  H    0.101247
    75  H    0.100527
    76  H    0.114070
    77  H    0.109250
    78  H    0.108433
    79  H    0.123955
    80  H    0.112324
    81  H    0.077765
    82  H    0.098511
    83  H    0.089637
    84  H    0.121530
    85  H    0.123305
    86  H    0.122608
    87  H    0.106885
    88  H    0.101209
    89  H    0.079133
    90  H    0.127835
    91  H    0.107918
    92  H    0.135178
    93  H    0.143839
    94  H    0.134515
    95  H    0.155752
    96  H    0.125824
    97  H    0.145938
    98  H    0.135415
    99  H    0.140897
   100  H    0.131562
   101  H    0.084998
   102  H    0.065168
   103  H    0.126405
   104  H    0.134916
   105  H    0.069270
   106  H    0.100607
   107  H    0.107608
   108  H    0.096035
   109  H    0.080575
   110  H    0.096340
   111  H    0.081177
   112  H    0.105125
   113  H    0.073922
   114  H    0.112766
   115  H    0.064621
   116  H    0.084863
   117  H    0.070432
   118  H    0.090174
   119  H    0.088078
   120  H    0.089591
   121  H    0.076971
   122  H    0.102751
   123  H    0.071613
   124  H    0.111347
   125  H    0.096532
   126  H    0.073431
   127  H    0.052827
   128  H    0.099581
   129  H    0.085020
   130  H    0.094154
   131  H    0.102046
   132  H    0.114571
   133  H    0.053399
   134  H    0.102687
   135  H    0.100968
   136  H    0.091096
   137  H    0.104606
 Sum of Mulliken charges =  -0.00000

 Dipole moment (field-independent basis, Debye):
    X=              1.1500    Y=              3.1731    Z=              0.4973  Tot=              3.4115
 Quadrupole moment (field-independent basis, Debye-Ang):
   XX=           -341.1249   YY=           -395.5328   ZZ=           -394.0213
   XY=            -12.1614   XZ=             11.7000   YZ=             -0.1682

 Normal termination of Gaussian 16 at Sun Sep  8 04:09:54 2019.
