 Gaussian 16, Revision A.03,
 Gaussian 16:  ES64L-G16RevA.03 25-Dec-2016

 ----------------------------------------------------------------------
 # td=(NStates=1) iop(3/107=0140000000,3/108=0140000000) CAM-B3LYP/6-31
 G(d,p)
 ----------------------------------------------------------------------

 --
 TD
 --
 Symbolic Z-matrix:
 Charge =  0 Multiplicity = 1

                         Standard orientation:
 ---------------------------------------------------------------------
 Center     Atomic      Atomic             Coordinates (Angstroms)
 Number     Number       Type             X           Y           Z
 ---------------------------------------------------------------------
      1         12           0       -7.167157    0.646793    0.123387
      2          6           0       -4.880736   -1.916074    0.610760
      3          6           0       -4.841780    2.841678    1.270439
      4          6           0       -9.413026    3.126367   -0.507544
      5          6           0       -9.511190   -1.765137   -0.879039
      6          7           0       -5.149433    0.479612    0.910131
      7          6           0       -4.307933   -0.645819    0.891374
      8          6           0       -2.946594   -0.295293    1.310308
      9          6           0       -3.082497    1.161797    1.820458
     10          6           0       -4.387646    1.491849    1.239051
     11          6           0       -3.026323    1.125539    3.285403
     12          6           0       -1.877495   -0.562066    0.083769
     13          6           0       -0.469997   -0.506398    0.589370
     14          6           0        0.508297   -0.762115   -0.527879
     15          8           0        0.293089   -1.121770   -1.637964
     16          8           0        1.762642   -0.492141   -0.126611
     17          7           0       -7.140503    2.592786    0.332761
     18          6           0       -6.008364    3.453888    0.758220
     19          6           0       -6.389221    4.804296    0.809731
     20          6           0       -7.702666    4.877061    0.353183
     21          6           0       -8.107894    3.495614    0.039174
     22          6           0       -5.465525    5.947076    1.140052
     23          6           0       -8.608840    5.933813    0.145048
     24          6           0       -8.573201    7.223363    0.656406
     25          7           0       -9.127401    0.656479   -0.473112
     26          6           0       -9.936474    1.815531   -0.731302
     27          6           0      -11.199748    1.466614   -1.196773
     28          6           0      -11.249550    0.075903   -1.340237
     29          6           0       -9.939574   -0.413411   -0.811275
     30          6           0      -12.401185    2.364865   -1.525258
     31          6           0      -12.440010   -0.806715   -1.883283
     32          6           0      -12.254473   -1.251255   -3.345373
     33          7           0       -7.265733   -1.431943   -0.068092
     34          6           0       -8.217781   -2.282677   -0.494739
     35          6           0       -7.745774   -3.650472   -0.513431
     36          6           0       -6.425045   -3.568033   -0.152400
     37          6           0       -6.197200   -2.221518    0.140485
     38          6           0       -8.624839   -4.762337   -0.819953
     39          6           0       -5.331465   -4.390704    0.247144
     40          8           0       -5.105216   -5.586448    0.162575
     41          6           0       -4.195917   -3.322473    0.579197
     42          6           0       -3.415256   -3.705737    1.882952
     43          8           0       -3.569585   -3.083211    2.955229
     44          8           0       -2.731351   -4.763030    1.617040
     45          6           0       -2.116404   -5.354688    2.862881
     46          6           0        2.728819   -0.497737   -1.225315
     47          6           0        4.102932   -0.287288   -0.591163
     48          6           0        5.084555    0.416176   -1.026023
     49          6           0        5.106478    1.323701   -2.234718
     50          6           0        6.424196    0.435898   -0.197724
     51          6           0        7.596997   -0.126257   -0.920028
     52          6           0        8.897180   -0.166757   -0.092468
     53          6           0       10.174077   -0.624618   -0.881555
     54          6           0       10.172678   -1.991707   -1.226145
     55          6           0       11.340212   -0.073774    0.028179
     56          6           0       12.785873   -0.425224   -0.646485
     57          6           0       13.937298   -0.112004    0.200519
     58          6           0       15.292384   -0.083193   -0.561233
     59          6           0       15.757985   -1.487310   -1.014741
     60          6           0       16.430994    0.420791    0.466902
     61          6           0       17.752752    0.561051   -0.269814
     62          6           0       18.853555    1.238227    0.676354
     63          6           0       20.339212    1.237999    0.143358
     64          6           0       20.436549    2.104770   -1.140787
     65          6           0       21.182701    1.733207    1.317009
     66          1           0       -4.111973    3.724486    1.457607
     67          1           0      -10.133307    4.134459   -0.482801
     68          1           0      -10.243712   -2.430240   -1.278367
     69          1           0       -2.384179   -0.834737    2.158691
     70          1           0       -2.455975    1.971630    1.304639
     71          1           0       -2.168716    0.634853    3.517884
     72          1           0       -3.082864    1.988333    3.461780
     73          1           0       -3.805993    0.355788    3.698806
     74          1           0       -2.261912   -1.385990   -0.496612
     75          1           0       -1.945614    0.403337   -0.520136
     76          1           0       -0.131542    0.583767    0.956358
     77          1           0       -0.123590   -1.147115    1.534334
     78          1           0       -5.716074    6.753642    0.717966
     79          1           0       -5.445894    6.160397    2.325751
     80          1           0       -4.423955    5.801170    1.028962
     81          1           0       -9.450617    5.724836   -0.595915
     82          1           0       -9.394742    7.900538    0.391174
     83          1           0       -7.748910    7.562027    1.242255
     84          1           0      -12.148094    3.077341   -2.289799
     85          1           0      -13.394557    1.785326   -1.922021
     86          1           0      -12.594598    3.002843   -0.506607
     87          1           0      -12.433526   -1.810790   -1.331042
     88          1           0      -13.328116   -0.471945   -1.600288
     89          1           0      -13.016868   -1.933775   -3.684786
     90          1           0      -12.017518   -0.472985   -4.027102
     91          1           0      -11.315217   -1.874109   -3.586977
     92          1           0       -8.877298   -4.776421   -1.940416
     93          1           0       -8.095669   -5.756387   -0.894060
     94          1           0       -9.635249   -4.970098   -0.276716
     95          1           0       -3.437268   -3.439581   -0.237489
     96          1           0       -1.643393   -4.445321    3.454875
     97          1           0       -2.878360   -5.849843    3.384117
     98          1           0       -1.270332   -6.035566    2.575325
     99          1           0        2.599326   -1.647724   -1.509970
    100          1           0        2.504201    0.068098   -1.943481
    101          1           0        4.178372   -0.795942    0.431814
    102          1           0        4.093524    1.790538   -2.443439
    103          1           0        5.752038    2.157981   -1.815749
    104          1           0        5.503200    0.747162   -3.175989
    105          1           0        6.929983    1.496986    0.212679
    106          1           0        6.238680   -0.113951    0.715698
    107          1           0        7.410566   -1.184462   -1.058561
    108          1           0        7.613780    0.277435   -1.825303
    109          1           0        8.931764    0.898926    0.186228
    110          1           0        8.724571   -0.604695    1.111789
    111          1           0       10.157471    0.086682   -1.818140
    112          1           0        9.377468   -2.303090   -2.004248
    113          1           0       11.153005   -2.357372   -1.514567
    114          1           0        9.660436   -2.561328   -0.318551
    115          1           0       11.083369    1.015804   -0.000942
    116          1           0       11.312321   -0.631393    1.115329
    117          1           0       12.649222   -1.403293   -1.149549
    118          1           0       12.835985    0.095755   -1.695241
    119          1           0       13.712199    0.810341    0.545698
    120          1           0       13.880824   -0.694781    1.032018
    121          1           0       15.271326    0.629081   -1.292194
    122          1           0       15.952686   -2.348879   -0.243001
    123          1           0       15.070688   -2.036928   -1.717100
    124          1           0       16.730256   -1.431194   -1.483094
    125          1           0       16.066856    1.323365    0.823328
    126          1           0       16.499355   -0.296557    1.340443
    127          1           0       18.120723   -0.552249   -0.543096
    128          1           0       17.643425    1.017230   -1.200997
    129          1           0       18.421074    2.289544    0.764436
    130          1           0       18.744905    0.706618    1.683467
    131          1           0       20.523566    0.160772   -0.146400
    132          1           0       20.175667    3.019292   -0.969510
    133          1           0       21.463718    1.940983   -1.406395
    134          1           0       19.868206    1.637884   -1.925598
    135          1           0       21.166703    0.968793    2.138374
    136          1           0       22.272890    2.027483    0.983008
    137          1           0       20.727415    2.690297    1.676581
 ---------------------------------------------------------------------

 SCF Done:  E(RCAM-B3LYP) =  -2933.48779283     A.U. after   16 cycles

 Excitation energies and oscillator strengths:

 Excited State   1:      Singlet-A      1.9180 eV  646.43 nm  f=0.2372  <S**2>=0.000
     240 -> 243       -0.23744
     241 -> 242        0.66281
 This state for optimization and/or second-order correction.
 Total Energy, E(TD-HF/TD-DFT) =  -2933.41730787
 Copying the excited state density for this state as the 1-particle RhoCI density.

 The electronic state is 1-A.
 Alpha  occ. eigenvalues --  -46.79976 -19.23492 -19.20992 -19.16386 -19.15816
 Alpha  occ. eigenvalues --  -19.15555 -14.37939 -14.35107 -14.35094 -14.35018
 Alpha  occ. eigenvalues --  -10.34071 -10.33722 -10.29957 -10.28328 -10.26824
 Alpha  occ. eigenvalues --  -10.26377 -10.25891 -10.25442 -10.25417 -10.25158
 Alpha  occ. eigenvalues --  -10.25156 -10.24860 -10.24437 -10.24015 -10.23960
 Alpha  occ. eigenvalues --  -10.23739 -10.23523 -10.23394 -10.23286 -10.23235
 Alpha  occ. eigenvalues --  -10.23217 -10.23200 -10.23198 -10.23069 -10.22799
 Alpha  occ. eigenvalues --  -10.22735 -10.22712 -10.22702 -10.22684 -10.22555
 Alpha  occ. eigenvalues --  -10.22506 -10.22464 -10.22437 -10.22427 -10.22358
 Alpha  occ. eigenvalues --  -10.22317 -10.22083 -10.21950 -10.21910 -10.21527
 Alpha  occ. eigenvalues --  -10.21501 -10.21386 -10.21345 -10.21247 -10.21034
 Alpha  occ. eigenvalues --  -10.20980 -10.20965 -10.20881 -10.20500 -10.20485
 Alpha  occ. eigenvalues --  -10.20115 -10.19339 -10.18929 -10.18547 -10.18481
 Alpha  occ. eigenvalues --   -3.08551  -1.83485  -1.83021  -1.82968  -1.13916
 Alpha  occ. eigenvalues --   -1.13716  -1.05447  -1.04534  -1.02416  -1.00389
 Alpha  occ. eigenvalues --   -0.99605  -0.96643  -0.95613  -0.86631  -0.86254
 Alpha  occ. eigenvalues --   -0.85622  -0.85074  -0.84151  -0.84042  -0.83528
 Alpha  occ. eigenvalues --   -0.82787  -0.82445  -0.82262  -0.82167  -0.81132
 Alpha  occ. eigenvalues --   -0.80342  -0.79306  -0.78741  -0.78062  -0.77119
 Alpha  occ. eigenvalues --   -0.76665  -0.75621  -0.75285  -0.74616  -0.73848
 Alpha  occ. eigenvalues --   -0.73703  -0.71698  -0.71661  -0.71467  -0.71142
 Alpha  occ. eigenvalues --   -0.70597  -0.70270  -0.69204  -0.68346  -0.67840
 Alpha  occ. eigenvalues --   -0.67452  -0.66518  -0.65597  -0.64415  -0.64002
 Alpha  occ. eigenvalues --   -0.62757  -0.61891  -0.61112  -0.60502  -0.60294
 Alpha  occ. eigenvalues --   -0.59892  -0.59318  -0.58959  -0.57972  -0.57243
 Alpha  occ. eigenvalues --   -0.57058  -0.56659  -0.56311  -0.54846  -0.54773
 Alpha  occ. eigenvalues --   -0.54323  -0.53615  -0.53334  -0.52791  -0.52277
 Alpha  occ. eigenvalues --   -0.52094  -0.51561  -0.51057  -0.50962  -0.50739
 Alpha  occ. eigenvalues --   -0.50268  -0.50171  -0.49953  -0.49781  -0.49461
 Alpha  occ. eigenvalues --   -0.49334  -0.48756  -0.48334  -0.48282  -0.47671
 Alpha  occ. eigenvalues --   -0.47546  -0.47487  -0.46987  -0.46865  -0.46693
 Alpha  occ. eigenvalues --   -0.46599  -0.46335  -0.46190  -0.46091  -0.45920
 Alpha  occ. eigenvalues --   -0.45474  -0.45351  -0.45298  -0.44912  -0.44774
 Alpha  occ. eigenvalues --   -0.44532  -0.44378  -0.44227  -0.43687  -0.43570
 Alpha  occ. eigenvalues --   -0.43401  -0.43099  -0.42880  -0.42471  -0.42262
 Alpha  occ. eigenvalues --   -0.42202  -0.41979  -0.41818  -0.41756  -0.41612
 Alpha  occ. eigenvalues --   -0.41254  -0.41025  -0.40822  -0.40653  -0.40478
 Alpha  occ. eigenvalues --   -0.40334  -0.40202  -0.40138  -0.39969  -0.39939
 Alpha  occ. eigenvalues --   -0.39495  -0.39293  -0.39055  -0.38839  -0.38658
 Alpha  occ. eigenvalues --   -0.38623  -0.38503  -0.38321  -0.37989  -0.37885
 Alpha  occ. eigenvalues --   -0.37702  -0.37561  -0.37415  -0.37299  -0.37143
 Alpha  occ. eigenvalues --   -0.36866  -0.36679  -0.36373  -0.36250  -0.36041
 Alpha  occ. eigenvalues --   -0.35893  -0.35376  -0.35346  -0.35006  -0.34935
 Alpha  occ. eigenvalues --   -0.34437  -0.34185  -0.34169  -0.33505  -0.33401
 Alpha  occ. eigenvalues --   -0.32985  -0.32967  -0.32775  -0.32611  -0.32542
 Alpha  occ. eigenvalues --   -0.32488  -0.32405  -0.31108  -0.31095  -0.30433
 Alpha  occ. eigenvalues --   -0.29709  -0.29423  -0.28983  -0.27912  -0.27639
 Alpha  occ. eigenvalues --   -0.27174  -0.26391  -0.25568  -0.24553  -0.21060
 Alpha  occ. eigenvalues --   -0.19636
 Alpha virt. eigenvalues --   -0.07273  -0.04125  -0.00672   0.01978   0.04072
 Alpha virt. eigenvalues --    0.04509   0.04811   0.05037   0.05440   0.05562
 Alpha virt. eigenvalues --    0.06494   0.08961   0.09318   0.09801   0.10307

 Mulliken charges:
               1
     1  Mg   0.826074
     2  C    0.083719
     3  C   -0.194791
     4  C   -0.193088
     5  C   -0.174569
     6  N   -0.593593
     7  C    0.284816
     8  C   -0.176058
     9  C   -0.152128
    10  C    0.345937
    11  C   -0.242601
    12  C   -0.162417
    13  C   -0.275733
    14  C    0.611703
    15  O   -0.464818
    16  O   -0.488209
    17  N   -0.714705
    18  C    0.233264
    19  C    0.053212
    20  C    0.058255
    21  C    0.320062
    22  C   -0.363980
    23  C   -0.118584
    24  C   -0.249762
    25  N   -0.686806
    26  C    0.288408
    27  C    0.048249
    28  C    0.007017
    29  C    0.291227
    30  C   -0.365585
    31  C   -0.222802
    32  C   -0.321745
    33  N   -0.695423
    34  C    0.278347
    35  C    0.061481
    36  C    0.044057
    37  C    0.257946
    38  C   -0.420866
    39  C    0.365889
    40  O   -0.461675
    41  C   -0.342222
    42  C    0.611112
    43  O   -0.510361
    44  O   -0.407949
    45  C   -0.107732
    46  C    0.048665
    47  C   -0.140496
    48  C    0.137642
    49  C   -0.365947
    50  C   -0.226779
    51  C   -0.158377
    52  C   -0.175116
    53  C   -0.039197
    54  C   -0.302414
    55  C   -0.161455
    56  C   -0.195228
    57  C   -0.150869
    58  C   -0.059369
    59  C   -0.315065
    60  C   -0.170664
    61  C   -0.186045
    62  C   -0.167055
    63  C   -0.061823
    64  C   -0.303402
    65  C   -0.296747
    66  H    0.057496
    67  H    0.073659
    68  H    0.082057
    69  H    0.112749
    70  H    0.092217
    71  H    0.115981
    72  H    0.094804
    73  H    0.124493
    74  H    0.131945
    75  H    0.107585
    76  H    0.128245
    77  H    0.124287
    78  H    0.128641
    79  H    0.099169
    80  H    0.123977
    81  H    0.094144
    82  H    0.102411
    83  H    0.099848
    84  H    0.131273
    85  H    0.101721
    86  H    0.103655
    87  H    0.096655
    88  H    0.115803
    89  H    0.109290
    90  H    0.119639
    91  H    0.097628
    92  H    0.117820
    93  H    0.135849
    94  H    0.125736
    95  H    0.151269
    96  H    0.135587
    97  H    0.158884
    98  H    0.131200
    99  H    0.114504
   100  H    0.113373
   101  H    0.087298
   102  H    0.110099
   103  H    0.120521
   104  H    0.120078
   105  H    0.055878
   106  H    0.096407
   107  H    0.095308
   108  H    0.102308
   109  H    0.081522
   110  H    0.052448
   111  H    0.074580
   112  H    0.099342
   113  H    0.110943
   114  H    0.089538
   115  H    0.099024
   116  H    0.070354
   117  H    0.086849
   118  H    0.061044
   119  H    0.098905
   120  H    0.098514
   121  H    0.093245
   122  H    0.087277
   123  H    0.088507
   124  H    0.106671
   125  H    0.090430
   126  H    0.086792
   127  H    0.067967
   128  H    0.098897
   129  H    0.077515
   130  H    0.079350
   131  H    0.079961
   132  H    0.112328
   133  H    0.102610
   134  H    0.105167
   135  H    0.105043
   136  H    0.078965
   137  H    0.101890
 Sum of Mulliken charges =  -0.00000

 Dipole moment (field-independent basis, Debye):
    X=              1.8800    Y=              3.6499    Z=             -0.3052  Tot=              4.1169
 Quadrupole moment (field-independent basis, Debye-Ang):
   XX=           -359.4347   YY=           -387.5407   ZZ=           -396.9909
   XY=             -9.8561   XZ=             12.0279   YZ=             -4.7239

 Normal termination of Gaussian 16 at Sun Sep 22 08:21:10 2019.
