 Gaussian 09, Revision D.01,
 Gaussian 09:  ES64L-G09RevD.01 24-Apr-2013

 -------------------------------------
 # td=(NStates=1) CAM-B3LYP/6-31G(d,p)
 -------------------------------------

 --
 TD
 --
 Symbolic Z-matrix:
 Charge =  0 Multiplicity = 1

                         Standard orientation:
 ---------------------------------------------------------------------
 Center     Atomic      Atomic             Coordinates (Angstroms)
 Number     Number       Type             X           Y           Z
 ---------------------------------------------------------------------
      1         12           0       -7.124385    0.599216    0.067001
      2          6           0       -4.901368   -1.899917    0.427305
      3          6           0       -4.703905    2.846640    1.045346
      4          6           0       -9.434370    3.100969   -0.440520
      5          6           0       -9.476689   -1.730771   -0.992185
      6          7           0       -5.087753    0.427139    0.610289
      7          6           0       -4.291420   -0.678984    0.711181
      8          6           0       -2.880297   -0.372788    1.163368
      9          6           0       -2.943965    1.122445    1.474780
     10          6           0       -4.399849    1.518796    0.975279
     11          6           0       -3.000750    1.230768    3.027431
     12          6           0       -1.827621   -0.561755   -0.037962
     13          6           0       -0.475927   -0.459919    0.581659
     14          6           0        0.492476   -0.794706   -0.489934
     15          8           0        0.188164   -1.394863   -1.578348
     16          8           0        1.824606   -0.556883   -0.140922
     17          7           0       -7.092125    2.572868    0.275583
     18          6           0       -6.068175    3.412432    0.643375
     19          6           0       -6.435771    4.788872    0.791262
     20          6           0       -7.680109    4.820835    0.351370
     21          6           0       -8.163416    3.448522   -0.017567
     22          6           0       -5.584233    5.897731    1.149169
     23          6           0       -8.699614    6.058186    0.249847
     24          6           0       -8.513378    7.145526    0.949165
     25          7           0       -9.069350    0.699444   -0.626306
     26          6           0       -9.930157    1.809921   -0.788415
     27          6           0      -11.202192    1.450277   -1.137323
     28          6           0      -11.154950    0.062585   -1.380324
     29          6           0       -9.858973   -0.348872   -1.093178
     30          6           0      -12.327553    2.547264   -1.363893
     31          6           0      -12.359120   -0.845777   -1.765034
     32          6           0      -12.282645   -1.240070   -3.223693
     33          7           0       -7.190052   -1.319939   -0.173780
     34          6           0       -8.243597   -2.182171   -0.598649
     35          6           0       -7.797972   -3.516886   -0.584758
     36          6           0       -6.518980   -3.515489   -0.075341
     37          6           0       -6.176632   -2.153823    0.074273
     38          6           0       -8.483088   -4.734949   -0.963488
     39          6           0       -5.336305   -4.268113    0.289664
     40          8           0       -5.250303   -5.524298    0.343043
     41          6           0       -4.213001   -3.282971    0.661504
     42          6           0       -3.651437   -3.522629    2.063943
     43          8           0       -4.024737   -2.971961    3.115149
     44          8           0       -2.815331   -4.639072    1.987799
     45          6           0       -2.320363   -4.970552    3.290712
     46          6           0        2.731365   -0.841453   -1.132606
     47          6           0        4.204016   -0.641520   -0.435611
     48          6           0        5.082379    0.141281   -0.968007
     49          6           0        5.012693    0.976908   -2.254349
     50          6           0        6.388583    0.259426   -0.291976
     51          6           0        7.633579   -0.354882   -1.024293
     52          6           0        8.956873   -0.130668   -0.211083
     53          6           0       10.218484   -0.618695   -0.840778
     54          6           0       10.161193   -2.123007   -1.147651
     55          6           0       11.456774   -0.189523    0.037793
     56          6           0       12.759646   -0.742705   -0.572663
     57          6           0       13.903122   -0.144621    0.170043
     58          6           0       15.326394   -0.261926   -0.569749
     59          6           0       15.770698   -1.648432   -0.824976
     60          6           0       16.467476    0.426046    0.355755
     61          6           0       17.868010    0.620638   -0.200947
     62          6           0       18.776635    1.381871    0.694766
     63          6           0       20.279797    1.578379    0.150098
     64          6           0       20.502840    2.247587   -1.113437
     65          6           0       21.114207    2.216227    1.171477
     66          1           0       -3.880897    3.495429    1.496900
     67          1           0      -10.174523    3.949030   -0.450916
     68          1           0      -10.209850   -2.436763   -1.208952
     69          1           0       -2.457888   -0.962918    1.965777
     70          1           0       -2.107199    1.791558    1.287906
     71          1           0       -2.072991    0.933226    3.675367
     72          1           0       -3.030815    2.183949    3.418863
     73          1           0       -4.118662    0.774868    3.468843
     74          1           0       -2.017046   -1.626793   -0.525119
     75          1           0       -2.075007    0.370406   -0.535833
     76          1           0       -0.237311    0.410783    1.109257
     77          1           0       -0.462761   -1.143634    1.526315
     78          1           0       -5.677913    6.795760    0.544943
     79          1           0       -5.642536    6.210558    2.263308
     80          1           0       -4.491927    5.851284    0.958254
     81          1           0       -9.169518    6.170764   -0.614652
     82          1           0       -9.104616    8.147763    0.888644
     83          1           0       -7.765421    7.175168    1.674754
     84          1           0      -11.593895    3.359385   -1.982269
     85          1           0      -13.325324    2.169083   -1.975825
     86          1           0      -12.559247    3.101099   -0.344611
     87          1           0      -12.515243   -1.570536   -1.044716
     88          1           0      -13.283681   -0.158981   -1.577665
     89          1           0      -13.231789   -2.025646   -3.256074
     90          1           0      -12.408647   -0.408326   -4.020638
     91          1           0      -11.364280   -1.730903   -3.490030
     92          1           0       -8.785755   -4.644511   -1.925172
     93          1           0       -7.846458   -5.594094   -1.062621
     94          1           0       -9.265648   -4.733427   -0.323539
     95          1           0       -3.350951   -3.581961    0.202140
     96          1           0       -1.508372   -4.197768    3.811263
     97          1           0       -3.208134   -5.180813    3.960552
     98          1           0       -1.878642   -5.889911    3.231238
     99          1           0        2.689384   -1.828613   -1.431622
    100          1           0        2.748833   -0.166827   -1.967064
    101          1           0        4.326196   -0.962650    0.630021
    102          1           0        4.055025    0.864158   -2.796980
    103          1           0        5.187168    2.097670   -2.059076
    104          1           0        5.934831    0.831254   -3.009182
    105          1           0        6.831573    1.290534   -0.270101
    106          1           0        6.281969    0.028937    0.940869
    107          1           0        7.522242   -1.422221   -1.243423
    108          1           0        7.759176    0.016972   -2.038274
    109          1           0        9.119087    0.818257    0.038358
    110          1           0        8.749384   -0.571818    0.920144
    111          1           0       10.302636   -0.193695   -1.750710
    112          1           0        9.370449   -2.499148   -1.875666
    113          1           0       11.223370   -2.469371   -1.670857
    114          1           0       10.164687   -2.581095   -0.135798
    115          1           0       11.506066    0.972419    0.057029
    116          1           0       11.323836   -0.691176    0.953672
    117          1           0       12.811697   -1.969440   -0.586798
    118          1           0       13.003742   -0.351651   -1.560715
    119          1           0       13.987256    1.061711    0.476545
    120          1           0       14.235083   -0.618660    1.158658
    121          1           0       15.207083    0.379790   -1.440093
    122          1           0       15.933342   -2.266870   -0.051237
    123          1           0       15.051749   -2.231258   -1.649619
    124          1           0       16.881050   -1.928830   -1.259080
    125          1           0       15.846599    1.325023    0.618558
    126          1           0       16.385097   -0.235416    1.155050
    127          1           0       18.410712   -0.397721   -0.396028
    128          1           0       17.797464    1.195026   -1.112191
    129          1           0       18.346280    2.426568    0.912925
    130          1           0       18.717071    0.813119    1.705716
    131          1           0       20.671902    0.549071    0.151755
    132          1           0       20.142091    3.372152   -1.111168
    133          1           0       21.593403    2.090743   -1.606778
    134          1           0       19.596347    1.755848   -1.585795
    135          1           0       20.561947    1.817099    2.293111
    136          1           0       22.186843    2.071269    1.006206
    137          1           0       20.932161    3.465806    1.464620
 ---------------------------------------------------------------------

 SCF Done:  E(RCAM-B3LYP) =  -2932.57156362     A.U. after   16 cycles

 Excitation energies and oscillator strengths:

 Excited State   1:      Singlet-A      2.2002 eV  563.51 nm  f=0.1731  <S**2>=0.000
     240 -> 243       -0.30505
     241 -> 242        0.62626
 This state for optimization and/or second-order correction.
 Total Energy, E(TD-HF/TD-KS) =  -2932.49070797
 Copying the excited state density for this state as the 1-particle RhoCI density.

 The electronic state is 1-A.
 Alpha  occ. eigenvalues --  -46.82912 -19.27173 -19.26947 -19.21706 -19.21705
 Alpha  occ. eigenvalues --  -19.19687 -14.41420 -14.40351 -14.38879 -14.38444
 Alpha  occ. eigenvalues --  -10.40607 -10.39954 -10.35067 -10.31612 -10.31609
 Alpha  occ. eigenvalues --  -10.31568 -10.30858 -10.30768 -10.29973 -10.29622
 Alpha  occ. eigenvalues --  -10.28848 -10.28586 -10.28439 -10.28268 -10.28253
 Alpha  occ. eigenvalues --  -10.28176 -10.28125 -10.27977 -10.27851 -10.27808
 Alpha  occ. eigenvalues --  -10.27739 -10.27681 -10.27654 -10.27617 -10.27131
 Alpha  occ. eigenvalues --  -10.26992 -10.26977 -10.26892 -10.26860 -10.26850
 Alpha  occ. eigenvalues --  -10.26791 -10.26712 -10.26703 -10.26650 -10.26629
 Alpha  occ. eigenvalues --  -10.26602 -10.26514 -10.26299 -10.26229 -10.26192
 Alpha  occ. eigenvalues --  -10.26092 -10.26040 -10.26024 -10.25891 -10.25824
 Alpha  occ. eigenvalues --  -10.25818 -10.25813 -10.25753 -10.25616 -10.25350
 Alpha  occ. eigenvalues --  -10.25075 -10.24981 -10.24815 -10.24803 -10.23864
 Alpha  occ. eigenvalues --   -3.12268  -1.86944  -1.86511  -1.86486  -1.17801
 Alpha  occ. eigenvalues --   -1.16989  -1.08450  -1.08293  -1.07660  -1.04925
 Alpha  occ. eigenvalues --   -1.03727  -1.03053  -1.01370  -0.92926  -0.91533
 Alpha  occ. eigenvalues --   -0.91214  -0.90729  -0.90107  -0.89714  -0.89523
 Alpha  occ. eigenvalues --   -0.88705  -0.88145  -0.87315  -0.86800  -0.86315
 Alpha  occ. eigenvalues --   -0.85383  -0.85131  -0.84073  -0.83123  -0.82560
 Alpha  occ. eigenvalues --   -0.81660  -0.81380  -0.80420  -0.79854  -0.78755
 Alpha  occ. eigenvalues --   -0.77798  -0.76783  -0.76293  -0.75738  -0.74907
 Alpha  occ. eigenvalues --   -0.74580  -0.74455  -0.74181  -0.73280  -0.72691
 Alpha  occ. eigenvalues --   -0.71212  -0.70251  -0.69227  -0.68524  -0.68321
 Alpha  occ. eigenvalues --   -0.66772  -0.66588  -0.65713  -0.65488  -0.64431
 Alpha  occ. eigenvalues --   -0.64273  -0.63522  -0.63450  -0.62776  -0.61735
 Alpha  occ. eigenvalues --   -0.61488  -0.61191  -0.60821  -0.60248  -0.59168
 Alpha  occ. eigenvalues --   -0.58497  -0.58304  -0.57876  -0.57274  -0.57017
 Alpha  occ. eigenvalues --   -0.56559  -0.55935  -0.55647  -0.54911  -0.54713
 Alpha  occ. eigenvalues --   -0.54400  -0.54253  -0.54083  -0.53932  -0.53504
 Alpha  occ. eigenvalues --   -0.53006  -0.52323  -0.52315  -0.52005  -0.51572
 Alpha  occ. eigenvalues --   -0.51318  -0.51113  -0.50973  -0.50591  -0.50473
 Alpha  occ. eigenvalues --   -0.50232  -0.49967  -0.49857  -0.49672  -0.49392
 Alpha  occ. eigenvalues --   -0.49128  -0.48787  -0.48451  -0.48231  -0.48025
 Alpha  occ. eigenvalues --   -0.47837  -0.47615  -0.47333  -0.47196  -0.46864
 Alpha  occ. eigenvalues --   -0.46790  -0.46623  -0.46326  -0.46324  -0.45972
 Alpha  occ. eigenvalues --   -0.45751  -0.45525  -0.45431  -0.45264  -0.45112
 Alpha  occ. eigenvalues --   -0.44830  -0.44721  -0.44379  -0.44293  -0.44124
 Alpha  occ. eigenvalues --   -0.43523  -0.43508  -0.43411  -0.43336  -0.43174
 Alpha  occ. eigenvalues --   -0.43136  -0.42859  -0.42746  -0.42597  -0.42075
 Alpha  occ. eigenvalues --   -0.41969  -0.41785  -0.41562  -0.41178  -0.41133
 Alpha  occ. eigenvalues --   -0.40865  -0.40513  -0.40249  -0.40193  -0.40036
 Alpha  occ. eigenvalues --   -0.39820  -0.39458  -0.39239  -0.39054  -0.38806
 Alpha  occ. eigenvalues --   -0.38743  -0.38183  -0.37814  -0.37576  -0.37552
 Alpha  occ. eigenvalues --   -0.37421  -0.37126  -0.36888  -0.36547  -0.36281
 Alpha  occ. eigenvalues --   -0.36151  -0.36094  -0.35985  -0.35909  -0.35472
 Alpha  occ. eigenvalues --   -0.35245  -0.34360  -0.34243  -0.33867  -0.33674
 Alpha  occ. eigenvalues --   -0.33578  -0.32895  -0.32406  -0.30917  -0.30315
 Alpha  occ. eigenvalues --   -0.29995  -0.29826  -0.29457  -0.27149  -0.23327
 Alpha  occ. eigenvalues --   -0.21881
 Alpha virt. eigenvalues --   -0.06017  -0.03671   0.01166   0.02898   0.04294
 Alpha virt. eigenvalues --    0.05088   0.06250   0.07065   0.07135   0.07447
 Alpha virt. eigenvalues --    0.08040   0.10367   0.11176   0.11292   0.11621

 Mulliken charges:
               1
     1  Mg   0.808030
     2  C    0.011043
     3  C   -0.213801
     4  C   -0.195743
     5  C   -0.171168
     6  N   -0.657080
     7  C    0.333949
     8  C   -0.159091
     9  C   -0.170330
    10  C    0.390976
    11  C   -0.308066
    12  C   -0.159259
    13  C   -0.271752
    14  C    0.627313
    15  O   -0.489195
    16  O   -0.471110
    17  N   -0.686500
    18  C    0.261876
    19  C    0.090567
    20  C   -0.039727
    21  C    0.303140
    22  C   -0.409254
    23  C   -0.053411
    24  C   -0.235968
    25  N   -0.675353
    26  C    0.282675
    27  C    0.038521
    28  C   -0.035937
    29  C    0.288796
    30  C   -0.349880
    31  C   -0.222216
    32  C   -0.290671
    33  N   -0.763419
    34  C    0.298589
    35  C   -0.025332
    36  C    0.061504
    37  C    0.326085
    38  C   -0.356723
    39  C    0.356860
    40  O   -0.489453
    41  C   -0.284328
    42  C    0.611591
    43  O   -0.472457
    44  O   -0.452450
    45  C   -0.074785
    46  C    0.030583
    47  C   -0.181326
    48  C    0.181991
    49  C   -0.367508
    50  C   -0.225057
    51  C   -0.188232
    52  C   -0.149847
    53  C   -0.065228
    54  C   -0.304418
    55  C   -0.174439
    56  C   -0.173471
    57  C   -0.168375
    58  C   -0.089792
    59  C   -0.286242
    60  C   -0.181684
    61  C   -0.166818
    62  C   -0.180494
    63  C   -0.039153
    64  C   -0.288235
    65  C   -0.262191
    66  H    0.088814
    67  H    0.098518
    68  H    0.091771
    69  H    0.123660
    70  H    0.109430
    71  H    0.086920
    72  H    0.113692
    73  H    0.099070
    74  H    0.137202
    75  H    0.124123
    76  H    0.143083
    77  H    0.135901
    78  H    0.132698
    79  H    0.115931
    80  H    0.115564
    81  H    0.106635
    82  H    0.100421
    83  H    0.106909
    84  H    0.099125
    85  H    0.108702
    86  H    0.118531
    87  H    0.121547
    88  H    0.090837
    89  H    0.073525
    90  H    0.110304
    91  H    0.118076
    92  H    0.129914
    93  H    0.151818
    94  H    0.137387
    95  H    0.157740
    96  H    0.096182
    97  H    0.133211
    98  H    0.131471
    99  H    0.132430
   100  H    0.105433
   101  H    0.095793
   102  H    0.113486
   103  H    0.117229
   104  H    0.104391
   105  H    0.091953
   106  H    0.067924
   107  H    0.101132
   108  H    0.094073
   109  H    0.096984
   110  H    0.052595
   111  H    0.094599
   112  H    0.105633
   113  H    0.069913
   114  H    0.100553
   115  H    0.094280
   116  H    0.109715
   117  H    0.099827
   118  H    0.102250
   119  H    0.064296
   120  H    0.081619
   121  H    0.086253
   122  H    0.117450
   123  H    0.066536
   124  H    0.071516
   125  H    0.078927
   126  H    0.098127
   127  H    0.085028
   128  H    0.104035
   129  H    0.083669
   130  H    0.087879
   131  H    0.097777
   132  H    0.093528
   133  H    0.100463
   134  H    0.091530
   135  H    0.047144
   136  H    0.103946
   137  H    0.054255
 Sum of Mulliken charges =   0.00000

 Dipole moment (field-independent basis, Debye):
    X=              0.9903    Y=              5.4658    Z=              0.2554  Tot=              5.5606
 Quadrupole moment (field-independent basis, Debye-Ang):
   XX=           -368.7221   YY=           -390.4781   ZZ=           -400.3445
   XY=            -27.4769   XZ=              3.8192   YZ=             -1.4242

 Normal termination of Gaussian 09 at Sat Jul  6 13:06:51 2019.
