 Gaussian 09, Revision D.01,
 Gaussian 09:  ES64L-G09RevD.01 24-Apr-2013

 -------------------------------------
 # td=(NStates=1) CAM-B3LYP/6-31G(d,p)
 -------------------------------------

 --
 TD
 --
 Symbolic Z-matrix:
 Charge =  0 Multiplicity = 1

                         Standard orientation:
 ---------------------------------------------------------------------
 Center     Atomic      Atomic             Coordinates (Angstroms)
 Number     Number       Type             X           Y           Z
 ---------------------------------------------------------------------
      1         12           0       -7.077851    0.531890    0.096323
      2          6           0       -4.875013   -1.981743    0.606218
      3          6           0       -4.727622    2.917394    1.267046
      4          6           0       -9.466405    3.088083   -0.399923
      5          6           0       -9.575404   -1.697296   -0.894029
      6          7           0       -5.126393    0.467263    0.834051
      7          6           0       -4.389386   -0.735602    0.877964
      8          6           0       -2.904359   -0.465163    1.214224
      9          6           0       -2.994196    0.955837    1.826136
     10          6           0       -4.385442    1.486867    1.245035
     11          6           0       -3.072573    1.219693    3.355450
     12          6           0       -1.813305   -0.505071    0.030649
     13          6           0       -0.326654   -0.428857    0.498906
     14          6           0        0.508060   -0.695078   -0.627003
     15          8           0        0.075105   -0.919160   -1.750416
     16          8           0        1.781000   -0.466837   -0.186007
     17          7           0       -6.995952    2.619940    0.242591
     18          6           0       -6.055962    3.375307    0.839410
     19          6           0       -6.386710    4.745738    0.909332
     20          6           0       -7.739909    4.919997    0.337461
     21          6           0       -8.114391    3.465734    0.013916
     22          6           0       -5.446663    5.849350    1.451277
     23          6           0       -8.511353    5.993647    0.029424
     24          6           0       -8.486639    7.198245    0.756369
     25          7           0       -9.096033    0.604695   -0.520404
     26          6           0       -9.894849    1.829683   -0.615691
     27          6           0      -11.221883    1.479456   -1.208646
     28          6           0      -11.204124    0.110805   -1.400602
     29          6           0       -9.923678   -0.378167   -0.879937
     30          6           0      -12.257958    2.578105   -1.496767
     31          6           0      -12.423688   -0.667928   -1.742828
     32          6           0      -12.199502   -1.045512   -3.248491
     33          7           0       -7.154037   -1.424442   -0.013608
     34          6           0       -8.238276   -2.196715   -0.519518
     35          6           0       -7.822954   -3.557206   -0.566348
     36          6           0       -6.547917   -3.506620   -0.146718
     37          6           0       -6.161724   -2.230371    0.169219
     38          6           0       -8.645905   -4.822589   -1.034661
     39          6           0       -5.296288   -4.399254    0.238165
     40          8           0       -5.052172   -5.531525    0.296053
     41          6           0       -4.111809   -3.183896    0.574505
     42          6           0       -3.566888   -3.675304    1.951240
     43          8           0       -3.753029   -3.212251    3.070364
     44          8           0       -2.780541   -4.793529    1.721242
     45          6           0       -2.262991   -5.454678    2.905947
     46          6           0        2.612282   -0.701034   -1.274156
     47          6           0        4.024859   -0.569235   -0.736535
     48          6           0        4.975249    0.250793   -1.091465
     49          6           0        4.920556    1.103611   -2.326331
     50          6           0        6.344073    0.425765   -0.315457
     51          6           0        7.658943    0.055720   -1.112631
     52          6           0        8.885147   -0.020304   -0.268496
     53          6           0       10.202541   -0.540455   -0.898418
     54          6           0       10.245781   -2.054517   -1.276463
     55          6           0       11.503144   -0.118097   -0.042662
     56          6           0       12.759974   -0.470796   -0.695673
     57          6           0       14.022856   -0.064802    0.135329
     58          6           0       15.351976   -0.225373   -0.494907
     59          6           0       15.733770   -1.662256   -0.815461
     60          6           0       16.421390    0.378793    0.389771
     61          6           0       17.825943    0.604655   -0.112787
     62          6           0       18.706795    1.315860    0.745862
     63          6           0       20.182819    1.362800    0.258789
     64          6           0       20.399218    2.105052   -1.093013
     65          6           0       21.148552    1.897329    1.358859
     66          1           0       -3.946344    3.495513    1.683897
     67          1           0      -10.049726    3.875958   -0.835828
     68          1           0      -10.221598   -2.443842   -1.010357
     69          1           0       -2.576467   -1.343442    1.992439
     70          1           0       -2.346160    1.557477    1.416045
     71          1           0       -1.977488    1.083447    3.932793
     72          1           0       -3.313188    2.328164    3.390545
     73          1           0       -3.783210    0.432146    3.778280
     74          1           0       -1.937826   -1.510043   -0.321975
     75          1           0       -2.138323    0.306005   -0.713401
     76          1           0        0.038584    0.552574    1.018496
     77          1           0       -0.123430   -1.089145    1.280161
     78          1           0       -5.545515    6.853373    0.952314
     79          1           0       -5.275937    5.771141    2.624707
     80          1           0       -4.388811    5.611016    1.061912
     81          1           0       -9.148978    6.031622   -0.925080
     82          1           0       -9.056320    8.119254    0.317204
     83          1           0       -7.791619    7.290045    1.608465
     84          1           0      -12.123576    3.098822   -2.506390
     85          1           0      -13.347777    2.121086   -1.644962
     86          1           0      -12.391055    3.137864   -0.623411
     87          1           0      -12.353121   -1.573541   -1.168113
     88          1           0      -13.563711   -0.320588   -1.582106
     89          1           0      -13.164535   -1.674133   -3.496473
     90          1           0      -12.192429   -0.216300   -3.689451
     91          1           0      -11.373801   -1.511776   -3.534003
     92          1           0       -8.903232   -4.854059   -2.220247
     93          1           0       -7.990968   -5.500206   -0.894931
     94          1           0       -9.558873   -4.901970   -0.487113
     95          1           0       -3.312216   -3.357710   -0.179885
     96          1           0       -1.573863   -4.892391    3.479965
     97          1           0       -3.083760   -5.830102    3.761297
     98          1           0       -1.809773   -6.263538    2.385495
     99          1           0        2.632752   -1.710797   -1.685991
    100          1           0        2.296263   -0.102549   -1.889372
    101          1           0        4.159779   -1.113169    0.290266
    102          1           0        3.816554    1.035758   -2.788524
    103          1           0        5.146497    2.221183   -2.191216
    104          1           0        5.493680    0.705964   -3.134633
    105          1           0        6.443223    1.560094   -0.022548
    106          1           0        6.564648   -0.143766    0.710711
    107          1           0        7.388896   -0.912926   -1.647666
    108          1           0        7.949997    0.783763   -1.919978
    109          1           0        9.010099    0.968076    0.185054
    110          1           0        8.653851   -0.709299    0.614477
    111          1           0       10.230596    0.012282   -1.790081
    112          1           0        9.304080   -2.397911   -1.632808
    113          1           0       11.054519   -2.217224   -2.100251
    114          1           0       10.465938   -2.598594   -0.278202
    115          1           0       11.370146    1.037087    0.199159
    116          1           0       11.380465   -0.605367    0.940588
    117          1           0       12.768259   -1.472047   -0.869669
    118          1           0       12.659147   -0.048888   -1.588794
    119          1           0       13.899155    0.880349    0.452637
    120          1           0       14.143483   -0.698497    1.058478
    121          1           0       15.422712    0.213803   -1.503074
    122          1           0       15.760911   -2.158181    0.037715
    123          1           0       15.167025   -2.366749   -1.551969
    124          1           0       16.839892   -1.699502   -1.305315
    125          1           0       16.102831    1.408019    0.766896
    126          1           0       16.454194   -0.062633    1.533747
    127          1           0       18.209528   -0.353164   -0.489104
    128          1           0       17.475650    1.143568   -1.047729
    129          1           0       18.258852    2.190746    1.039901
    130          1           0       18.670002    0.595135    1.527556
    131          1           0       20.596350    0.310910    0.005472
    132          1           0       20.182643    3.208511   -1.106701
    133          1           0       21.424335    2.085568   -1.177214
    134          1           0       19.845733    1.628750   -1.926414
    135          1           0       21.010640    1.471999    2.350947
    136          1           0       22.160009    1.723262    1.237196
    137          1           0       21.000848    2.972892    1.776678
 ---------------------------------------------------------------------

 SCF Done:  E(RCAM-B3LYP) =  -2932.62392395     A.U. after   18 cycles

 Excitation energies and oscillator strengths:

 Excited State   1:      Singlet-A      1.8455 eV  671.80 nm  f=0.3033  <S**2>=0.000
     240 -> 243       -0.20137
     241 -> 242        0.67410
 This state for optimization and/or second-order correction.
 Total Energy, E(TD-HF/TD-KS) =  -2932.55610156
 Copying the excited state density for this state as the 1-particle RhoCI density.

 The electronic state is 1-A.
 Alpha  occ. eigenvalues --  -46.84147 -19.27202 -19.25665 -19.22625 -19.22146
 Alpha  occ. eigenvalues --  -19.20889 -14.41939 -14.40017 -14.39708 -14.38852
 Alpha  occ. eigenvalues --  -10.39389 -10.39069 -10.36665 -10.31266 -10.31248
 Alpha  occ. eigenvalues --  -10.30961 -10.30479 -10.30251 -10.29811 -10.29472
 Alpha  occ. eigenvalues --  -10.29203 -10.28938 -10.28328 -10.28302 -10.28193
 Alpha  occ. eigenvalues --  -10.27982 -10.27784 -10.27737 -10.27705 -10.27671
 Alpha  occ. eigenvalues --  -10.27589 -10.27570 -10.27445 -10.27414 -10.27389
 Alpha  occ. eigenvalues --  -10.27330 -10.27318 -10.27246 -10.27226 -10.27033
 Alpha  occ. eigenvalues --  -10.26983 -10.26882 -10.26837 -10.26802 -10.26605
 Alpha  occ. eigenvalues --  -10.26225 -10.26171 -10.26156 -10.26090 -10.25969
 Alpha  occ. eigenvalues --  -10.25932 -10.25844 -10.25782 -10.25622 -10.25551
 Alpha  occ. eigenvalues --  -10.25328 -10.25155 -10.24616 -10.24249 -10.24178
 Alpha  occ. eigenvalues --  -10.24093 -10.23838 -10.23431 -10.23268 -10.22805
 Alpha  occ. eigenvalues --   -3.13213  -1.87923  -1.87455  -1.87388  -1.20047
 Alpha  occ. eigenvalues --   -1.16348  -1.15273  -1.10902  -1.07972  -1.05259
 Alpha  occ. eigenvalues --   -1.03198  -1.02267  -1.01520  -0.92539  -0.91803
 Alpha  occ. eigenvalues --   -0.90837  -0.90050  -0.89204  -0.88984  -0.88711
 Alpha  occ. eigenvalues --   -0.88414  -0.88263  -0.87393  -0.86580  -0.85997
 Alpha  occ. eigenvalues --   -0.85426  -0.83660  -0.83367  -0.83091  -0.82220
 Alpha  occ. eigenvalues --   -0.81767  -0.80699  -0.80206  -0.79754  -0.78104
 Alpha  occ. eigenvalues --   -0.77370  -0.76209  -0.75970  -0.75625  -0.75506
 Alpha  occ. eigenvalues --   -0.75436  -0.74994  -0.74841  -0.73441  -0.72738
 Alpha  occ. eigenvalues --   -0.70987  -0.70614  -0.69655  -0.69303  -0.67789
 Alpha  occ. eigenvalues --   -0.66548  -0.66126  -0.65518  -0.64711  -0.64643
 Alpha  occ. eigenvalues --   -0.64224  -0.63635  -0.63497  -0.63193  -0.62460
 Alpha  occ. eigenvalues --   -0.61500  -0.60888  -0.59885  -0.59513  -0.59119
 Alpha  occ. eigenvalues --   -0.58778  -0.58009  -0.57451  -0.57347  -0.56791
 Alpha  occ. eigenvalues --   -0.56580  -0.55710  -0.55174  -0.54877  -0.54639
 Alpha  occ. eigenvalues --   -0.54402  -0.54210  -0.53740  -0.53461  -0.53280
 Alpha  occ. eigenvalues --   -0.53126  -0.52662  -0.52204  -0.51586  -0.51566
 Alpha  occ. eigenvalues --   -0.51306  -0.51032  -0.50919  -0.50793  -0.50660
 Alpha  occ. eigenvalues --   -0.50573  -0.50170  -0.49797  -0.49468  -0.49292
 Alpha  occ. eigenvalues --   -0.49191  -0.49117  -0.48945  -0.48674  -0.48508
 Alpha  occ. eigenvalues --   -0.48303  -0.47933  -0.47520  -0.47364  -0.46998
 Alpha  occ. eigenvalues --   -0.46636  -0.46463  -0.46435  -0.46263  -0.46121
 Alpha  occ. eigenvalues --   -0.46024  -0.45563  -0.45444  -0.45262  -0.45159
 Alpha  occ. eigenvalues --   -0.45004  -0.44901  -0.44675  -0.44323  -0.44174
 Alpha  occ. eigenvalues --   -0.44112  -0.44018  -0.43860  -0.43540  -0.43179
 Alpha  occ. eigenvalues --   -0.42967  -0.42694  -0.42571  -0.42421  -0.42121
 Alpha  occ. eigenvalues --   -0.42028  -0.41875  -0.41830  -0.41768  -0.41565
 Alpha  occ. eigenvalues --   -0.41440  -0.41140  -0.41027  -0.40641  -0.40608
 Alpha  occ. eigenvalues --   -0.40120  -0.39443  -0.39409  -0.39294  -0.38810
 Alpha  occ. eigenvalues --   -0.38739  -0.38609  -0.38485  -0.38131  -0.37996
 Alpha  occ. eigenvalues --   -0.37503  -0.37306  -0.37289  -0.37207  -0.37068
 Alpha  occ. eigenvalues --   -0.36846  -0.36711  -0.36184  -0.35861  -0.35391
 Alpha  occ. eigenvalues --   -0.35226  -0.34952  -0.34675  -0.34482  -0.34293
 Alpha  occ. eigenvalues --   -0.33593  -0.32858  -0.31734  -0.30819  -0.30642
 Alpha  occ. eigenvalues --   -0.29912  -0.29398  -0.28175  -0.26236  -0.23046
 Alpha  occ. eigenvalues --   -0.20903
 Alpha virt. eigenvalues --   -0.07485  -0.02614   0.01942   0.03610   0.04978
 Alpha virt. eigenvalues --    0.05742   0.05960   0.06983   0.07279   0.07533
 Alpha virt. eigenvalues --    0.08035   0.10813   0.11186   0.11439   0.11883

 Mulliken charges:
               1
     1  Mg   0.817587
     2  C    0.178077
     3  C   -0.187805
     4  C   -0.186167
     5  C   -0.146839
     6  N   -0.626139
     7  C    0.289723
     8  C   -0.174089
     9  C   -0.113731
    10  C    0.283450
    11  C   -0.281005
    12  C   -0.161279
    13  C   -0.295329
    14  C    0.657137
    15  O   -0.478410
    16  O   -0.475117
    17  N   -0.680519
    18  C    0.336938
    19  C    0.019806
    20  C    0.048115
    21  C    0.239176
    22  C   -0.381147
    23  C   -0.136401
    24  C   -0.243966
    25  N   -0.682038
    26  C    0.281715
    27  C    0.019981
    28  C    0.012152
    29  C    0.347503
    30  C   -0.372970
    31  C   -0.240820
    32  C   -0.301538
    33  N   -0.765133
    34  C    0.208953
    35  C   -0.035800
    36  C   -0.023016
    37  C    0.318709
    38  C   -0.331047
    39  C    0.381384
    40  O   -0.384182
    41  C   -0.400907
    42  C    0.617602
    43  O   -0.481201
    44  O   -0.464901
    45  C   -0.073973
    46  C    0.058240
    47  C   -0.171369
    48  C    0.142132
    49  C   -0.366131
    50  C   -0.218099
    51  C   -0.172205
    52  C   -0.177580
    53  C   -0.066277
    54  C   -0.310529
    55  C   -0.181258
    56  C   -0.166929
    57  C   -0.163735
    58  C   -0.062852
    59  C   -0.301746
    60  C   -0.181469
    61  C   -0.170784
    62  C   -0.147993
    63  C   -0.058712
    64  C   -0.305071
    65  C   -0.330060
    66  H    0.085949
    67  H    0.102627
    68  H    0.081323
    69  H    0.100999
    70  H    0.099547
    71  H    0.073820
    72  H    0.105389
    73  H    0.133943
    74  H    0.122035
    75  H    0.113993
    76  H    0.136583
    77  H    0.150069
    78  H    0.126460
    79  H    0.118301
    80  H    0.107143
    81  H    0.104216
    82  H    0.099182
    83  H    0.114192
    84  H    0.126545
    85  H    0.094707
    86  H    0.140393
    87  H    0.109775
    88  H    0.103024
    89  H    0.075526
    90  H    0.125834
    91  H    0.121768
    92  H    0.101466
    93  H    0.146553
    94  H    0.128537
    95  H    0.161626
    96  H    0.129846
    97  H    0.105104
    98  H    0.131444
    99  H    0.122561
   100  H    0.107648
   101  H    0.090342
   102  H    0.086664
   103  H    0.112478
   104  H    0.135482
   105  H    0.087587
   106  H    0.087565
   107  H    0.089946
   108  H    0.087869
   109  H    0.094262
   110  H    0.071516
   111  H    0.086182
   112  H    0.110010
   113  H    0.098932
   114  H    0.094652
   115  H    0.065790
   116  H    0.085373
   117  H    0.108276
   118  H    0.100416
   119  H    0.099465
   120  H    0.082741
   121  H    0.086219
   122  H    0.114603
   123  H    0.087852
   124  H    0.075957
   125  H    0.077801
   126  H    0.046914
   127  H    0.090567
   128  H    0.076062
   129  H    0.098501
   130  H    0.100541
   131  H    0.081772
   132  H    0.091679
   133  H    0.108897
   134  H    0.104258
   135  H    0.099764
   136  H    0.109506
   137  H    0.085317
 Sum of Mulliken charges =   0.00000

 Dipole moment (field-independent basis, Debye):
    X=              0.9512    Y=              3.2943    Z=             -0.9815  Tot=              3.5666
 Quadrupole moment (field-independent basis, Debye-Ang):
   XX=           -344.1088   YY=           -389.4826   ZZ=           -399.7170
   XY=            -16.6941   XZ=             19.8199   YZ=             -0.7663

 Normal termination of Gaussian 09 at Sat Jul  6 18:50:29 2019.
