 Gaussian 09, Revision D.01,
 Gaussian 09:  ES64L-G09RevD.01 24-Apr-2013

 -------------------------------------
 # td=(NStates=1) CAM-B3LYP/6-31G(d,p)
 -------------------------------------

 --
 TD
 --
 Symbolic Z-matrix:
 Charge =  0 Multiplicity = 1

                         Standard orientation:
 ---------------------------------------------------------------------
 Center     Atomic      Atomic             Coordinates (Angstroms)
 Number     Number       Type             X           Y           Z
 ---------------------------------------------------------------------
      1         12           0       -7.142890    0.639326    0.121649
      2          6           0       -4.864057   -1.915297    0.510172
      3          6           0       -4.849721    2.801714    1.163304
      4          6           0       -9.496050    3.186297   -0.346414
      5          6           0       -9.633233   -1.733089   -0.913044
      6          7           0       -5.124685    0.456596    0.670503
      7          6           0       -4.325298   -0.682329    0.856677
      8          6           0       -2.837064   -0.334824    1.295837
      9          6           0       -3.015067    1.109722    1.685205
     10          6           0       -4.434573    1.511089    1.167006
     11          6           0       -2.982650    1.242032    3.257812
     12          6           0       -1.802722   -0.654861    0.182695
     13          6           0       -0.343387   -0.522165    0.684421
     14          6           0        0.536179   -0.689063   -0.557922
     15          8           0        0.286949   -1.169894   -1.638248
     16          8           0        1.872511   -0.514667   -0.016331
     17          7           0       -7.199241    2.679474    0.301587
     18          6           0       -6.066437    3.414772    0.666095
     19          6           0       -6.368991    4.826537    0.775695
     20          6           0       -7.654917    4.950338    0.284619
     21          6           0       -8.153561    3.573979    0.083715
     22          6           0       -5.415645    5.961898    1.224398
     23          6           0       -8.533497    6.058121    0.031390
     24          6           0       -8.494582    7.307449    0.518302
     25          7           0       -9.171691    0.613823   -0.491755
     26          6           0       -9.900836    1.840498   -0.660540
     27          6           0      -11.245229    1.483527   -1.063031
     28          6           0      -11.312932    0.092252   -1.223582
     29          6           0      -10.012947   -0.382126   -0.853968
     30          6           0      -12.364917    2.470490   -1.487134
     31          6           0      -12.473967   -0.827792   -1.754056
     32          6           0      -12.322676   -1.141204   -3.251956
     33          7           0       -7.340818   -1.331503   -0.116195
     34          6           0       -8.328684   -2.167167   -0.625485
     35          6           0       -7.806524   -3.618150   -0.561682
     36          6           0       -6.541782   -3.476968   -0.169394
     37          6           0       -6.268530   -2.123153    0.108417
     38          6           0       -8.752391   -4.785748   -0.829780
     39          6           0       -5.349900   -4.344099    0.084702
     40          8           0       -5.239337   -5.568343   -0.060892
     41          6           0       -4.287417   -3.341606    0.538434
     42          6           0       -3.760120   -3.737598    1.862752
     43          8           0       -3.846429   -3.074936    2.945112
     44          8           0       -2.829103   -4.749404    1.795300
     45          6           0       -2.286011   -5.227443    3.025960
     46          6           0        2.901328   -0.792806   -1.129882
     47          6           0        4.194379   -0.694330   -0.464861
     48          6           0        5.224161    0.143484   -0.900937
     49          6           0        5.019438    1.047723   -2.129853
     50          6           0        6.540790    0.315117   -0.181002
     51          6           0        7.799373   -0.342483   -0.945816
     52          6           0        9.007584   -0.125684   -0.105975
     53          6           0       10.239814   -0.590417   -0.936743
     54          6           0       10.137171   -2.024582   -1.279859
     55          6           0       11.452303   -0.334214    0.018297
     56          6           0       12.849776   -0.499081   -0.790378
     57          6           0       13.927273   -0.066793    0.213537
     58          6           0       15.414027   -0.234020   -0.397849
     59          6           0       15.696562   -1.665495   -0.979498
     60          6           0       16.430329    0.344481    0.399235
     61          6           0       17.899560    0.581640   -0.164869
     62          6           0       18.977238    1.273982    0.765748
     63          6           0       20.317647    1.461446    0.152048
     64          6           0       20.331960    2.232715   -1.081249
     65          6           0       21.249969    2.032893    1.108955
     66          1           0       -4.071184    3.417891    1.577407
     67          1           0      -10.135731    4.012477   -0.458130
     68          1           0      -10.470602   -2.336388   -1.092764
     69          1           0       -2.612672   -1.052031    2.010635
     70          1           0       -2.082288    1.512194    1.159679
     71          1           0       -1.984099    0.884194    3.792807
     72          1           0       -3.142699    2.331104    3.393223
     73          1           0       -3.935563    0.637563    3.805051
     74          1           0       -2.046174   -1.543967   -0.307340
     75          1           0       -2.087973    0.001600   -0.710507
     76          1           0       -0.215366    0.432916    1.210854
     77          1           0       -0.063645   -1.204413    1.480043
     78          1           0       -5.574997    6.941073    0.574031
     79          1           0       -5.559638    6.331751    2.211861
     80          1           0       -4.490107    5.776104    0.993275
     81          1           0       -9.284084    5.963982   -0.671384
     82          1           0       -9.254794    8.038726    0.179137
     83          1           0       -7.825151    7.753708    1.230537
     84          1           0      -12.121387    3.181812   -2.387569
     85          1           0      -13.273952    2.101763   -1.760762
     86          1           0      -12.564025    3.285978   -0.726722
     87          1           0      -12.494659   -1.795306   -1.149780
     88          1           0      -13.390622   -0.377284   -1.704466
     89          1           0      -13.077044   -1.883040   -3.587352
     90          1           0      -12.546520   -0.303091   -3.815848
     91          1           0      -11.339166   -1.833866   -3.373538
     92          1           0       -9.542828   -4.454174   -1.703868
     93          1           0       -8.303510   -5.817769   -0.882034
     94          1           0       -9.372450   -5.027416    0.038719
     95          1           0       -3.336898   -3.406006    0.068851
     96          1           0       -2.112236   -4.272847    3.749925
     97          1           0       -3.038862   -5.820082    3.483906
     98          1           0       -1.288622   -5.884601    2.790496
     99          1           0        2.796232   -1.680316   -1.433390
    100          1           0        2.788503   -0.012053   -1.919713
    101          1           0        4.217401   -1.282223    0.551038
    102          1           0        3.957940    1.295693   -2.484541
    103          1           0        5.588644    2.031499   -1.942981
    104          1           0        5.557835    0.570904   -3.151123
    105          1           0        6.725359    1.479491    0.107614
    106          1           0        6.326700   -0.079523    0.664682
    107          1           0        7.667199   -1.401593   -1.122096
    108          1           0        7.828353    0.251242   -1.782345
    109          1           0        9.299248    0.889075    0.008756
    110          1           0        9.017264   -0.467746    0.931440
    111          1           0       10.447728   -0.030416   -1.705461
    112          1           0        9.204226   -2.174478   -1.866294
    113          1           0       11.155993   -2.489942   -1.607861
    114          1           0        9.702900   -2.703099   -0.457864
    115          1           0       11.576152    0.661084    0.546910
    116          1           0       11.490811   -1.076423    0.809198
    117          1           0       13.195127   -1.608217   -0.983875
    118          1           0       12.756278    0.001928   -1.814425
    119          1           0       14.036624    1.101411    0.089883
    120          1           0       13.938984   -0.560896    1.117387
    121          1           0       15.493653    0.227024   -1.386798
    122          1           0       15.932193   -2.295748   -0.041750
    123          1           0       15.086317   -2.091300   -1.626467
    124          1           0       16.679430   -1.341988   -1.427320
    125          1           0       15.927444    1.316518    0.703424
    126          1           0       16.539234   -0.213116    1.542082
    127          1           0       18.447578   -0.438837   -0.214493
    128          1           0       17.895869    1.100568   -1.214263
    129          1           0       18.492499    2.407935    1.194300
    130          1           0       19.040441    0.773706    1.637887
    131          1           0       20.673416    0.597209   -0.149686
    132          1           0       20.033095    3.336325   -0.953471
    133          1           0       21.295964    2.369624   -1.650625
    134          1           0       19.586313    1.951533   -1.907323
    135          1           0       21.573612    1.592684    2.025495
    136          1           0       22.195843    2.249022    0.672188
    137          1           0       20.920873    3.030578    1.343219
 ---------------------------------------------------------------------

 SCF Done:  E(RCAM-B3LYP) =  -2932.63074165     A.U. after   16 cycles

 Excitation energies and oscillator strengths:

 Excited State   1:      Singlet-A      1.9423 eV  638.33 nm  f=0.2616  <S**2>=0.000
     240 -> 243        0.22643
     241 -> 242        0.65892
 This state for optimization and/or second-order correction.
 Total Energy, E(TD-HF/TD-KS) =  -2932.55936264
 Copying the excited state density for this state as the 1-particle RhoCI density.

 The electronic state is 1-A.
 Alpha  occ. eigenvalues --  -46.84723 -19.26437 -19.24868 -19.23195 -19.21664
 Alpha  occ. eigenvalues --  -19.20900 -14.41850 -14.40240 -14.39794 -14.39013
 Alpha  occ. eigenvalues --  -10.40239 -10.40231 -10.36481 -10.32665 -10.31535
 Alpha  occ. eigenvalues --  -10.30392 -10.30319 -10.30225 -10.30070 -10.29846
 Alpha  occ. eigenvalues --  -10.29362 -10.29281 -10.29270 -10.29096 -10.28606
 Alpha  occ. eigenvalues --  -10.28463 -10.28288 -10.28244 -10.28224 -10.28145
 Alpha  occ. eigenvalues --  -10.28105 -10.28021 -10.27896 -10.27423 -10.27197
 Alpha  occ. eigenvalues --  -10.27150 -10.26923 -10.26872 -10.26813 -10.26811
 Alpha  occ. eigenvalues --  -10.26762 -10.26743 -10.26724 -10.26477 -10.26272
 Alpha  occ. eigenvalues --  -10.26214 -10.26079 -10.26024 -10.25817 -10.25748
 Alpha  occ. eigenvalues --  -10.25712 -10.25703 -10.25586 -10.25528 -10.25404
 Alpha  occ. eigenvalues --  -10.25346 -10.25276 -10.25260 -10.25110 -10.25082
 Alpha  occ. eigenvalues --  -10.24406 -10.24326 -10.24210 -10.23571 -10.22909
 Alpha  occ. eigenvalues --   -3.13702  -1.88408  -1.87931  -1.87894  -1.17126
 Alpha  occ. eigenvalues --   -1.15790  -1.10836  -1.07641  -1.06748  -1.04312
 Alpha  occ. eigenvalues --   -1.03641  -1.02798  -1.01195  -0.93095  -0.91765
 Alpha  occ. eigenvalues --   -0.91425  -0.90447  -0.90004  -0.89225  -0.88805
 Alpha  occ. eigenvalues --   -0.88257  -0.87437  -0.87077  -0.86591  -0.85843
 Alpha  occ. eigenvalues --   -0.85027  -0.84284  -0.83421  -0.82859  -0.82113
 Alpha  occ. eigenvalues --   -0.81171  -0.80885  -0.80146  -0.79616  -0.78103
 Alpha  occ. eigenvalues --   -0.77630  -0.77030  -0.76286  -0.76220  -0.75796
 Alpha  occ. eigenvalues --   -0.75643  -0.74971  -0.74575  -0.72907  -0.71771
 Alpha  occ. eigenvalues --   -0.70989  -0.70759  -0.69330  -0.69065  -0.68787
 Alpha  occ. eigenvalues --   -0.67601  -0.67404  -0.65230  -0.64975  -0.64895
 Alpha  occ. eigenvalues --   -0.64583  -0.63593  -0.63579  -0.63061  -0.61886
 Alpha  occ. eigenvalues --   -0.61136  -0.60525  -0.60371  -0.59712  -0.59024
 Alpha  occ. eigenvalues --   -0.58808  -0.58391  -0.57621  -0.57514  -0.56643
 Alpha  occ. eigenvalues --   -0.56191  -0.55611  -0.55113  -0.55072  -0.54740
 Alpha  occ. eigenvalues --   -0.54489  -0.54182  -0.53725  -0.53513  -0.53315
 Alpha  occ. eigenvalues --   -0.53164  -0.53067  -0.52495  -0.52060  -0.51607
 Alpha  occ. eigenvalues --   -0.51204  -0.51045  -0.50996  -0.50678  -0.50408
 Alpha  occ. eigenvalues --   -0.50126  -0.50049  -0.49841  -0.49616  -0.49387
 Alpha  occ. eigenvalues --   -0.49210  -0.49033  -0.48515  -0.48328  -0.48139
 Alpha  occ. eigenvalues --   -0.47843  -0.47593  -0.47486  -0.47242  -0.47117
 Alpha  occ. eigenvalues --   -0.46965  -0.46653  -0.46078  -0.45947  -0.45743
 Alpha  occ. eigenvalues --   -0.45652  -0.45415  -0.45122  -0.44831  -0.44749
 Alpha  occ. eigenvalues --   -0.44516  -0.44279  -0.44045  -0.43949  -0.43882
 Alpha  occ. eigenvalues --   -0.43820  -0.43533  -0.43321  -0.43213  -0.43004
 Alpha  occ. eigenvalues --   -0.43002  -0.42842  -0.42602  -0.42559  -0.42375
 Alpha  occ. eigenvalues --   -0.42222  -0.42144  -0.41798  -0.41616  -0.41298
 Alpha  occ. eigenvalues --   -0.41290  -0.41166  -0.41015  -0.40699  -0.40478
 Alpha  occ. eigenvalues --   -0.40346  -0.40306  -0.40245  -0.39745  -0.39456
 Alpha  occ. eigenvalues --   -0.39285  -0.39127  -0.39045  -0.38326  -0.38001
 Alpha  occ. eigenvalues --   -0.37924  -0.37634  -0.37317  -0.37067  -0.36633
 Alpha  occ. eigenvalues --   -0.36379  -0.35926  -0.35694  -0.35571  -0.35230
 Alpha  occ. eigenvalues --   -0.35105  -0.35009  -0.34696  -0.33546  -0.33419
 Alpha  occ. eigenvalues --   -0.33267  -0.32112  -0.31706  -0.31381  -0.30931
 Alpha  occ. eigenvalues --   -0.30411  -0.28560  -0.27797  -0.27370  -0.23131
 Alpha  occ. eigenvalues --   -0.20868
 Alpha virt. eigenvalues --   -0.06715  -0.03267   0.00980   0.04119   0.04303
 Alpha virt. eigenvalues --    0.04499   0.05009   0.06041   0.06522   0.07513
 Alpha virt. eigenvalues --    0.07877   0.10344   0.11430   0.12052   0.12136

 Mulliken charges:
               1
     1  Mg   0.823483
     2  C    0.027840
     3  C   -0.200558
     4  C   -0.145814
     5  C   -0.145430
     6  N   -0.647871
     7  C    0.269292
     8  C   -0.109310
     9  C   -0.152448
    10  C    0.360923
    11  C   -0.290438
    12  C   -0.206283
    13  C   -0.267364
    14  C    0.625417
    15  O   -0.442671
    16  O   -0.538731
    17  N   -0.682306
    18  C    0.262192
    19  C    0.014819
    20  C    0.035658
    21  C    0.279787
    22  C   -0.362501
    23  C   -0.094067
    24  C   -0.246236
    25  N   -0.683682
    26  C    0.270777
    27  C    0.007824
    28  C    0.021321
    29  C    0.296653
    30  C   -0.374610
    31  C   -0.234794
    32  C   -0.299778
    33  N   -0.715301
    34  C    0.231973
    35  C    0.037552
    36  C   -0.010880
    37  C    0.335901
    38  C   -0.380560
    39  C    0.406872
    40  O   -0.459723
    41  C   -0.328493
    42  C    0.612744
    43  O   -0.494821
    44  O   -0.452959
    45  C   -0.082703
    46  C    0.048593
    47  C   -0.149703
    48  C    0.101177
    49  C   -0.354281
    50  C   -0.222312
    51  C   -0.174680
    52  C   -0.177763
    53  C   -0.037762
    54  C   -0.320033
    55  C   -0.194020
    56  C   -0.189485
    57  C   -0.166629
    58  C   -0.097546
    59  C   -0.304136
    60  C   -0.135610
    61  C   -0.186870
    62  C   -0.143314
    63  C   -0.028979
    64  C   -0.319015
    65  C   -0.321523
    66  H    0.076913
    67  H    0.090790
    68  H    0.085759
    69  H    0.130126
    70  H    0.103859
    71  H    0.097853
    72  H    0.108514
    73  H    0.110393
    74  H    0.127786
    75  H    0.107646
    76  H    0.139697
    77  H    0.157613
    78  H    0.101512
    79  H    0.132512
    80  H    0.128157
    81  H    0.096769
    82  H    0.092495
    83  H    0.101724
    84  H    0.102775
    85  H    0.120500
    86  H    0.108288
    87  H    0.100087
    88  H    0.112136
    89  H    0.097551
    90  H    0.125019
    91  H    0.091112
    92  H    0.106703
    93  H    0.145148
    94  H    0.139466
    95  H    0.182693
    96  H    0.128228
    97  H    0.139939
    98  H    0.113344
    99  H    0.136830
   100  H    0.110312
   101  H    0.093124
   102  H    0.114126
   103  H    0.107376
   104  H    0.090626
   105  H    0.079016
   106  H    0.110333
   107  H    0.109786
   108  H    0.114686
   109  H    0.095876
   110  H    0.097760
   111  H    0.094928
   112  H    0.100115
   113  H    0.101329
   114  H    0.088368
   115  H    0.089678
   116  H    0.096283
   117  H    0.079773
   118  H    0.089102
   119  H    0.087671
   120  H    0.110197
   121  H    0.086835
   122  H    0.077558
   123  H    0.112603
   124  H    0.093665
   125  H    0.088619
   126  H    0.039974
   127  H    0.092525
   128  H    0.087866
   129  H    0.030435
   130  H    0.107828
   131  H    0.104485
   132  H    0.086634
   133  H    0.098456
   134  H    0.091494
   135  H    0.102818
   136  H    0.097682
   137  H    0.103313
 Sum of Mulliken charges =   0.00000

 Dipole moment (field-independent basis, Debye):
    X=              1.8848    Y=              3.1996    Z=              0.3046  Tot=              3.7259
 Quadrupole moment (field-independent basis, Debye-Ang):
   XX=           -333.9620   YY=           -392.3290   ZZ=           -398.5346
   XY=            -10.6072   XZ=             10.3485   YZ=             -7.1137

 Normal termination of Gaussian 09 at Sat Jul  6 04:19:24 2019.
