 Gaussian 16, Revision A.03,
 Gaussian 16:  ES64L-G16RevA.03 25-Dec-2016

 ----------------------------------------------------------------------
 # td=(NStates=1) iop(3/107=0140000000,3/108=0140000000) CAM-B3LYP/6-31
 G(d,p)
 ----------------------------------------------------------------------

 --
 TD
 --
 Symbolic Z-matrix:
 Charge =  0 Multiplicity = 1

                         Standard orientation:
 ---------------------------------------------------------------------
 Center     Atomic      Atomic             Coordinates (Angstroms)
 Number     Number       Type             X           Y           Z
 ---------------------------------------------------------------------
      1         12           0       -7.123003    0.618571    0.118755
      2          6           0       -4.834868   -1.863748    0.426846
      3          6           0       -4.806517    2.837050    1.133431
      4          6           0       -9.376636    3.043381   -0.330234
      5          6           0       -9.573655   -1.747383   -0.774227
      6          7           0       -5.109645    0.482915    0.689002
      7          6           0       -4.323231   -0.708831    0.858425
      8          6           0       -2.853061   -0.417305    1.226719
      9          6           0       -3.001606    1.015789    1.611383
     10          6           0       -4.301823    1.493050    1.233084
     11          6           0       -2.881204    1.283040    3.122784
     12          6           0       -1.980315   -0.503406    0.122342
     13          6           0       -0.481509   -0.387355    0.448033
     14          6           0        0.509847   -0.580154   -0.586600
     15          8           0        0.242936   -0.819231   -1.758446
     16          8           0        1.784849   -0.363585   -0.191379
     17          7           0       -7.129479    2.609422    0.323938
     18          6           0       -6.087971    3.310065    0.850389
     19          6           0       -6.410797    4.711253    0.826292
     20          6           0       -7.683841    4.771788    0.323262
     21          6           0       -8.219739    3.500620    0.081352
     22          6           0       -5.350876    5.800655    1.026436
     23          6           0       -8.583611    5.970512    0.118348
     24          6           0       -8.344154    7.233966    0.668821
     25          7           0       -9.122146    0.604402   -0.509660
     26          6           0       -9.880867    1.781879   -0.552207
     27          6           0      -11.159180    1.389949   -1.094562
     28          6           0      -11.276604    0.005554   -1.200154
     29          6           0      -10.008570   -0.490864   -0.806900
     30          6           0      -12.258572    2.390897   -1.313406
     31          6           0      -12.479017   -0.741794   -1.722777
     32          6           0      -12.275081   -1.085647   -3.223326
     33          7           0       -7.274859   -1.425112   -0.108806
     34          6           0       -8.314090   -2.271353   -0.463065
     35          6           0       -7.811992   -3.665253   -0.370110
     36          6           0       -6.473533   -3.651373   -0.091730
     37          6           0       -6.199922   -2.233550    0.128623
     38          6           0       -8.535599   -4.936287   -0.805971
     39          6           0       -5.280180   -4.372533    0.078795
     40          8           0       -5.071905   -5.632169    0.037748
     41          6           0       -4.144592   -3.283619    0.495130
     42          6           0       -3.636581   -3.585352    1.764407
     43          8           0       -3.683745   -3.036062    2.880780
     44          8           0       -2.832098   -4.770773    1.706117
     45          6           0       -2.211153   -5.270692    2.844472
     46          6           0        2.877242   -0.500146   -1.120874
     47          6           0        4.159606   -0.282368   -0.464337
     48          6           0        5.167751    0.551865   -0.933461
     49          6           0        5.091375    1.345562   -2.184963
     50          6           0        6.426239    0.614638   -0.197533
     51          6           0        7.654875    0.052008   -1.030233
     52          6           0        8.815150   -0.077828   -0.080299
     53          6           0       10.203169   -0.434550   -0.941411
     54          6           0       10.035713   -1.932533   -1.384714
     55          6           0       11.324426   -0.131337   -0.019696
     56          6           0       12.757300   -0.388098   -0.695129
     57          6           0       13.878786   -0.057537    0.299703
     58          6           0       15.215343   -0.267394   -0.454389
     59          6           0       15.464980   -1.688270   -0.922961
     60          6           0       16.490393    0.332546    0.486571
     61          6           0       17.872965    0.303314   -0.165171
     62          6           0       18.774459    1.215450    0.663434
     63          6           0       20.271357    1.243744    0.245694
     64          6           0       20.386078    2.033295   -1.026720
     65          6           0       21.139573    1.571870    1.291177
     66          1           0       -4.128514    3.389541    1.474926
     67          1           0      -10.146833    3.897079   -0.454776
     68          1           0      -10.382884   -2.658758   -0.922034
     69          1           0       -2.592661   -1.024243    2.068069
     70          1           0       -2.246852    1.667147    1.083622
     71          1           0       -1.738195    1.119403    3.399475
     72          1           0       -3.117669    2.219782    3.431700
     73          1           0       -3.287394    0.488251    3.699131
     74          1           0       -1.822151   -1.593558   -0.296734
     75          1           0       -1.877582   -0.071296   -0.869977
     76          1           0       -0.246367    0.716830    0.701020
     77          1           0       -0.264713   -1.131657    1.267941
     78          1           0       -5.529959    6.627092    0.353468
     79          1           0       -5.345243    6.125127    2.047772
     80          1           0       -4.243994    5.633658    0.950193
     81          1           0       -9.671688    5.853958   -0.359550
     82          1           0       -9.101948    8.158299    0.500291
     83          1           0       -7.397860    7.432889    1.248699
     84          1           0      -11.839588    3.178120   -1.979064
     85          1           0      -13.190178    1.897073   -1.915149
     86          1           0      -12.719643    2.770610   -0.448721
     87          1           0      -12.697691   -1.690277   -1.071457
     88          1           0      -13.291715    0.037386   -1.692632
     89          1           0      -12.969843   -1.881576   -3.738724
     90          1           0      -12.225230   -0.266468   -3.815075
     91          1           0      -11.287216   -1.690676   -3.073118
     92          1           0       -8.853484   -5.223168   -1.817499
     93          1           0       -8.107803   -5.906601   -0.522428
     94          1           0       -9.385860   -4.934094   -0.209587
     95          1           0       -3.217939   -3.353938   -0.203425
     96          1           0       -1.413165   -4.507311    3.164653
     97          1           0       -3.000367   -5.627189    3.619847
     98          1           0       -1.922865   -6.314891    2.531799
     99          1           0        2.745561   -1.515124   -1.624754
    100          1           0        2.800352    0.174485   -2.101326
    101          1           0        4.227134   -0.613760    0.539253
    102          1           0        4.113555    1.328835   -2.727062
    103          1           0        5.301718    2.365961   -1.815691
    104          1           0        5.912598    1.095385   -2.993415
    105          1           0        6.637437    1.755712   -0.130632
    106          1           0        6.424218   -0.076508    0.873328
    107          1           0        7.400862   -0.966571   -1.395043
    108          1           0        7.796897    0.589588   -1.867394
    109          1           0        8.872702    0.857193    0.571230
    110          1           0        8.871720   -0.948577    0.630004
    111          1           0       10.230801    0.177096   -1.859912
    112          1           0        9.165625   -2.138034   -2.005659
    113          1           0       10.876687   -2.094994   -1.984569
    114          1           0        9.765366   -2.573598   -0.520159
    115          1           0       11.361441    0.946143    0.130293
    116          1           0       11.281706   -0.788251    1.029510
    117          1           0       13.001220   -1.433228   -0.988211
    118          1           0       12.559304    0.354209   -1.506085
    119          1           0       13.782018    0.974825    0.663767
    120          1           0       13.682974   -0.645275    1.270902
    121          1           0       15.264712    0.429439   -1.273675
    122          1           0       15.437165   -2.257756   -0.057685
    123          1           0       14.478612   -1.898152   -1.614005
    124          1           0       16.370906   -1.981074   -1.509584
    125          1           0       16.108224    1.248220    0.797619
    126          1           0       16.742167   -0.429313    1.360004
    127          1           0       17.999682   -0.892336   -0.163967
    128          1           0       17.854575    0.838084   -1.272354
    129          1           0       18.395062    2.131279    0.759127
    130          1           0       18.627582    0.993869    1.819595
    131          1           0       20.539635    0.084666   -0.074598
    132          1           0       20.646428    3.142086   -0.618074
    133          1           0       21.464321    1.800770   -1.663812
    134          1           0       19.520741    1.707795   -1.781580
    135          1           0       21.220467    0.971775    2.262026
    136          1           0       22.228196    1.401781    1.055193
    137          1           0       21.109300    2.714045    1.537033
 ---------------------------------------------------------------------

 SCF Done:  E(RCAM-B3LYP) =  -2933.44742776     A.U. after   16 cycles

 Excitation energies and oscillator strengths:

 Excited State   1:      Singlet-A      2.1049 eV  589.02 nm  f=0.2517  <S**2>=0.000
     240 -> 243        0.23172
     241 -> 242        0.65779
 This state for optimization and/or second-order correction.
 Total Energy, E(TD-HF/TD-DFT) =  -2933.37007370
 Copying the excited state density for this state as the 1-particle RhoCI density.

 The electronic state is 1-A.
 Alpha  occ. eigenvalues --  -46.79637 -19.21904 -19.18977 -19.16424 -19.16286
 Alpha  occ. eigenvalues --  -19.15913 -14.37878 -14.35855 -14.35131 -14.34753
 Alpha  occ. eigenvalues --  -10.34436 -10.34077 -10.31096 -10.28155 -10.27080
 Alpha  occ. eigenvalues --  -10.26436 -10.26192 -10.25762 -10.25410 -10.25323
 Alpha  occ. eigenvalues --  -10.25065 -10.24937 -10.24895 -10.24808 -10.24708
 Alpha  occ. eigenvalues --  -10.24355 -10.24235 -10.24065 -10.24026 -10.23874
 Alpha  occ. eigenvalues --  -10.23843 -10.23737 -10.23550 -10.23530 -10.23433
 Alpha  occ. eigenvalues --  -10.23426 -10.23422 -10.23075 -10.22989 -10.22908
 Alpha  occ. eigenvalues --  -10.22907 -10.22760 -10.22519 -10.22291 -10.22195
 Alpha  occ. eigenvalues --  -10.22174 -10.22065 -10.22041 -10.21998 -10.21965
 Alpha  occ. eigenvalues --  -10.21843 -10.21722 -10.21477 -10.21443 -10.21436
 Alpha  occ. eigenvalues --  -10.21249 -10.21045 -10.20995 -10.20915 -10.20885
 Alpha  occ. eigenvalues --  -10.20838 -10.20677 -10.20546 -10.20468 -10.20097
 Alpha  occ. eigenvalues --   -3.08225  -1.83169  -1.82702  -1.82624  -1.12812
 Alpha  occ. eigenvalues --   -1.09944  -1.03689  -1.02539  -1.01874  -0.98826
 Alpha  occ. eigenvalues --   -0.98243  -0.97678  -0.96037  -0.87708  -0.87532
 Alpha  occ. eigenvalues --   -0.86441  -0.85302  -0.85097  -0.84551  -0.83831
 Alpha  occ. eigenvalues --   -0.83269  -0.82942  -0.82849  -0.82317  -0.82152
 Alpha  occ. eigenvalues --   -0.80781  -0.79854  -0.78941  -0.78530  -0.77611
 Alpha  occ. eigenvalues --   -0.77230  -0.76764  -0.76225  -0.75223  -0.74770
 Alpha  occ. eigenvalues --   -0.73778  -0.72702  -0.71260  -0.71052  -0.70704
 Alpha  occ. eigenvalues --   -0.70540  -0.70124  -0.69482  -0.69131  -0.68914
 Alpha  occ. eigenvalues --   -0.67743  -0.66113  -0.65519  -0.65123  -0.64156
 Alpha  occ. eigenvalues --   -0.62852  -0.62160  -0.61955  -0.61465  -0.59773
 Alpha  occ. eigenvalues --   -0.59305  -0.58686  -0.58480  -0.57691  -0.57290
 Alpha  occ. eigenvalues --   -0.57209  -0.57005  -0.56246  -0.55374  -0.55251
 Alpha  occ. eigenvalues --   -0.54623  -0.54315  -0.53896  -0.53209  -0.52715
 Alpha  occ. eigenvalues --   -0.52648  -0.52042  -0.51747  -0.51521  -0.51335
 Alpha  occ. eigenvalues --   -0.50982  -0.50419  -0.49885  -0.49812  -0.49462
 Alpha  occ. eigenvalues --   -0.49171  -0.48954  -0.48531  -0.48428  -0.47874
 Alpha  occ. eigenvalues --   -0.47512  -0.47341  -0.47167  -0.47103  -0.46908
 Alpha  occ. eigenvalues --   -0.46797  -0.46548  -0.46284  -0.46089  -0.46015
 Alpha  occ. eigenvalues --   -0.45913  -0.45591  -0.45314  -0.45056  -0.44849
 Alpha  occ. eigenvalues --   -0.44759  -0.44531  -0.44491  -0.44308  -0.43816
 Alpha  occ. eigenvalues --   -0.43459  -0.43290  -0.43095  -0.42665  -0.42396
 Alpha  occ. eigenvalues --   -0.42343  -0.42250  -0.41836  -0.41729  -0.41185
 Alpha  occ. eigenvalues --   -0.41103  -0.40972  -0.40935  -0.40758  -0.40465
 Alpha  occ. eigenvalues --   -0.40445  -0.40312  -0.40056  -0.39765  -0.39455
 Alpha  occ. eigenvalues --   -0.39302  -0.39122  -0.39009  -0.38831  -0.38678
 Alpha  occ. eigenvalues --   -0.38652  -0.38372  -0.38150  -0.38014  -0.37733
 Alpha  occ. eigenvalues --   -0.37635  -0.37586  -0.37280  -0.37099  -0.36880
 Alpha  occ. eigenvalues --   -0.36532  -0.36448  -0.36297  -0.36067  -0.35780
 Alpha  occ. eigenvalues --   -0.35733  -0.35590  -0.35204  -0.34947  -0.34485
 Alpha  occ. eigenvalues --   -0.34425  -0.34302  -0.34187  -0.33996  -0.33646
 Alpha  occ. eigenvalues --   -0.33368  -0.33262  -0.32751  -0.32741  -0.32218
 Alpha  occ. eigenvalues --   -0.31535  -0.30687  -0.30569  -0.30390  -0.29966
 Alpha  occ. eigenvalues --   -0.29852  -0.29071  -0.28946  -0.28427  -0.27624
 Alpha  occ. eigenvalues --   -0.26893  -0.25807  -0.25460  -0.24981  -0.22123
 Alpha  occ. eigenvalues --   -0.20950
 Alpha virt. eigenvalues --   -0.07656  -0.04216  -0.01458   0.01228   0.02717
 Alpha virt. eigenvalues --    0.02893   0.03638   0.04475   0.04835   0.05625
 Alpha virt. eigenvalues --    0.06057   0.08520   0.08798   0.09054   0.09397

 Mulliken charges:
               1
     1  Mg   0.803651
     2  C    0.042539
     3  C   -0.140695
     4  C   -0.206035
     5  C   -0.195718
     6  N   -0.608721
     7  C    0.264855
     8  C   -0.116504
     9  C   -0.174100
    10  C    0.348908
    11  C   -0.320906
    12  C   -0.178141
    13  C   -0.263375
    14  C    0.599358
    15  O   -0.485676
    16  O   -0.472944
    17  N   -0.746482
    18  C    0.344391
    19  C    0.014999
    20  C    0.023761
    21  C    0.351377
    22  C   -0.394062
    23  C   -0.080377
    24  C   -0.247971
    25  N   -0.695530
    26  C    0.346498
    27  C   -0.003226
    28  C    0.067762
    29  C    0.312004
    30  C   -0.378245
    31  C   -0.247811
    32  C   -0.289424
    33  N   -0.689864
    34  C    0.291014
    35  C   -0.044518
    36  C    0.161005
    37  C    0.240726
    38  C   -0.391014
    39  C    0.320015
    40  O   -0.481761
    41  C   -0.335194
    42  C    0.634978
    43  O   -0.492522
    44  O   -0.463095
    45  C   -0.059461
    46  C    0.022544
    47  C   -0.129235
    48  C    0.148315
    49  C   -0.368711
    50  C   -0.227785
    51  C   -0.160100
    52  C   -0.175434
    53  C   -0.076836
    54  C   -0.314591
    55  C   -0.159899
    56  C   -0.183734
    57  C   -0.174402
    58  C   -0.055370
    59  C   -0.313234
    60  C   -0.187768
    61  C   -0.150523
    62  C   -0.157311
    63  C   -0.006567
    64  C   -0.278503
    65  C   -0.312778
    66  H    0.027993
    67  H    0.076854
    68  H    0.085328
    69  H    0.143475
    70  H    0.114568
    71  H    0.086264
    72  H    0.125635
    73  H    0.144629
    74  H    0.096862
    75  H    0.146916
    76  H    0.122640
    77  H    0.131830
    78  H    0.133043
    79  H    0.129753
    80  H    0.118792
    81  H    0.090454
    82  H    0.097313
    83  H    0.103714
    84  H    0.117179
    85  H    0.084481
    86  H    0.138224
    87  H    0.101146
    88  H    0.095900
    89  H    0.089891
    90  H    0.124720
    91  H    0.097240
    92  H    0.131677
    93  H    0.140534
    94  H    0.123138
    95  H    0.171671
    96  H    0.105178
    97  H    0.104932
    98  H    0.120670
    99  H    0.119174
   100  H    0.095815
   101  H    0.089371
   102  H    0.117282
   103  H    0.119977
   104  H    0.111142
   105  H    0.085458
   106  H    0.079952
   107  H    0.098957
   108  H    0.106188
   109  H    0.079114
   110  H    0.092174
   111  H    0.078754
   112  H    0.102910
   113  H    0.112594
   114  H    0.101573
   115  H    0.099474
   116  H    0.057430
   117  H    0.103264
   118  H    0.086866
   119  H    0.088137
   120  H    0.084945
   121  H    0.092487
   122  H    0.117015
   123  H    0.077685
   124  H    0.106596
   125  H    0.089998
   126  H    0.072410
   127  H    0.086268
   128  H    0.059568
   129  H    0.108050
   130  H    0.064143
   131  H    0.059283
   132  H    0.085461
   133  H    0.063636
   134  H    0.103839
   135  H    0.103866
   136  H    0.095342
   137  H    0.078607
 Sum of Mulliken charges =  -0.00000

 Dipole moment (field-independent basis, Debye):
    X=              1.5036    Y=              5.9615    Z=              0.4643  Tot=              6.1657
 Quadrupole moment (field-independent basis, Debye-Ang):
   XX=           -353.1751   YY=           -397.2502   ZZ=           -401.4634
   XY=            -21.3341   XZ=              8.9110   YZ=              1.4569

 Normal termination of Gaussian 16 at Fri Sep  6 15:44:44 2019.
