 Gaussian 16, Revision A.03,
 Gaussian 16:  ES64L-G16RevA.03 25-Dec-2016

 ----------------------------------------------------------------------
 # td=(NStates=1) iop(3/107=0140000000,3/108=0140000000) CAM-B3LYP/6-31
 G(d,p)
 ----------------------------------------------------------------------

 --
 TD
 --
 Symbolic Z-matrix:
 Charge =  0 Multiplicity = 1

                         Standard orientation:
 ---------------------------------------------------------------------
 Center     Atomic      Atomic             Coordinates (Angstroms)
 Number     Number       Type             X           Y           Z
 ---------------------------------------------------------------------
      1         12           0       -7.133474    0.634769   -0.049263
      2          6           0       -4.865095   -1.906935    0.550937
      3          6           0       -4.800948    2.878090    1.131499
      4          6           0       -9.401831    3.069450   -0.360410
      5          6           0       -9.549294   -1.695526   -0.920081
      6          7           0       -5.174886    0.456890    0.657792
      7          6           0       -4.305814   -0.645466    0.793551
      8          6           0       -2.903171   -0.385175    1.268520
      9          6           0       -3.010933    1.142834    1.635030
     10          6           0       -4.389713    1.552495    1.100754
     11          6           0       -2.918672    1.264879    3.130248
     12          6           0       -1.853822   -0.706651    0.151884
     13          6           0       -0.392654   -0.503284    0.647487
     14          6           0        0.520406   -0.816271   -0.642873
     15          8           0        0.166252   -1.118391   -1.721849
     16          8           0        1.901486   -0.614863   -0.140508
     17          7           0       -7.159295    2.708429    0.176437
     18          6           0       -6.023361    3.368096    0.778066
     19          6           0       -6.388595    4.770507    0.771057
     20          6           0       -7.667967    4.834656    0.235437
     21          6           0       -8.149160    3.514681   -0.030116
     22          6           0       -5.396707    5.967824    1.004912
     23          6           0       -8.547548    6.035765   -0.112085
     24          6           0       -8.500473    7.221549    0.589408
     25          7           0       -9.094888    0.697440   -0.548025
     26          6           0       -9.910269    1.839822   -0.626017
     27          6           0      -11.322773    1.459185   -0.944883
     28          6           0      -11.351567    0.043502   -1.230545
     29          6           0       -9.923171   -0.335799   -0.876789
     30          6           0      -12.418279    2.467968   -1.083456
     31          6           0      -12.399120   -0.809552   -1.496351
     32          6           0      -12.310468   -1.287318   -3.037083
     33          7           0       -7.241125   -1.309220   -0.128053
     34          6           0       -8.276969   -2.177829   -0.525359
     35          6           0       -7.804214   -3.575566   -0.446696
     36          6           0       -6.542563   -3.557302   -0.089573
     37          6           0       -6.156572   -2.156084    0.126974
     38          6           0       -8.672782   -4.762149   -0.872214
     39          6           0       -5.268240   -4.376101    0.201362
     40          8           0       -5.156176   -5.489495    0.108363
     41          6           0       -4.106437   -3.185935    0.584108
     42          6           0       -3.478003   -3.696955    1.853529
     43          8           0       -3.873038   -3.106484    2.897782
     44          8           0       -2.680728   -4.688908    1.732315
     45          6           0       -2.242736   -5.187333    3.030335
     46          6           0        2.812474   -0.927325   -1.198413
     47          6           0        4.133152   -0.584766   -0.592260
     48          6           0        5.217922    0.242810   -1.009243
     49          6           0        5.029102    1.071182   -2.188732
     50          6           0        6.456293    0.348991   -0.218793
     51          6           0        7.692472   -0.276847   -1.035523
     52          6           0        8.989709   -0.074877   -0.271435
     53          6           0       10.245574   -0.656469   -0.875313
     54          6           0       10.150701   -2.054109   -1.322058
     55          6           0       11.479300   -0.409529   -0.018467
     56          6           0       12.831024   -0.621378   -0.710065
     57          6           0       14.030242   -0.142901    0.155329
     58          6           0       15.410688   -0.180409   -0.500454
     59          6           0       15.732637   -1.630510   -0.859992
     60          6           0       16.337885    0.457080    0.503309
     61          6           0       17.799175    0.631342   -0.113605
     62          6           0       18.658097    1.515205    0.732148
     63          6           0       20.126096    1.445645    0.301555
     64          6           0       20.328186    2.222006   -0.996932
     65          6           0       21.036896    2.127571    1.328465
     66          1           0       -4.228413    3.605512    1.631469
     67          1           0      -10.272350    3.836047   -0.236656
     68          1           0      -10.266027   -2.369638   -1.128134
     69          1           0       -2.885530   -1.073401    2.181725
     70          1           0       -2.207198    1.726516    1.186939
     71          1           0       -2.092596    0.990289    3.786056
     72          1           0       -2.786057    2.357143    3.415063
     73          1           0       -3.712058    1.016319    3.655676
     74          1           0       -2.030138   -1.681483   -0.200960
     75          1           0       -2.085184    0.052100   -0.588285
     76          1           0       -0.075339    0.475430    0.965940
     77          1           0       -0.216318   -1.237958    1.417961
     78          1           0       -5.687048    6.780835    0.242169
     79          1           0       -5.311007    6.280749    1.999930
     80          1           0       -4.226074    5.704465    0.904787
     81          1           0       -9.322783    6.030636   -0.922061
     82          1           0       -8.973239    8.208946    0.569738
     83          1           0       -7.791339    7.215229    1.580148
     84          1           0      -12.191264    3.386372   -1.815442
     85          1           0      -13.315857    2.079714   -1.677226
     86          1           0      -12.803003    2.950716   -0.047300
     87          1           0      -12.403487   -1.815525   -0.910868
     88          1           0      -13.473160   -0.422859   -1.471685
     89          1           0      -13.256037   -1.744162   -3.306667
     90          1           0      -12.107936   -0.341865   -3.626186
     91          1           0      -11.468705   -1.837585   -3.374051
     92          1           0       -9.012119   -4.093346   -1.879988
     93          1           0       -8.005354   -5.639801   -0.878147
     94          1           0       -9.549261   -4.846563   -0.125460
     95          1           0       -3.491811   -3.431509   -0.415832
     96          1           0       -1.455218   -4.414508    3.502165
     97          1           0       -3.003331   -5.428522    3.649903
     98          1           0       -1.567837   -6.083547    2.775363
     99          1           0        2.707948   -1.870578   -1.465982
    100          1           0        2.717181   -0.191215   -1.930635
    101          1           0        4.453411   -1.204126    0.217427
    102          1           0        3.836803    1.285888   -2.631889
    103          1           0        5.444924    2.028536   -1.984933
    104          1           0        5.581710    0.626193   -3.066911
    105          1           0        6.759855    1.531430   -0.338767
    106          1           0        6.370655   -0.219796    0.816827
    107          1           0        7.484732   -1.404972   -1.257209
    108          1           0        7.552286    0.101584   -2.054358
    109          1           0        9.200287    1.000228    0.081051
    110          1           0        8.910682   -0.753391    0.711412
    111          1           0       10.380907   -0.034104   -1.830165
    112          1           0        9.592246   -2.244944   -2.393266
    113          1           0       11.222065   -2.571134   -1.350079
    114          1           0        9.375061   -2.787555   -0.481326
    115          1           0       11.609919    0.624196    0.513102
    116          1           0       11.438901   -1.172335    0.926309
    117          1           0       13.077321   -1.736902   -0.853895
    118          1           0       12.832832   -0.098317   -1.712457
    119          1           0       13.713701    0.877603    0.428836
    120          1           0       14.034743   -0.740225    1.019060
    121          1           0       15.368305    0.541474   -1.200989
    122          1           0       15.998696   -2.288360    0.138310
    123          1           0       14.950204   -2.119014   -1.458789
    124          1           0       16.631229   -1.672060   -1.778777
    125          1           0       15.943865    1.349769    0.737354
    126          1           0       16.563636   -0.006007    1.367617
    127          1           0       18.283640   -0.428630   -0.188239
    128          1           0       17.754074    0.965421   -1.145765
    129          1           0       18.232289    2.367974    0.649513
    130          1           0       18.581965    1.145981    1.667316
    131          1           0       20.338899    0.314307    0.234923
    132          1           0       20.013208    3.330548   -0.918749
    133          1           0       21.366431    2.224343   -1.311884
    134          1           0       19.747794    1.753728   -1.717046
    135          1           0       21.188633    1.469970    2.338218
    136          1           0       22.070837    2.325322    1.017284
    137          1           0       20.763232    3.096854    1.422224
 ---------------------------------------------------------------------

 SCF Done:  E(RCAM-B3LYP) =  -2933.44998375     A.U. after   16 cycles

 Excitation energies and oscillator strengths:

 Excited State   1:      Singlet-A      1.9455 eV  637.28 nm  f=0.2378  <S**2>=0.000
     240 -> 243        0.21917
     241 -> 242        0.67149
 This state for optimization and/or second-order correction.
 Total Energy, E(TD-HF/TD-DFT) =  -2933.37848690
 Copying the excited state density for this state as the 1-particle RhoCI density.

 The electronic state is 1-A.
 Alpha  occ. eigenvalues --  -46.78436 -19.25043 -19.20414 -19.19707 -19.18868
 Alpha  occ. eigenvalues --  -19.15608 -14.38045 -14.34970 -14.34876 -14.33768
 Alpha  occ. eigenvalues --  -10.35326 -10.34877 -10.31985 -10.29055 -10.26098
 Alpha  occ. eigenvalues --  -10.25900 -10.24943 -10.24881 -10.24863 -10.24835
 Alpha  occ. eigenvalues --  -10.24375 -10.24334 -10.24231 -10.24118 -10.24022
 Alpha  occ. eigenvalues --  -10.23950 -10.23669 -10.23597 -10.23454 -10.23382
 Alpha  occ. eigenvalues --  -10.23223 -10.23175 -10.23155 -10.23128 -10.23097
 Alpha  occ. eigenvalues --  -10.23080 -10.22975 -10.22837 -10.22745 -10.22673
 Alpha  occ. eigenvalues --  -10.22567 -10.22451 -10.22378 -10.22275 -10.22238
 Alpha  occ. eigenvalues --  -10.22223 -10.22154 -10.21994 -10.21685 -10.21669
 Alpha  occ. eigenvalues --  -10.21614 -10.21479 -10.21352 -10.20901 -10.20881
 Alpha  occ. eigenvalues --  -10.20858 -10.20822 -10.20649 -10.20223 -10.19935
 Alpha  occ. eigenvalues --  -10.19823 -10.19759 -10.19659 -10.18596 -10.17475
 Alpha  occ. eigenvalues --   -3.07256  -1.82178  -1.81750  -1.81662  -1.16283
 Alpha  occ. eigenvalues --   -1.13614  -1.12594  -1.05118  -1.02778  -0.97966
 Alpha  occ. eigenvalues --   -0.97196  -0.96452  -0.95569  -0.86449  -0.86441
 Alpha  occ. eigenvalues --   -0.85852  -0.84837  -0.84402  -0.84158  -0.83938
 Alpha  occ. eigenvalues --   -0.83184  -0.82446  -0.81684  -0.81039  -0.80600
 Alpha  occ. eigenvalues --   -0.79707  -0.79097  -0.78295  -0.77590  -0.77058
 Alpha  occ. eigenvalues --   -0.76676  -0.76095  -0.75194  -0.74641  -0.73094
 Alpha  occ. eigenvalues --   -0.72026  -0.71486  -0.71008  -0.70853  -0.70662
 Alpha  occ. eigenvalues --   -0.70536  -0.69856  -0.68933  -0.67993  -0.67593
 Alpha  occ. eigenvalues --   -0.66744  -0.65899  -0.65396  -0.64138  -0.63050
 Alpha  occ. eigenvalues --   -0.62053  -0.61275  -0.60924  -0.60631  -0.60470
 Alpha  occ. eigenvalues --   -0.59906  -0.59482  -0.59103  -0.58579  -0.58287
 Alpha  occ. eigenvalues --   -0.56960  -0.56297  -0.55303  -0.54938  -0.54706
 Alpha  occ. eigenvalues --   -0.54120  -0.53828  -0.53598  -0.53127  -0.52972
 Alpha  occ. eigenvalues --   -0.52352  -0.52115  -0.51748  -0.51507  -0.51250
 Alpha  occ. eigenvalues --   -0.51078  -0.50619  -0.50451  -0.50173  -0.49564
 Alpha  occ. eigenvalues --   -0.49469  -0.48875  -0.48713  -0.48332  -0.47872
 Alpha  occ. eigenvalues --   -0.47621  -0.47349  -0.46940  -0.46865  -0.46753
 Alpha  occ. eigenvalues --   -0.46535  -0.46442  -0.46195  -0.45744  -0.45531
 Alpha  occ. eigenvalues --   -0.45333  -0.45271  -0.44934  -0.44874  -0.44547
 Alpha  occ. eigenvalues --   -0.44338  -0.44099  -0.43950  -0.43738  -0.43500
 Alpha  occ. eigenvalues --   -0.43331  -0.43109  -0.43006  -0.42635  -0.42400
 Alpha  occ. eigenvalues --   -0.42114  -0.41968  -0.41876  -0.41820  -0.41438
 Alpha  occ. eigenvalues --   -0.41194  -0.41017  -0.40867  -0.40750  -0.40191
 Alpha  occ. eigenvalues --   -0.40164  -0.39988  -0.39931  -0.39818  -0.39670
 Alpha  occ. eigenvalues --   -0.39313  -0.39158  -0.38965  -0.38815  -0.38710
 Alpha  occ. eigenvalues --   -0.38653  -0.38487  -0.37911  -0.37857  -0.37769
 Alpha  occ. eigenvalues --   -0.37621  -0.37399  -0.37292  -0.37100  -0.36835
 Alpha  occ. eigenvalues --   -0.36651  -0.36630  -0.36415  -0.36290  -0.36135
 Alpha  occ. eigenvalues --   -0.36035  -0.35825  -0.35787  -0.35158  -0.34955
 Alpha  occ. eigenvalues --   -0.34697  -0.34502  -0.34466  -0.33616  -0.33491
 Alpha  occ. eigenvalues --   -0.33394  -0.33068  -0.32732  -0.32731  -0.32515
 Alpha  occ. eigenvalues --   -0.32269  -0.31856  -0.31316  -0.31069  -0.30365
 Alpha  occ. eigenvalues --   -0.29832  -0.29442  -0.28981  -0.28223  -0.27243
 Alpha  occ. eigenvalues --   -0.26822  -0.25049  -0.24923  -0.23875  -0.21431
 Alpha  occ. eigenvalues --   -0.18779
 Alpha virt. eigenvalues --   -0.06204  -0.03540   0.00932   0.02662   0.02771
 Alpha virt. eigenvalues --    0.03584   0.03731   0.04905   0.05276   0.05542
 Alpha virt. eigenvalues --    0.07085   0.08486   0.09217   0.09600   0.09683

 Mulliken charges:
               1
     1  Mg   0.807069
     2  C    0.113629
     3  C   -0.164297
     4  C   -0.204892
     5  C   -0.171682
     6  N   -0.621003
     7  C    0.298426
     8  C   -0.160162
     9  C   -0.147658
    10  C    0.319931
    11  C   -0.315739
    12  C   -0.164915
    13  C   -0.262567
    14  C    0.587598
    15  O   -0.408044
    16  O   -0.510440
    17  N   -0.725852
    18  C    0.278989
    19  C    0.012951
    20  C   -0.021016
    21  C    0.379572
    22  C   -0.370592
    23  C   -0.095506
    24  C   -0.243951
    25  N   -0.684309
    26  C    0.317990
    27  C    0.029202
    28  C    0.120966
    29  C    0.293743
    30  C   -0.389418
    31  C   -0.298342
    32  C   -0.330954
    33  N   -0.739392
    34  C    0.294060
    35  C   -0.065017
    36  C    0.061710
    37  C    0.254585
    38  C   -0.346319
    39  C    0.350648
    40  O   -0.356054
    41  C   -0.379142
    42  C    0.642603
    43  O   -0.521002
    44  O   -0.408036
    45  C   -0.095770
    46  C    0.060288
    47  C   -0.150834
    48  C    0.147030
    49  C   -0.363745
    50  C   -0.224407
    51  C   -0.182435
    52  C   -0.148430
    53  C   -0.019249
    54  C   -0.277202
    55  C   -0.166923
    56  C   -0.179272
    57  C   -0.187672
    58  C   -0.028851
    59  C   -0.294562
    60  C   -0.169805
    61  C   -0.214505
    62  C   -0.127985
    63  C   -0.057687
    64  C   -0.311962
    65  C   -0.299097
    66  H    0.078278
    67  H    0.082353
    68  H    0.064113
    69  H    0.138413
    70  H    0.103765
    71  H    0.112001
    72  H    0.081421
    73  H    0.138190
    74  H    0.121765
    75  H    0.118615
    76  H    0.142516
    77  H    0.139118
    78  H    0.128049
    79  H    0.130722
    80  H    0.083393
    81  H    0.095941
    82  H    0.112619
    83  H    0.076437
    84  H    0.107726
    85  H    0.108531
    86  H    0.110520
    87  H    0.108802
    88  H    0.111421
    89  H    0.105596
    90  H    0.103994
    91  H    0.120643
    92  H    0.111368
    93  H    0.141656
    94  H    0.126775
    95  H    0.135073
    96  H    0.119995
    97  H    0.162956
    98  H    0.123954
    99  H    0.124128
   100  H    0.100149
   101  H    0.067651
   102  H    0.088289
   103  H    0.114758
   104  H    0.121360
   105  H    0.081863
   106  H    0.104568
   107  H    0.092361
   108  H    0.094306
   109  H    0.087461
   110  H    0.071284
   111  H    0.080143
   112  H    0.091419
   113  H    0.101127
   114  H    0.040439
   115  H    0.078483
   116  H    0.067265
   117  H    0.086660
   118  H    0.082077
   119  H    0.077408
   120  H    0.095984
   121  H    0.093848
   122  H    0.091615
   123  H    0.114319
   124  H    0.063481
   125  H    0.092132
   126  H    0.096554
   127  H    0.073265
   128  H    0.085227
   129  H    0.093805
   130  H    0.090883
   131  H    0.073635
   132  H    0.088202
   133  H    0.102809
   134  H    0.108455
   135  H    0.071168
   136  H    0.090603
   137  H    0.109799
 Sum of Mulliken charges =  -0.00000

 Dipole moment (field-independent basis, Debye):
    X=              2.8414    Y=              0.6439    Z=              0.0398  Tot=              2.9138
 Quadrupole moment (field-independent basis, Debye-Ang):
   XX=           -365.8307   YY=           -387.3092   ZZ=           -396.1532
   XY=              4.4524   XZ=              7.5862   YZ=             -6.1674

 Normal termination of Gaussian 16 at Sun Sep 15 10:25:41 2019.
