 Gaussian 09, Revision D.01,
 Gaussian 09:  ES64L-G09RevD.01 24-Apr-2013

 -------------------------------------
 # td=(NStates=1) CAM-B3LYP/6-31G(d,p)
 -------------------------------------

 --
 TD
 --
 Symbolic Z-matrix:
 Charge =  0 Multiplicity = 1

                         Standard orientation:
 ---------------------------------------------------------------------
 Center     Atomic      Atomic             Coordinates (Angstroms)
 Number     Number       Type             X           Y           Z
 ---------------------------------------------------------------------
      1         12           0       -6.974228    0.664412   -0.064880
      2          6           0       -4.777075   -1.886382    0.415933
      3          6           0       -4.716600    2.781790    1.214659
      4          6           0       -9.315743    3.108621   -0.416481
      5          6           0       -9.499316   -1.735006   -0.838351
      6          7           0       -5.084840    0.449458    0.821987
      7          6           0       -4.322468   -0.692397    0.829832
      8          6           0       -2.868221   -0.328113    1.307442
      9          6           0       -2.995075    1.164726    1.730022
     10          6           0       -4.355454    1.493691    1.163388
     11          6           0       -2.913935    1.193517    3.192881
     12          6           0       -1.839272   -0.541994    0.214384
     13          6           0       -0.404226   -0.503308    0.558807
     14          6           0        0.584790   -0.658198   -0.556600
     15          8           0        0.345707   -0.985177   -1.712182
     16          8           0        1.816298   -0.412013   -0.066539
     17          7           0       -7.067497    2.570316    0.272257
     18          6           0       -6.029313    3.303755    0.786917
     19          6           0       -6.463967    4.818924    0.818245
     20          6           0       -7.665853    4.844549    0.355708
     21          6           0       -8.101356    3.412457   -0.003865
     22          6           0       -5.382970    5.691958    1.278743
     23          6           0       -8.533785    5.998111    0.075807
     24          6           0       -8.466236    7.190543    0.839190
     25          7           0       -9.107161    0.648332   -0.595867
     26          6           0       -9.859903    1.789727   -0.698161
     27          6           0      -11.211217    1.413711   -1.104372
     28          6           0      -11.237286    0.077776   -1.200914
     29          6           0       -9.935252   -0.493483   -0.896195
     30          6           0      -12.248771    2.443601   -1.323634
     31          6           0      -12.406279   -0.737670   -1.752071
     32          6           0      -12.206317   -1.151073   -3.167200
     33          7           0       -7.196560   -1.375489   -0.409547
     34          6           0       -8.189596   -2.183356   -0.714698
     35          6           0       -7.756951   -3.584034   -0.574093
     36          6           0       -6.468453   -3.496112   -0.121272
     37          6           0       -6.151503   -2.181659   -0.051389
     38          6           0       -8.634301   -4.861221   -0.773956
     39          6           0       -5.303865   -4.346697    0.154210
     40          8           0       -5.164353   -5.532073    0.178289
     41          6           0       -4.093221   -3.289655    0.481032
     42          6           0       -3.515471   -3.667083    1.851631
     43          8           0       -3.783054   -3.185927    3.002642
     44          8           0       -2.681666   -4.704771    1.854064
     45          6           0       -2.125456   -5.121944    3.068693
     46          6           0        2.750172   -0.714104   -1.093488
     47          6           0        4.181844   -0.388054   -0.534278
     48          6           0        5.085308    0.519469   -0.999654
     49          6           0        4.851059    1.283995   -2.329877
     50          6           0        6.384027    0.556409   -0.334346
     51          6           0        7.528464   -0.112371   -1.024870
     52          6           0        8.781445   -0.186775   -0.193533
     53          6           0       10.046501   -0.599897   -0.869520
     54          6           0       10.088226   -2.082617   -1.233179
     55          6           0       11.285544   -0.296908    0.019982
     56          6           0       12.702253   -0.523157   -0.655275
     57          6           0       13.873865   -0.135661    0.205793
     58          6           0       15.336505   -0.267446   -0.465711
     59          6           0       15.588965   -1.678936   -0.889185
     60          6           0       16.372553    0.354816    0.416751
     61          6           0       17.798379    0.438057   -0.087565
     62          6           0       18.747375    1.304879    0.735703
     63          6           0       20.117440    1.351165    0.180783
     64          6           0       20.199673    2.211460   -1.081810
     65          6           0       21.084288    1.961051    1.162881
     66          1           0       -3.891379    3.550556    1.552660
     67          1           0      -10.029914    3.894679   -0.714462
     68          1           0      -10.236109   -2.503006   -1.007694
     69          1           0       -2.742918   -0.991762    2.217976
     70          1           0       -2.191179    1.667844    1.322394
     71          1           0       -1.916102    0.931140    3.476019
     72          1           0       -3.166396    2.281693    3.600141
     73          1           0       -3.529433    0.565174    3.685108
     74          1           0       -2.162335   -1.473904   -0.173846
     75          1           0       -2.147066   -0.025782   -0.695900
     76          1           0       -0.155188    0.440155    1.318669
     77          1           0       -0.155067   -1.196302    1.324180
     78          1           0       -5.503022    6.758453    0.915210
     79          1           0       -5.378742    6.001392    2.295653
     80          1           0       -4.382651    5.387876    1.054244
     81          1           0       -9.323989    5.946727   -0.850812
     82          1           0       -9.202700    7.924727    0.465774
     83          1           0       -7.994725    7.172689    1.712856
     84          1           0      -11.983740    3.298676   -2.188046
     85          1           0      -13.225371    2.016394   -1.665736
     86          1           0      -12.377976    3.097255   -0.576692
     87          1           0      -12.560769   -1.735070   -1.065368
     88          1           0      -13.464813   -0.468577   -1.595044
     89          1           0      -12.912901   -2.018312   -3.516676
     90          1           0      -12.494061   -0.234351   -3.886404
     91          1           0      -11.398150   -1.605563   -3.560517
     92          1           0       -9.137315   -4.837711   -1.681897
     93          1           0       -8.111338   -5.598608   -0.436280
     94          1           0       -9.473763   -4.744743    0.024694
     95          1           0       -3.215063   -3.490486   -0.116031
     96          1           0       -1.677656   -4.463015    3.574670
     97          1           0       -2.860739   -5.538502    3.740001
     98          1           0       -1.453190   -5.795011    2.716645
     99          1           0        2.856211   -1.774105   -1.379966
    100          1           0        2.496082   -0.061082   -1.885412
    101          1           0        4.405303   -0.859360    0.521304
    102          1           0        3.811944    1.244258   -2.688763
    103          1           0        5.132216    2.398083   -2.014370
    104          1           0        5.508574    0.950234   -3.143147
    105          1           0        6.563114    1.725948   -0.163823
    106          1           0        6.193726    0.384600    0.898756
    107          1           0        7.187428   -1.139574   -1.409024
    108          1           0        7.650296    0.283102   -2.155568
    109          1           0        9.249552    0.725705    0.214647
    110          1           0        8.537684   -0.963741    0.556174
    111          1           0       10.225755   -0.181167   -1.950154
    112          1           0        9.429900   -2.113074   -2.022441
    113          1           0       10.962128   -2.329762   -1.555077
    114          1           0        9.653856   -2.627891   -0.293932
    115          1           0       11.379687    0.900286    0.347732
    116          1           0       11.343198   -0.804263    0.941860
    117          1           0       12.603811   -1.663933   -1.066621
    118          1           0       12.706255    0.184910   -1.547937
    119          1           0       13.798125    0.926093    0.455418
    120          1           0       14.048765   -0.587694    1.147262
    121          1           0       15.280370    0.332124   -1.296248
    122          1           0       15.705155   -2.474566   -0.128049
    123          1           0       14.777048   -2.458119   -1.253123
    124          1           0       16.408852   -1.759601   -1.833220
    125          1           0       16.060130    1.159699    0.881340
    126          1           0       16.371310   -0.306375    1.039339
    127          1           0       18.087699   -0.623339   -0.427214
    128          1           0       17.702527    1.073888   -0.932603
    129          1           0       18.335947    2.345681    0.747988
    130          1           0       18.635223    0.935015    1.707555
    131          1           0       20.577955    0.360603   -0.178816
    132          1           0       20.126490    3.210591   -0.863962
    133          1           0       21.320254    2.125216   -1.434249
    134          1           0       19.500658    1.692431   -1.721068
    135          1           0       21.226122    1.524082    2.124606
    136          1           0       22.089366    2.156472    0.641494
    137          1           0       20.762921    2.831627    1.517152
 ---------------------------------------------------------------------

 SCF Done:  E(RCAM-B3LYP) =  -2932.59945057     A.U. after   17 cycles

 Excitation energies and oscillator strengths:

 Excited State   1:      Singlet-A      2.3345 eV  531.09 nm  f=0.2666  <S**2>=0.000
     240 -> 242       -0.19144
     240 -> 243        0.18550
     241 -> 242        0.62373
     241 -> 243        0.17419
 This state for optimization and/or second-order correction.
 Total Energy, E(TD-HF/TD-KS) =  -2932.51365871
 Copying the excited state density for this state as the 1-particle RhoCI density.

 The electronic state is 1-A.
 Alpha  occ. eigenvalues --  -46.84946 -19.27055 -19.25687 -19.21574 -19.20869
 Alpha  occ. eigenvalues --  -19.18902 -14.41171 -14.41105 -14.39440 -14.38887
 Alpha  occ. eigenvalues --  -10.39778 -10.38717 -10.35494 -10.32950 -10.31491
 Alpha  occ. eigenvalues --  -10.30468 -10.30450 -10.30015 -10.29782 -10.29732
 Alpha  occ. eigenvalues --  -10.28918 -10.28533 -10.28347 -10.28084 -10.28080
 Alpha  occ. eigenvalues --  -10.27984 -10.27845 -10.27839 -10.27788 -10.27539
 Alpha  occ. eigenvalues --  -10.27343 -10.27262 -10.27156 -10.27107 -10.27077
 Alpha  occ. eigenvalues --  -10.27040 -10.27035 -10.26951 -10.26865 -10.26816
 Alpha  occ. eigenvalues --  -10.26609 -10.26591 -10.26586 -10.26526 -10.26524
 Alpha  occ. eigenvalues --  -10.26437 -10.26400 -10.26122 -10.25947 -10.25895
 Alpha  occ. eigenvalues --  -10.25647 -10.25601 -10.25389 -10.25351 -10.25070
 Alpha  occ. eigenvalues --  -10.25045 -10.24746 -10.24683 -10.24376 -10.24300
 Alpha  occ. eigenvalues --  -10.23899 -10.23798 -10.22876 -10.22719 -10.20989
 Alpha  occ. eigenvalues --   -3.13966  -1.88662  -1.88217  -1.88139  -1.19518
 Alpha  occ. eigenvalues --   -1.18050  -1.12413  -1.09604  -1.05235  -1.04866
 Alpha  occ. eigenvalues --   -1.04430  -1.04021  -1.01294  -0.91925  -0.91811
 Alpha  occ. eigenvalues --   -0.91448  -0.91017  -0.90536  -0.89886  -0.89370
 Alpha  occ. eigenvalues --   -0.89185  -0.88540  -0.87921  -0.86947  -0.86288
 Alpha  occ. eigenvalues --   -0.85275  -0.84839  -0.84022  -0.83533  -0.83367
 Alpha  occ. eigenvalues --   -0.82496  -0.81705  -0.80778  -0.80307  -0.79154
 Alpha  occ. eigenvalues --   -0.78038  -0.77798  -0.77105  -0.76766  -0.76417
 Alpha  occ. eigenvalues --   -0.75970  -0.75226  -0.75028  -0.73477  -0.72494
 Alpha  occ. eigenvalues --   -0.71804  -0.70703  -0.69648  -0.69033  -0.68690
 Alpha  occ. eigenvalues --   -0.67982  -0.67139  -0.65728  -0.65332  -0.65141
 Alpha  occ. eigenvalues --   -0.64593  -0.64044  -0.63783  -0.62878  -0.62696
 Alpha  occ. eigenvalues --   -0.62069  -0.61360  -0.60856  -0.59923  -0.59469
 Alpha  occ. eigenvalues --   -0.58797  -0.58465  -0.57670  -0.57380  -0.56726
 Alpha  occ. eigenvalues --   -0.56334  -0.55823  -0.55797  -0.55739  -0.55314
 Alpha  occ. eigenvalues --   -0.54620  -0.54223  -0.53943  -0.53603  -0.53399
 Alpha  occ. eigenvalues --   -0.53195  -0.52999  -0.52980  -0.52470  -0.52363
 Alpha  occ. eigenvalues --   -0.51848  -0.51536  -0.51420  -0.51075  -0.51017
 Alpha  occ. eigenvalues --   -0.50970  -0.50783  -0.50045  -0.49997  -0.49485
 Alpha  occ. eigenvalues --   -0.49334  -0.49291  -0.49094  -0.48917  -0.48615
 Alpha  occ. eigenvalues --   -0.48444  -0.48112  -0.48041  -0.47991  -0.47843
 Alpha  occ. eigenvalues --   -0.47347  -0.47088  -0.47040  -0.46810  -0.46447
 Alpha  occ. eigenvalues --   -0.46083  -0.45794  -0.45605  -0.45579  -0.45237
 Alpha  occ. eigenvalues --   -0.45088  -0.45035  -0.44763  -0.44538  -0.44497
 Alpha  occ. eigenvalues --   -0.44459  -0.44297  -0.44044  -0.43862  -0.43589
 Alpha  occ. eigenvalues --   -0.43283  -0.42945  -0.42824  -0.42764  -0.42343
 Alpha  occ. eigenvalues --   -0.42313  -0.41940  -0.41886  -0.41450  -0.41395
 Alpha  occ. eigenvalues --   -0.41202  -0.41154  -0.40779  -0.40572  -0.40473
 Alpha  occ. eigenvalues --   -0.39694  -0.39589  -0.39371  -0.39093  -0.38935
 Alpha  occ. eigenvalues --   -0.38806  -0.38185  -0.37728  -0.37621  -0.37416
 Alpha  occ. eigenvalues --   -0.37314  -0.37194  -0.37109  -0.36958  -0.36719
 Alpha  occ. eigenvalues --   -0.36327  -0.36199  -0.36036  -0.35062  -0.34845
 Alpha  occ. eigenvalues --   -0.34672  -0.34464  -0.34332  -0.34197  -0.33309
 Alpha  occ. eigenvalues --   -0.33080  -0.32661  -0.31944  -0.31454  -0.30058
 Alpha  occ. eigenvalues --   -0.29531  -0.29273  -0.29201  -0.28274  -0.24028
 Alpha  occ. eigenvalues --   -0.21320
 Alpha virt. eigenvalues --   -0.05604  -0.02585   0.02127   0.03083   0.04785
 Alpha virt. eigenvalues --    0.05345   0.06257   0.06443   0.07141   0.07581
 Alpha virt. eigenvalues --    0.08456   0.10850   0.11223   0.11307   0.11945

 Mulliken charges:
               1
     1  Mg   0.841000
     2  C    0.047028
     3  C   -0.228677
     4  C   -0.178330
     5  C   -0.153576
     6  N   -0.669265
     7  C    0.289744
     8  C   -0.191141
     9  C   -0.125516
    10  C    0.400015
    11  C   -0.294534
    12  C   -0.170519
    13  C   -0.271042
    14  C    0.633399
    15  O   -0.485321
    16  O   -0.460644
    17  N   -0.745713
    18  C    0.280862
    19  C    0.084315
    20  C    0.006632
    21  C    0.359844
    22  C   -0.402531
    23  C   -0.112651
    24  C   -0.225823
    25  N   -0.680469
    26  C    0.278123
    27  C    0.066935
    28  C    0.022882
    29  C    0.294266
    30  C   -0.375068
    31  C   -0.247047
    32  C   -0.289331
    33  N   -0.687852
    34  C    0.251215
    35  C   -0.057369
    36  C    0.038597
    37  C    0.250377
    38  C   -0.336000
    39  C    0.381415
    40  O   -0.436504
    41  C   -0.323241
    42  C    0.593894
    43  O   -0.526273
    44  O   -0.432786
    45  C   -0.056683
    46  C    0.020451
    47  C   -0.148779
    48  C    0.107534
    49  C   -0.348649
    50  C   -0.203931
    51  C   -0.173796
    52  C   -0.145471
    53  C   -0.084904
    54  C   -0.283499
    55  C   -0.174454
    56  C   -0.170413
    57  C   -0.192021
    58  C   -0.067178
    59  C   -0.312281
    60  C   -0.151497
    61  C   -0.198765
    62  C   -0.169976
    63  C   -0.057336
    64  C   -0.298621
    65  C   -0.308487
    66  H    0.088527
    67  H    0.086053
    68  H    0.092711
    69  H    0.128470
    70  H    0.108381
    71  H    0.107805
    72  H    0.076038
    73  H    0.141306
    74  H    0.116624
    75  H    0.117599
    76  H    0.107472
    77  H    0.152810
    78  H    0.112064
    79  H    0.138135
    80  H    0.132315
    81  H    0.099666
    82  H    0.109815
    83  H    0.110796
    84  H    0.078331
    85  H    0.112783
    86  H    0.138027
    87  H    0.073879
    88  H    0.117166
    89  H    0.079636
    90  H    0.087679
    91  H    0.128367
    92  H    0.131189
    93  H    0.143624
    94  H    0.105332
    95  H    0.159184
    96  H    0.125735
    97  H    0.125711
    98  H    0.117898
    99  H    0.130837
   100  H    0.124539
   101  H    0.079552
   102  H    0.116758
   103  H    0.098620
   104  H    0.124304
   105  H    0.076115
   106  H    0.080858
   107  H    0.100217
   108  H    0.079302
   109  H    0.103812
   110  H    0.099447
   111  H    0.071593
   112  H    0.104798
   113  H    0.105907
   114  H    0.079686
   115  H    0.048438
   116  H    0.104150
   117  H    0.076420
   118  H    0.091565
   119  H    0.092317
   120  H    0.093593
   121  H    0.090967
   122  H    0.098066
   123  H    0.087429
   124  H    0.078290
   125  H    0.084762
   126  H    0.101980
   127  H    0.092145
   128  H    0.094745
   129  H    0.086967
   130  H    0.095953
   131  H    0.081155
   132  H    0.110348
   133  H    0.079818
   134  H    0.108896
   135  H    0.094265
   136  H    0.079860
   137  H    0.105841
 Sum of Mulliken charges =   0.00000

 Dipole moment (field-independent basis, Debye):
    X=              0.8059    Y=              5.8566    Z=              0.2972  Tot=              5.9193
 Quadrupole moment (field-independent basis, Debye-Ang):
   XX=           -361.1909   YY=           -388.8094   ZZ=           -398.4574
   XY=            -32.6450   XZ=             17.8474   YZ=              2.8561

 Normal termination of Gaussian 09 at Wed Jul  3 05:06:20 2019.
