 Gaussian 16, Revision A.03,
 Gaussian 16:  ES64L-G16RevA.03 25-Dec-2016

 ----------------------------------------------------------------------
 # td=(NStates=1) iop(3/107=0140000000,3/108=0140000000) CAM-B3LYP/6-31
 G(d,p)
 ----------------------------------------------------------------------

 --
 TD
 --
 Symbolic Z-matrix:
 Charge =  0 Multiplicity = 1

                         Standard orientation:
 ---------------------------------------------------------------------
 Center     Atomic      Atomic             Coordinates (Angstroms)
 Number     Number       Type             X           Y           Z
 ---------------------------------------------------------------------
      1         12           0       -7.099111    0.650132   -0.036812
      2          6           0       -4.717955   -1.961958    0.405845
      3          6           0       -4.755135    2.831144    1.167160
      4          6           0       -9.399290    3.117932   -0.368145
      5          6           0       -9.538849   -1.720382   -0.899270
      6          7           0       -5.098300    0.463871    0.641306
      7          6           0       -4.226751   -0.672893    0.681634
      8          6           0       -2.927057   -0.402428    1.212551
      9          6           0       -3.042134    1.072070    1.712360
     10          6           0       -4.377024    1.508915    1.139139
     11          6           0       -3.075349    1.225041    3.235469
     12          6           0       -1.876620   -0.560345    0.089422
     13          6           0       -0.421855   -0.475899    0.502951
     14          6           0        0.551571   -0.707617   -0.632340
     15          8           0        0.289444   -1.068348   -1.754658
     16          8           0        1.853189   -0.606623   -0.147131
     17          7           0       -7.052967    2.599992    0.283391
     18          6           0       -6.058939    3.419330    0.846288
     19          6           0       -6.428830    4.817154    0.940185
     20          6           0       -7.675184    4.873906    0.321290
     21          6           0       -8.072089    3.452173    0.141832
     22          6           0       -5.518243    5.889036    1.312782
     23          6           0       -8.543099    5.943489    0.077039
     24          6           0       -8.392845    7.263861    0.551016
     25          7           0       -9.120046    0.698402   -0.454932
     26          6           0       -9.902363    1.838889   -0.656391
     27          6           0      -11.140399    1.466348   -1.142769
     28          6           0      -11.231356    0.113278   -1.273059
     29          6           0       -9.930784   -0.410050   -0.791474
     30          6           0      -12.346269    2.512613   -1.284983
     31          6           0      -12.346593   -0.776374   -1.725291
     32          6           0      -12.331994   -1.042119   -3.195456
     33          7           0       -7.150138   -1.321482   -0.160882
     34          6           0       -8.274150   -2.208587   -0.490604
     35          6           0       -7.777339   -3.548203   -0.445983
     36          6           0       -6.332348   -3.568287   -0.236549
     37          6           0       -6.068024   -2.194134    0.006511
     38          6           0       -8.545523   -4.842365   -0.850895
     39          6           0       -5.282612   -4.380500    0.059468
     40          8           0       -5.032649   -5.658481    0.068656
     41          6           0       -4.096524   -3.339767    0.565082
     42          6           0       -3.560816   -3.687260    1.908788
     43          8           0       -3.843642   -3.104596    2.963144
     44          8           0       -2.682868   -4.751913    1.787324
     45          6           0       -2.221183   -5.202188    3.016378
     46          6           0        2.870386   -0.934675   -1.125665
     47          6           0        4.180514   -0.548907   -0.440361
     48          6           0        5.129870    0.338683   -0.921236
     49          6           0        5.004782    1.183881   -2.196631
     50          6           0        6.385893    0.361635   -0.240060
     51          6           0        7.545425   -0.253415   -1.060546
     52          6           0        8.866182   -0.138246   -0.183041
     53          6           0       10.145893   -0.511878   -0.877549
     54          6           0       10.030172   -2.028876   -1.035241
     55          6           0       11.447583   -0.154639    0.070006
     56          6           0       12.718360   -0.450741   -0.612459
     57          6           0       13.905626   -0.066094    0.202537
     58          6           0       15.367608   -0.208234   -0.459451
     59          6           0       15.659337   -1.646834   -0.579544
     60          6           0       16.342094    0.370586    0.526305
     61          6           0       17.731051    0.505585   -0.165153
     62          6           0       18.727873    1.430932    0.704227
     63          6           0       20.087468    1.421049    0.089300
     64          6           0       20.149872    2.058415   -1.279687
     65          6           0       21.170416    2.124786    0.988768
     66          1           0       -3.973005    3.534306    1.563001
     67          1           0       -9.975417    3.938736   -0.385891
     68          1           0      -10.338376   -2.457016   -1.262485
     69          1           0       -2.676408   -1.082993    2.189515
     70          1           0       -2.337106    1.641583    1.316171
     71          1           0       -2.184113    1.020472    3.666368
     72          1           0       -2.913577    2.274926    3.335782
     73          1           0       -3.856642    0.708765    3.723917
     74          1           0       -2.274492   -1.397459   -0.246934
     75          1           0       -2.202949    0.150015   -0.789022
     76          1           0       -0.410823    0.533597    1.008236
     77          1           0       -0.165665   -1.303155    1.419999
     78          1           0       -5.923137    6.676875    0.593185
     79          1           0       -5.693304    6.273964    2.424725
     80          1           0       -4.565160    5.636949    1.014994
     81          1           0       -9.479373    5.875403   -0.643143
     82          1           0       -9.120031    8.102359    0.254851
     83          1           0       -7.567984    7.631912    1.190623
     84          1           0      -12.219261    3.612045   -1.899816
     85          1           0      -13.156876    2.068820   -2.101548
     86          1           0      -13.012615    2.661638   -0.376481
     87          1           0      -12.281706   -1.691165   -1.126417
     88          1           0      -13.364597   -0.203132   -1.494733
     89          1           0      -13.049395   -1.991943   -3.476071
     90          1           0      -12.538097   -0.282746   -4.016797
     91          1           0      -11.241268   -1.557323   -3.402175
     92          1           0       -8.612747   -5.148568   -2.026455
     93          1           0       -8.097286   -5.896090   -0.491695
     94          1           0       -9.781103   -4.876399   -0.639103
     95          1           0       -3.380856   -3.658296   -0.178095
     96          1           0       -1.646095   -4.384375    3.674684
     97          1           0       -2.974660   -5.830613    3.595761
     98          1           0       -1.513316   -5.869836    2.733335
     99          1           0        2.945344   -1.887535   -1.548529
    100          1           0        2.590900   -0.351805   -2.175608
    101          1           0        4.465246   -1.024045    0.567061
    102          1           0        3.982846    0.984647   -2.593636
    103          1           0        5.346250    2.341500   -1.974548
    104          1           0        5.594349    0.728870   -2.990823
    105          1           0        6.653123    1.501644   -0.086764
    106          1           0        6.233530    0.142700    0.633293
    107          1           0        7.258301   -1.376927   -1.301519
    108          1           0        7.698074    0.408192   -2.004918
    109          1           0        9.042382    0.942201    0.145720
    110          1           0        8.421986   -0.510503    0.845847
    111          1           0       10.099047    0.199681   -1.772950
    112          1           0        9.144887   -2.284302   -1.630442
    113          1           0       10.889444   -2.609188   -1.709957
    114          1           0       10.041123   -2.292052    0.145568
    115          1           0       11.115792    0.801246    0.364764
    116          1           0       11.331657   -0.674575    0.880249
    117          1           0       12.940119   -1.548723   -0.880330
    118          1           0       12.924913    0.091596   -1.634857
    119          1           0       13.829353    0.895827    0.460319
    120          1           0       14.050782   -0.700000    1.168432
    121          1           0       15.454855    0.140852   -1.357899
    122          1           0       15.716303   -2.346679    0.253460
    123          1           0       14.902875   -2.268595   -1.183547
    124          1           0       16.731301   -1.855979   -0.814674
    125          1           0       16.147968    1.411711    0.821246
    126          1           0       16.268614   -0.209907    1.389358
    127          1           0       18.220702   -0.359540   -0.161527
    128          1           0       17.661032    0.887934   -1.134773
    129          1           0       18.373794    2.446984    0.811440
    130          1           0       18.725138    1.231916    1.894733
    131          1           0       20.571020    0.340391   -0.242170
    132          1           0       19.783525    3.107236   -1.236924
    133          1           0       21.094689    2.100999   -1.604425
    134          1           0       19.573589    1.499449   -1.972251
    135          1           0       21.588775    1.604579    1.950487
    136          1           0       22.104645    2.308445    0.417825
    137          1           0       20.986159    3.122086    1.228868
 ---------------------------------------------------------------------

 SCF Done:  E(RCAM-B3LYP) =  -2933.40538071     A.U. after   16 cycles

 Excitation energies and oscillator strengths:

 Excited State   1:      Singlet-A      1.9183 eV  646.33 nm  f=0.2788  <S**2>=0.000
     240 -> 243        0.21392
     241 -> 242        0.66715
 This state for optimization and/or second-order correction.
 Total Energy, E(TD-HF/TD-DFT) =  -2933.33488494
 Copying the excited state density for this state as the 1-particle RhoCI density.

 The electronic state is 1-A.
 Alpha  occ. eigenvalues --  -46.79323 -19.21948 -19.21853 -19.17800 -19.16475
 Alpha  occ. eigenvalues --  -19.14961 -14.38001 -14.36380 -14.35942 -14.35485
 Alpha  occ. eigenvalues --  -10.35191 -10.34235 -10.30044 -10.28079 -10.27020
 Alpha  occ. eigenvalues --  -10.26416 -10.26371 -10.26305 -10.25928 -10.25914
 Alpha  occ. eigenvalues --  -10.25692 -10.25496 -10.25463 -10.25259 -10.25198
 Alpha  occ. eigenvalues --  -10.25194 -10.25078 -10.24863 -10.24590 -10.24137
 Alpha  occ. eigenvalues --  -10.23877 -10.23738 -10.23719 -10.23659 -10.23359
 Alpha  occ. eigenvalues --  -10.23324 -10.23164 -10.23107 -10.23016 -10.22903
 Alpha  occ. eigenvalues --  -10.22833 -10.22730 -10.22705 -10.22531 -10.22480
 Alpha  occ. eigenvalues --  -10.22459 -10.22448 -10.22280 -10.22192 -10.22032
 Alpha  occ. eigenvalues --  -10.22030 -10.21953 -10.21441 -10.21411 -10.21401
 Alpha  occ. eigenvalues --  -10.20101 -10.19952 -10.19731 -10.19718 -10.19623
 Alpha  occ. eigenvalues --  -10.19597 -10.19579 -10.19568 -10.19508 -10.18610
 Alpha  occ. eigenvalues --   -3.08139  -1.83055  -1.82602  -1.82581  -1.12329
 Alpha  occ. eigenvalues --   -1.12123  -1.04656  -1.03523  -1.00548  -0.99586
 Alpha  occ. eigenvalues --   -0.98160  -0.97354  -0.95825  -0.87214  -0.86427
 Alpha  occ. eigenvalues --   -0.85974  -0.85782  -0.85462  -0.84399  -0.84240
 Alpha  occ. eigenvalues --   -0.83418  -0.83398  -0.82786  -0.81656  -0.80912
 Alpha  occ. eigenvalues --   -0.80203  -0.79562  -0.78584  -0.78050  -0.77627
 Alpha  occ. eigenvalues --   -0.76600  -0.76393  -0.75932  -0.74608  -0.73920
 Alpha  occ. eigenvalues --   -0.73255  -0.71595  -0.71397  -0.71173  -0.70969
 Alpha  occ. eigenvalues --   -0.70392  -0.70058  -0.69732  -0.68710  -0.67581
 Alpha  occ. eigenvalues --   -0.67362  -0.66284  -0.65415  -0.64975  -0.64283
 Alpha  occ. eigenvalues --   -0.63550  -0.63025  -0.61909  -0.61457  -0.60765
 Alpha  occ. eigenvalues --   -0.60298  -0.59477  -0.59235  -0.58249  -0.58014
 Alpha  occ. eigenvalues --   -0.57494  -0.56771  -0.56510  -0.55539  -0.54947
 Alpha  occ. eigenvalues --   -0.54654  -0.54197  -0.53391  -0.52805  -0.52647
 Alpha  occ. eigenvalues --   -0.51922  -0.51516  -0.51291  -0.51139  -0.50933
 Alpha  occ. eigenvalues --   -0.50165  -0.49945  -0.49847  -0.49457  -0.49227
 Alpha  occ. eigenvalues --   -0.48824  -0.48672  -0.48435  -0.48065  -0.47904
 Alpha  occ. eigenvalues --   -0.47719  -0.47661  -0.47398  -0.46842  -0.46827
 Alpha  occ. eigenvalues --   -0.46699  -0.46392  -0.46176  -0.45989  -0.45722
 Alpha  occ. eigenvalues --   -0.45332  -0.45047  -0.44931  -0.44658  -0.44610
 Alpha  occ. eigenvalues --   -0.44459  -0.44353  -0.44290  -0.43808  -0.43621
 Alpha  occ. eigenvalues --   -0.43362  -0.43091  -0.43021  -0.42729  -0.42433
 Alpha  occ. eigenvalues --   -0.42170  -0.42044  -0.41820  -0.41392  -0.41263
 Alpha  occ. eigenvalues --   -0.40984  -0.40885  -0.40557  -0.40512  -0.40356
 Alpha  occ. eigenvalues --   -0.40140  -0.40097  -0.39796  -0.39647  -0.39484
 Alpha  occ. eigenvalues --   -0.39367  -0.39247  -0.39181  -0.38599  -0.38456
 Alpha  occ. eigenvalues --   -0.38392  -0.38313  -0.38086  -0.37887  -0.37660
 Alpha  occ. eigenvalues --   -0.37521  -0.37375  -0.37289  -0.37093  -0.36906
 Alpha  occ. eigenvalues --   -0.36891  -0.36801  -0.36784  -0.36642  -0.35977
 Alpha  occ. eigenvalues --   -0.35848  -0.35615  -0.35379  -0.35022  -0.34883
 Alpha  occ. eigenvalues --   -0.34741  -0.34685  -0.34141  -0.33791  -0.33712
 Alpha  occ. eigenvalues --   -0.33574  -0.33156  -0.32713  -0.32494  -0.32385
 Alpha  occ. eigenvalues --   -0.32142  -0.32085  -0.31777  -0.31355  -0.30953
 Alpha  occ. eigenvalues --   -0.29905  -0.29729  -0.29462  -0.28714  -0.26745
 Alpha  occ. eigenvalues --   -0.26250  -0.26063  -0.25791  -0.25615  -0.21912
 Alpha  occ. eigenvalues --   -0.20830
 Alpha virt. eigenvalues --   -0.08523  -0.04663  -0.01613   0.00848   0.02617
 Alpha virt. eigenvalues --    0.02934   0.03994   0.04090   0.04781   0.04997
 Alpha virt. eigenvalues --    0.06667   0.08120   0.08994   0.09303   0.09873

 Mulliken charges:
               1
     1  Mg   0.815776
     2  C    0.087524
     3  C   -0.217182
     4  C   -0.155906
     5  C   -0.164578
     6  N   -0.629310
     7  C    0.272346
     8  C   -0.181127
     9  C   -0.139555
    10  C    0.366487
    11  C   -0.300885
    12  C   -0.150436
    13  C   -0.260511
    14  C    0.627045
    15  O   -0.452073
    16  O   -0.473644
    17  N   -0.683564
    18  C    0.286770
    19  C    0.036345
    20  C    0.062526
    21  C    0.297800
    22  C   -0.379661
    23  C   -0.108903
    24  C   -0.259775
    25  N   -0.702959
    26  C    0.336616
    27  C    0.033954
    28  C    0.048158
    29  C    0.295255
    30  C   -0.373727
    31  C   -0.235356
    32  C   -0.288749
    33  N   -0.724943
    34  C    0.280584
    35  C    0.016134
    36  C    0.120366
    37  C    0.270900
    38  C   -0.372677
    39  C    0.286538
    40  O   -0.514541
    41  C   -0.331137
    42  C    0.645420
    43  O   -0.488411
    44  O   -0.432365
    45  C   -0.077604
    46  C    0.003886
    47  C   -0.142765
    48  C    0.117426
    49  C   -0.350887
    50  C   -0.183737
    51  C   -0.165962
    52  C   -0.174922
    53  C   -0.080615
    54  C   -0.267464
    55  C   -0.154675
    56  C   -0.169199
    57  C   -0.160100
    58  C   -0.051251
    59  C   -0.325329
    60  C   -0.166730
    61  C   -0.191062
    62  C   -0.173974
    63  C   -0.038260
    64  C   -0.302387
    65  C   -0.327424
    66  H    0.071654
    67  H    0.066877
    68  H    0.102921
    69  H    0.119784
    70  H    0.097745
    71  H    0.114264
    72  H    0.100815
    73  H    0.139269
    74  H    0.123273
    75  H    0.101074
    76  H    0.132761
    77  H    0.121979
    78  H    0.120058
    79  H    0.120531
    80  H    0.129825
    81  H    0.102200
    82  H    0.103700
    83  H    0.108251
    84  H    0.091493
    85  H    0.085367
    86  H    0.133318
    87  H    0.118322
    88  H    0.094892
    89  H    0.081888
    90  H    0.122776
    91  H    0.084629
    92  H    0.111984
    93  H    0.139462
    94  H    0.082519
    95  H    0.165056
    96  H    0.099525
    97  H    0.119329
    98  H    0.124735
    99  H    0.141633
   100  H    0.097262
   101  H    0.084700
   102  H    0.103680
   103  H    0.098596
   104  H    0.126893
   105  H    0.063345
   106  H    0.091971
   107  H    0.095375
   108  H    0.090764
   109  H    0.075311
   110  H    0.077327
   111  H    0.081733
   112  H    0.105546
   113  H    0.066985
   114  H    0.090656
   115  H    0.091679
   116  H    0.103621
   117  H    0.091906
   118  H    0.074768
   119  H    0.093011
   120  H    0.067311
   121  H    0.087060
   122  H    0.098816
   123  H    0.086689
   124  H    0.089759
   125  H    0.081568
   126  H    0.098651
   127  H    0.115367
   128  H    0.105453
   129  H    0.093963
   130  H    0.068261
   131  H    0.057282
   132  H    0.087733
   133  H    0.112110
   134  H    0.103019
   135  H    0.088670
   136  H    0.088916
   137  H    0.108802
 Sum of Mulliken charges =  -0.00000

 Dipole moment (field-independent basis, Debye):
    X=              0.3794    Y=              6.9997    Z=             -0.0647  Tot=              7.0103
 Quadrupole moment (field-independent basis, Debye-Ang):
   XX=           -341.5847   YY=           -395.6803   ZZ=           -398.1800
   XY=            -29.2580   XZ=             12.9362   YZ=              1.1554

 Normal termination of Gaussian 16 at Wed Sep  4 00:37:43 2019.
