 Gaussian 16, Revision A.03,
 Gaussian 16:  ES64L-G16RevA.03 25-Dec-2016

 ----------------------------------------------------------------------
 # td=(NStates=1) iop(3/107=0140000000,3/108=0140000000) CAM-B3LYP/6-31
 G(d,p)
 ----------------------------------------------------------------------

 --
 TD
 --
 Symbolic Z-matrix:
 Charge =  0 Multiplicity = 1

                         Standard orientation:
 ---------------------------------------------------------------------
 Center     Atomic      Atomic             Coordinates (Angstroms)
 Number     Number       Type             X           Y           Z
 ---------------------------------------------------------------------
      1         12           0       -7.138769    0.595381    0.100222
      2          6           0       -4.839728   -1.971394    0.566342
      3          6           0       -4.795886    2.733573    1.286227
      4          6           0       -9.296922    3.101304   -0.587818
      5          6           0       -9.578502   -1.755694   -0.940231
      6          7           0       -5.146789    0.481638    0.696003
      7          6           0       -4.404648   -0.692558    0.809065
      8          6           0       -2.867038   -0.464716    1.147516
      9          6           0       -3.056309    1.012067    1.680997
     10          6           0       -4.417089    1.411092    1.202724
     11          6           0       -2.847384    1.101047    3.175860
     12          6           0       -1.934880   -0.552438   -0.015149
     13          6           0       -0.515132   -0.442288    0.419015
     14          6           0        0.517080   -0.657860   -0.697354
     15          8           0        0.342670   -1.005769   -1.797778
     16          8           0        1.775030   -0.373012   -0.242972
     17          7           0       -7.064259    2.653878    0.369342
     18          6           0       -6.014953    3.362900    0.865113
     19          6           0       -6.290721    4.721347    0.866757
     20          6           0       -7.631867    4.941968    0.397887
     21          6           0       -8.119084    3.531464    0.091197
     22          6           0       -5.366294    5.880493    1.245831
     23          6           0       -8.532525    6.029160    0.226472
     24          6           0       -8.510292    7.203307    0.796329
     25          7           0       -9.121239    0.751744   -0.532658
     26          6           0       -9.831367    1.849537   -0.719262
     27          6           0      -11.184741    1.494320   -1.246595
     28          6           0      -11.235652    0.209077   -1.275778
     29          6           0       -9.885107   -0.298683   -0.847855
     30          6           0      -12.213928    2.539566   -1.641569
     31          6           0      -12.381739   -0.765423   -1.731274
     32          6           0      -12.441952   -1.135873   -3.168878
     33          7           0       -7.309410   -1.490568   -0.029691
     34          6           0       -8.285586   -2.224540   -0.581642
     35          6           0       -7.842882   -3.662767   -0.538421
     36          6           0       -6.546742   -3.567289   -0.045594
     37          6           0       -6.212548   -2.209290    0.170957
     38          6           0       -8.580058   -4.876311   -0.981096
     39          6           0       -5.396097   -4.252769    0.226775
     40          8           0       -5.258864   -5.515446    0.215597
     41          6           0       -4.214757   -3.327446    0.586352
     42          6           0       -3.613051   -3.674123    1.951337
     43          8           0       -3.834309   -3.070241    3.007122
     44          8           0       -2.773961   -4.674057    1.807239
     45          6           0       -2.294714   -5.303839    3.010913
     46          6           0        2.834807   -0.639424   -1.213673
     47          6           0        4.212941   -0.413686   -0.552407
     48          6           0        5.134747    0.289146   -1.063027
     49          6           0        5.189362    1.051012   -2.314093
     50          6           0        6.437334    0.466839   -0.281512
     51          6           0        7.637165   -0.170000   -0.977726
     52          6           0        8.909790   -0.125225   -0.030474
     53          6           0       10.186015   -0.675748   -0.687479
     54          6           0       10.169051   -1.997992   -1.197646
     55          6           0       11.465239   -0.405051    0.175467
     56          6           0       12.780665   -0.469396   -0.630807
     57          6           0       13.910729   -0.142599    0.201457
     58          6           0       15.330910   -0.173598   -0.532736
     59          6           0       15.695050   -1.653209   -0.936311
     60          6           0       16.419982    0.412553    0.356481
     61          6           0       17.812211    0.620750   -0.282663
     62          6           0       18.711514    1.249695    0.655927
     63          6           0       20.247955    1.410013    0.245815
     64          6           0       20.284198    2.193566   -1.135524
     65          6           0       21.188633    1.960769    1.349354
     66          1           0       -4.069430    3.459796    1.447145
     67          1           0       -9.855083    3.977624   -0.838416
     68          1           0      -10.368977   -2.328435   -1.374665
     69          1           0       -2.527192   -1.102943    1.978574
     70          1           0       -2.361796    1.819852    1.248858
     71          1           0       -2.014822    0.649896    3.712354
     72          1           0       -3.035768    2.174555    3.544307
     73          1           0       -3.738366    0.683809    3.733184
     74          1           0       -2.132991   -1.419583   -0.512969
     75          1           0       -2.147684    0.267201   -0.791085
     76          1           0       -0.346056    0.569944    0.998701
     77          1           0       -0.388697   -1.136203    1.139724
     78          1           0       -5.835842    6.734750    0.672299
     79          1           0       -5.415163    6.080639    2.350921
     80          1           0       -4.325074    5.879886    1.026410
     81          1           0       -9.378649    5.940850   -0.550287
     82          1           0       -9.170338    8.023326    0.800099
     83          1           0       -7.683027    7.359481    1.674672
     84          1           0      -11.951800    3.188481   -2.365323
     85          1           0      -13.083691    1.770544   -1.931296
     86          1           0      -12.389193    3.223721   -0.758579
     87          1           0      -12.486668   -1.620059   -1.055306
     88          1           0      -13.254085   -0.069782   -1.467278
     89          1           0      -13.493128   -1.767828   -3.462732
     90          1           0      -12.677141   -0.073692   -3.718933
     91          1           0      -11.513926   -1.663181   -3.471525
     92          1           0       -8.933393   -4.867200   -2.024486
     93          1           0       -7.905829   -5.810706   -0.744614
     94          1           0       -9.484535   -5.105390   -0.237232
     95          1           0       -3.562867   -3.363308   -0.203181
     96          1           0       -1.344705   -4.680471    3.493354
     97          1           0       -3.327690   -5.174167    3.760506
     98          1           0       -1.950574   -6.269755    2.648710
     99          1           0        2.871629   -1.713936   -1.611570
    100          1           0        2.779090    0.021386   -1.980496
    101          1           0        4.317089   -0.802868    0.510385
    102          1           0        4.208829    1.263716   -2.642892
    103          1           0        5.365678    1.938094   -2.132578
    104          1           0        5.926696    0.696802   -2.920035
    105          1           0        6.770379    1.546062   -0.276516
    106          1           0        6.372903    0.046334    0.613422
    107          1           0        7.578526   -1.365941   -1.106084
    108          1           0        7.915357    0.342506   -1.859413
    109          1           0        9.174862    0.784290    0.327529
    110          1           0        8.710442   -0.679700    0.934444
    111          1           0       10.489671   -0.070342   -1.631909
    112          1           0        9.445209   -2.285184   -1.789368
    113          1           0       11.031367   -2.293574   -1.819700
    114          1           0       10.118391   -2.647063   -0.551097
    115          1           0       11.201850    0.693429    0.932038
    116          1           0       11.623924   -1.203405    0.989998
    117          1           0       12.853403   -1.537199   -0.937317
    118          1           0       12.667895    0.019919   -1.601663
    119          1           0       13.798854    0.975438    0.494841
    120          1           0       13.943705   -1.016224    0.978782
    121          1           0       15.258037    0.331446   -1.525281
    122          1           0       15.646866   -2.418680   -0.098629
    123          1           0       14.874561   -2.019283   -1.743310
    124          1           0       16.641739   -1.852617   -1.436927
    125          1           0       15.915069    1.421562    1.008441
    126          1           0       16.646423   -0.203284    1.276452
    127          1           0       18.104959   -0.325601   -0.504212
    128          1           0       17.812836    1.069479   -1.182042
    129          1           0       18.363918    2.211487    0.931371
    130          1           0       18.825605    0.727050    1.528150
    131          1           0       20.715449    0.405396    0.040821
    132          1           0       19.738843    3.210844   -0.852654
    133          1           0       21.393363    2.241426   -1.576748
    134          1           0       19.954037    1.555833   -2.074088
    135          1           0       20.909991    1.330326    2.280367
    136          1           0       22.196240    1.953985    0.943671
    137          1           0       20.771883    3.031210    1.583182
 ---------------------------------------------------------------------

 SCF Done:  E(RCAM-B3LYP) =  -2933.45716970     A.U. after   16 cycles

 Excitation energies and oscillator strengths:

 Excited State   1:      Singlet-A      1.9378 eV  639.81 nm  f=0.3214  <S**2>=0.000
     240 -> 243       -0.19522
     241 -> 242        0.67590
 This state for optimization and/or second-order correction.
 Total Energy, E(TD-HF/TD-DFT) =  -2933.38595538
 Copying the excited state density for this state as the 1-particle RhoCI density.

 The electronic state is 1-A.
 Alpha  occ. eigenvalues --  -46.81112 -19.22937 -19.21063 -19.16935 -19.16813
 Alpha  occ. eigenvalues --  -19.14344 -14.38166 -14.35908 -14.35645 -14.34759
 Alpha  occ. eigenvalues --  -10.34952 -10.34155 -10.29709 -10.28886 -10.26619
 Alpha  occ. eigenvalues --  -10.26527 -10.25667 -10.25622 -10.25510 -10.25431
 Alpha  occ. eigenvalues --  -10.24583 -10.24518 -10.24406 -10.24201 -10.24199
 Alpha  occ. eigenvalues --  -10.24058 -10.23593 -10.23496 -10.23446 -10.23355
 Alpha  occ. eigenvalues --  -10.23223 -10.23160 -10.23082 -10.23059 -10.23059
 Alpha  occ. eigenvalues --  -10.22879 -10.22874 -10.22713 -10.22447 -10.22433
 Alpha  occ. eigenvalues --  -10.22400 -10.22376 -10.22033 -10.21964 -10.21851
 Alpha  occ. eigenvalues --  -10.21839 -10.21836 -10.21749 -10.21670 -10.21639
 Alpha  occ. eigenvalues --  -10.21616 -10.21614 -10.21608 -10.21381 -10.21046
 Alpha  occ. eigenvalues --  -10.20604 -10.20497 -10.20444 -10.20369 -10.20286
 Alpha  occ. eigenvalues --  -10.19997 -10.18936 -10.18442 -10.18280 -10.16369
 Alpha  occ. eigenvalues --   -3.09538  -1.84499  -1.84021  -1.83913  -1.14235
 Alpha  occ. eigenvalues --   -1.13625  -1.04842  -1.03935  -1.02494  -1.00949
 Alpha  occ. eigenvalues --   -1.00305  -0.99606  -0.96957  -0.88655  -0.87094
 Alpha  occ. eigenvalues --   -0.86138  -0.85817  -0.84875  -0.84449  -0.84010
 Alpha  occ. eigenvalues --   -0.83289  -0.82892  -0.82538  -0.81675  -0.80987
 Alpha  occ. eigenvalues --   -0.80081  -0.79558  -0.79140  -0.78954  -0.78328
 Alpha  occ. eigenvalues --   -0.77445  -0.76613  -0.76297  -0.76149  -0.74137
 Alpha  occ. eigenvalues --   -0.73276  -0.73068  -0.72301  -0.72012  -0.70840
 Alpha  occ. eigenvalues --   -0.70414  -0.69546  -0.69070  -0.68762  -0.68054
 Alpha  occ. eigenvalues --   -0.66999  -0.66177  -0.64921  -0.64518  -0.64178
 Alpha  occ. eigenvalues --   -0.63245  -0.62343  -0.61238  -0.60645  -0.60263
 Alpha  occ. eigenvalues --   -0.60219  -0.59104  -0.58749  -0.58127  -0.58110
 Alpha  occ. eigenvalues --   -0.56826  -0.56525  -0.55993  -0.55611  -0.55378
 Alpha  occ. eigenvalues --   -0.54813  -0.54685  -0.54566  -0.53876  -0.53037
 Alpha  occ. eigenvalues --   -0.52728  -0.52117  -0.51528  -0.51382  -0.51013
 Alpha  occ. eigenvalues --   -0.50844  -0.50544  -0.50295  -0.50207  -0.49756
 Alpha  occ. eigenvalues --   -0.49207  -0.49112  -0.48735  -0.48479  -0.48308
 Alpha  occ. eigenvalues --   -0.48142  -0.47936  -0.47718  -0.47512  -0.47151
 Alpha  occ. eigenvalues --   -0.46878  -0.46855  -0.46557  -0.46305  -0.46160
 Alpha  occ. eigenvalues --   -0.45475  -0.45383  -0.45296  -0.45168  -0.45077
 Alpha  occ. eigenvalues --   -0.44738  -0.44560  -0.44360  -0.43987  -0.43779
 Alpha  occ. eigenvalues --   -0.43597  -0.43371  -0.42951  -0.42738  -0.42399
 Alpha  occ. eigenvalues --   -0.42301  -0.42235  -0.41993  -0.41870  -0.41780
 Alpha  occ. eigenvalues --   -0.41568  -0.41247  -0.40981  -0.40914  -0.40765
 Alpha  occ. eigenvalues --   -0.40679  -0.40545  -0.40293  -0.39972  -0.39791
 Alpha  occ. eigenvalues --   -0.39716  -0.39654  -0.39492  -0.39391  -0.39191
 Alpha  occ. eigenvalues --   -0.38897  -0.38730  -0.38431  -0.38368  -0.38309
 Alpha  occ. eigenvalues --   -0.37812  -0.37457  -0.37278  -0.37269  -0.36841
 Alpha  occ. eigenvalues --   -0.36787  -0.36365  -0.36108  -0.35688  -0.35597
 Alpha  occ. eigenvalues --   -0.35470  -0.35202  -0.34894  -0.34616  -0.34210
 Alpha  occ. eigenvalues --   -0.34171  -0.33977  -0.33567  -0.33253  -0.33202
 Alpha  occ. eigenvalues --   -0.33036  -0.32892  -0.32787  -0.32567  -0.32462
 Alpha  occ. eigenvalues --   -0.32277  -0.32071  -0.31557  -0.30803  -0.30494
 Alpha  occ. eigenvalues --   -0.30399  -0.30213  -0.29980  -0.28466  -0.27883
 Alpha  occ. eigenvalues --   -0.27780  -0.26780  -0.25930  -0.24615  -0.21845
 Alpha  occ. eigenvalues --   -0.19849
 Alpha virt. eigenvalues --   -0.07695  -0.03499  -0.00291   0.02515   0.03737
 Alpha virt. eigenvalues --    0.04086   0.05022   0.05299   0.05802   0.06494
 Alpha virt. eigenvalues --    0.06977   0.07927   0.09374   0.09774   0.09825

 Mulliken charges:
               1
     1  Mg   0.817473
     2  C    0.085167
     3  C   -0.201418
     4  C   -0.171677
     5  C   -0.150348
     6  N   -0.632620
     7  C    0.259393
     8  C   -0.156358
     9  C   -0.146488
    10  C    0.402890
    11  C   -0.323863
    12  C   -0.144851
    13  C   -0.266223
    14  C    0.600701
    15  O   -0.436944
    16  O   -0.488559
    17  N   -0.700533
    18  C    0.335833
    19  C   -0.001553
    20  C    0.041362
    21  C    0.237691
    22  C   -0.382757
    23  C   -0.071793
    24  C   -0.253493
    25  N   -0.663671
    26  C    0.302623
    27  C    0.039628
    28  C    0.006649
    29  C    0.277094
    30  C   -0.353515
    31  C   -0.246373
    32  C   -0.270911
    33  N   -0.736397
    34  C    0.271755
    35  C    0.027271
    36  C    0.125724
    37  C    0.286652
    38  C   -0.402763
    39  C    0.272951
    40  O   -0.513655
    41  C   -0.298170
    42  C    0.624557
    43  O   -0.488326
    44  O   -0.411801
    45  C   -0.079606
    46  C    0.024883
    47  C   -0.176457
    48  C    0.157626
    49  C   -0.349786
    50  C   -0.209041
    51  C   -0.181052
    52  C   -0.184856
    53  C   -0.046303
    54  C   -0.295887
    55  C   -0.145045
    56  C   -0.184669
    57  C   -0.148615
    58  C   -0.053526
    59  C   -0.323046
    60  C   -0.153315
    61  C   -0.163564
    62  C   -0.164654
    63  C   -0.073961
    64  C   -0.293154
    65  C   -0.294336
    66  H    0.064989
    67  H    0.064357
    68  H    0.095716
    69  H    0.120501
    70  H    0.096947
    71  H    0.120566
    72  H    0.096975
    73  H    0.118097
    74  H    0.118478
    75  H    0.102735
    76  H    0.123461
    77  H    0.142280
    78  H    0.120469
    79  H    0.119926
    80  H    0.120678
    81  H    0.088623
    82  H    0.112459
    83  H    0.076785
    84  H    0.137488
    85  H    0.090958
    86  H    0.118494
    87  H    0.112729
    88  H    0.095516
    89  H    0.082053
    90  H    0.091388
    91  H    0.116603
    92  H    0.130006
    93  H    0.146695
    94  H    0.111905
    95  H    0.167529
    96  H    0.103874
    97  H    0.128130
    98  H    0.144346
    99  H    0.118559
   100  H    0.116846
   101  H    0.080004
   102  H    0.099877
   103  H    0.128932
   104  H    0.130750
   105  H    0.091261
   106  H    0.094819
   107  H    0.081500
   108  H    0.102019
   109  H    0.098011
   110  H    0.079255
   111  H    0.063533
   112  H    0.103844
   113  H    0.088306
   114  H    0.107701
   115  H    0.023854
   116  H    0.076509
   117  H    0.101114
   118  H    0.090035
   119  H    0.090389
   120  H    0.086184
   121  H    0.086830
   122  H    0.095912
   123  H    0.074936
   124  H    0.108666
   125  H    0.031550
   126  H    0.086834
   127  H    0.103362
   128  H    0.102126
   129  H    0.091773
   130  H    0.089260
   131  H    0.071801
   132  H    0.094615
   133  H    0.072880
   134  H    0.095240
   135  H    0.097530
   136  H    0.115018
   137  H    0.084618
 Sum of Mulliken charges =  -0.00000

 Dipole moment (field-independent basis, Debye):
    X=              1.0940    Y=              3.0792    Z=             -0.7417  Tot=              3.3509
 Quadrupole moment (field-independent basis, Debye-Ang):
   XX=           -344.7582   YY=           -396.1360   ZZ=           -398.2652
   XY=            -32.3146   XZ=              8.7287   YZ=             -3.0017

 Normal termination of Gaussian 16 at Mon Sep 23 01:45:28 2019.
