 Gaussian 09, Revision D.01,
 Gaussian 09:  ES64L-G09RevD.01 24-Apr-2013

 -------------------------------------
 # td=(NStates=1) CAM-B3LYP/6-31G(d,p)
 -------------------------------------

 --
 TD
 --
 Symbolic Z-matrix:
 Charge =  0 Multiplicity = 1

                         Standard orientation:
 ---------------------------------------------------------------------
 Center     Atomic      Atomic             Coordinates (Angstroms)
 Number     Number       Type             X           Y           Z
 ---------------------------------------------------------------------
      1         12           0       -7.123483    0.643872    0.081224
      2          6           0       -4.868951   -1.971472    0.481416
      3          6           0       -4.788758    2.864768    1.014554
      4          6           0       -9.399926    3.145726   -0.462788
      5          6           0       -9.619691   -1.687319   -0.901099
      6          7           0       -5.157869    0.398683    0.716358
      7          6           0       -4.397829   -0.755481    0.749555
      8          6           0       -2.893160   -0.328135    1.272455
      9          6           0       -3.173542    1.112804    1.640349
     10          6           0       -4.475028    1.506530    1.104323
     11          6           0       -3.102552    1.310275    3.231078
     12          6           0       -1.969625   -0.695673    0.142290
     13          6           0       -0.496151   -0.544345    0.519923
     14          6           0        0.481339   -0.687773   -0.573171
     15          8           0        0.211381   -0.975671   -1.755443
     16          8           0        1.763792   -0.462112   -0.140807
     17          7           0       -7.052606    2.657291    0.390501
     18          6           0       -6.042138    3.437442    0.731159
     19          6           0       -6.388981    4.828991    0.761941
     20          6           0       -7.668901    4.867635    0.353713
     21          6           0       -8.118624    3.523131    0.090954
     22          6           0       -5.327271    5.887211    0.997986
     23          6           0       -8.500306    6.050377    0.333079
     24          6           0       -8.289874    7.271547    0.851754
     25          7           0       -9.150477    0.633151   -0.564674
     26          6           0       -9.825674    1.868623   -0.736241
     27          6           0      -11.208065    1.427677   -1.126360
     28          6           0      -11.268392    0.135206   -1.268428
     29          6           0       -9.983912   -0.319283   -0.951883
     30          6           0      -12.312358    2.433792   -1.384957
     31          6           0      -12.385393   -0.693704   -1.751806
     32          6           0      -12.306823   -1.060001   -3.119060
     33          7           0       -7.269468   -1.350643   -0.197512
     34          6           0       -8.328386   -2.196869   -0.485235
     35          6           0       -7.871939   -3.595067   -0.388783
     36          6           0       -6.610467   -3.581921   -0.016505
     37          6           0       -6.161449   -2.161764    0.129224
     38          6           0       -8.692561   -4.871739   -0.710094
     39          6           0       -5.347703   -4.413593    0.119524
     40          8           0       -5.088900   -5.525509    0.235494
     41          6           0       -4.131328   -3.353096    0.482579
     42          6           0       -3.487854   -3.688795    1.840277
     43          8           0       -3.798687   -3.225372    2.976386
     44          8           0       -2.706533   -4.749244    1.701229
     45          6           0       -2.181489   -5.338355    2.968350
     46          6           0        2.727280   -0.558570   -1.237487
     47          6           0        4.120114   -0.473766   -0.647801
     48          6           0        5.150505    0.299479   -0.990414
     49          6           0        5.152068    1.329627   -2.121287
     50          6           0        6.490522    0.337305   -0.259048
     51          6           0        7.685951   -0.313366   -0.971596
     52          6           0        8.932882   -0.315785   -0.149604
     53          6           0       10.163594   -0.747473   -0.855504
     54          6           0       10.206422   -2.171508   -1.284323
     55          6           0       11.415710   -0.455979   -0.029662
     56          6           0       12.762738   -0.519605   -0.697474
     57          6           0       13.870389   -0.301769    0.149900
     58          6           0       15.295849   -0.201067   -0.607105
     59          6           0       15.806997   -1.557621   -1.052285
     60          6           0       16.410825    0.422155    0.412851
     61          6           0       17.928973    0.431082   -0.050313
     62          6           0       18.828176    1.364647    0.840593
     63          6           0       20.277726    1.471343    0.354013
     64          6           0       20.380045    2.169059   -1.036238
     65          6           0       21.136412    2.338911    1.320767
     66          1           0       -3.962025    3.479385    1.375582
     67          1           0      -10.241374    3.890998   -0.474904
     68          1           0      -10.308964   -2.431140   -1.247361
     69          1           0       -2.708081   -1.147139    2.145490
     70          1           0       -2.336868    1.708619    1.138783
     71          1           0       -2.038101    0.800403    3.746065
     72          1           0       -3.280982    2.342745    3.412690
     73          1           0       -3.902310    0.739818    3.655717
     74          1           0       -2.294153   -1.675634   -0.022802
     75          1           0       -2.240340   -0.203523   -0.930846
     76          1           0       -0.277275    0.335169    1.160663
     77          1           0       -0.359518   -1.383223    1.252046
     78          1           0       -5.338035    6.702403    0.123702
     79          1           0       -5.277443    6.516398    2.106419
     80          1           0       -4.378425    5.566963    0.871164
     81          1           0       -9.242183    6.066150   -0.474620
     82          1           0       -9.088361    8.134096    0.703805
     83          1           0       -7.595635    7.599186    1.814567
     84          1           0      -12.201845    2.890868   -2.366291
     85          1           0      -13.215522    1.695370   -1.743727
     86          1           0      -12.432499    3.337597   -0.782720
     87          1           0      -12.352068   -1.514349   -1.190480
     88          1           0      -13.415718   -0.058913   -1.446347
     89          1           0      -13.196065   -1.656384   -3.527290
     90          1           0      -12.539943   -0.163388   -3.849216
     91          1           0      -11.509714   -1.550200   -3.298202
     92          1           0       -9.232708   -4.705551   -1.727263
     93          1           0       -7.994361   -5.755372   -0.542298
     94          1           0       -9.492699   -4.895050    0.123523
     95          1           0       -3.388728   -3.325192   -0.105647
     96          1           0       -1.805886   -4.465535    3.512704
     97          1           0       -2.889536   -6.049293    3.450153
     98          1           0       -1.226407   -5.868016    2.415910
     99          1           0        2.631269   -1.537148   -1.550349
    100          1           0        2.404501    0.284316   -2.086926
    101          1           0        4.261747   -1.141879    0.487915
    102          1           0        4.329509    1.115841   -2.826309
    103          1           0        5.058769    2.532752   -1.839931
    104          1           0        5.980924    1.072507   -2.765938
    105          1           0        6.693008    1.432166   -0.114547
    106          1           0        6.444461   -0.113420    0.773535
    107          1           0        7.326167   -1.199932   -1.538022
    108          1           0        7.666645    0.316591   -1.910608
    109          1           0        8.864670    0.737182    0.618943
    110          1           0        8.665220   -1.014427    0.769480
    111          1           0       10.448696   -0.118454   -1.932815
    112          1           0        9.328149   -2.487644   -1.972250
    113          1           0       11.106981   -2.299307   -1.952132
    114          1           0       10.382221   -2.737524   -0.342060
    115          1           0       11.216990    0.405817    0.290595
    116          1           0       11.214840   -1.061919    0.797368
    117          1           0       13.001073   -1.422670   -1.178355
    118          1           0       12.689607    0.312241   -1.566856
    119          1           0       13.848789    0.718237    0.704367
    120          1           0       14.173958   -1.096621    1.041533
    121          1           0       15.373060    0.488831   -1.301037
    122          1           0       15.909932   -2.391400   -0.179380
    123          1           0       15.210367   -1.923621   -1.931212
    124          1           0       16.715620   -1.390635   -1.757484
    125          1           0       16.312879    1.509359    0.869973
    126          1           0       16.440585   -0.624670    1.251169
    127          1           0       18.203886   -0.715568   -0.015030
    128          1           0       17.946158    0.593957   -1.023822
    129          1           0       18.489445    2.488620    0.992874
    130          1           0       18.655949    0.935560    1.768839
    131          1           0       20.799027    0.380371    0.335962
    132          1           0       19.933600    3.128905   -1.001112
    133          1           0       21.366768    2.205323   -1.358501
    134          1           0       19.768000    1.612649   -1.877068
    135          1           0       21.172986    1.926146    2.313741
    136          1           0       22.052568    2.394961    0.846780
    137          1           0       20.924574    3.486971    1.189093
 ---------------------------------------------------------------------

 SCF Done:  E(RCAM-B3LYP) =  -2932.51816302     A.U. after   16 cycles

 Excitation energies and oscillator strengths:

 Excited State   1:      Singlet-A      1.9568 eV  633.61 nm  f=0.3092  <S**2>=0.000
     240 -> 243        0.22671
     241 -> 242        0.66497
 This state for optimization and/or second-order correction.
 Total Energy, E(TD-HF/TD-KS) =  -2932.44625247
 Copying the excited state density for this state as the 1-particle RhoCI density.

 The electronic state is 1-A.
 Alpha  occ. eigenvalues --  -46.84276 -19.26999 -19.26300 -19.22725 -19.20925
 Alpha  occ. eigenvalues --  -19.20402 -14.41590 -14.39905 -14.39553 -14.39152
 Alpha  occ. eigenvalues --  -10.39492 -10.39491 -10.37147 -10.33523 -10.32755
 Alpha  occ. eigenvalues --  -10.30671 -10.30275 -10.30192 -10.29741 -10.29569
 Alpha  occ. eigenvalues --  -10.28797 -10.28710 -10.28576 -10.28512 -10.28488
 Alpha  occ. eigenvalues --  -10.28406 -10.28342 -10.28141 -10.28116 -10.28116
 Alpha  occ. eigenvalues --  -10.27911 -10.27853 -10.27793 -10.27708 -10.27577
 Alpha  occ. eigenvalues --  -10.27434 -10.27362 -10.27197 -10.27130 -10.27095
 Alpha  occ. eigenvalues --  -10.27066 -10.26951 -10.26844 -10.26693 -10.26603
 Alpha  occ. eigenvalues --  -10.26508 -10.26470 -10.26431 -10.26230 -10.26190
 Alpha  occ. eigenvalues --  -10.26035 -10.25962 -10.25947 -10.25863 -10.25834
 Alpha  occ. eigenvalues --  -10.25670 -10.25445 -10.25379 -10.25343 -10.24618
 Alpha  occ. eigenvalues --  -10.24610 -10.24424 -10.24299 -10.24248 -10.22462
 Alpha  occ. eigenvalues --   -3.13289  -1.88004  -1.87542  -1.87450  -1.17989
 Alpha  occ. eigenvalues --   -1.17032  -1.16788  -1.07718  -1.06539  -1.04460
 Alpha  occ. eigenvalues --   -1.03532  -1.03414  -1.01935  -0.92548  -0.92164
 Alpha  occ. eigenvalues --   -0.90801  -0.90502  -0.90024  -0.89155  -0.89005
 Alpha  occ. eigenvalues --   -0.88130  -0.88060  -0.87866  -0.86623  -0.85893
 Alpha  occ. eigenvalues --   -0.85244  -0.84297  -0.83962  -0.83244  -0.82743
 Alpha  occ. eigenvalues --   -0.81559  -0.81240  -0.80782  -0.80070  -0.78044
 Alpha  occ. eigenvalues --   -0.77761  -0.77129  -0.76668  -0.75990  -0.75399
 Alpha  occ. eigenvalues --   -0.75334  -0.74646  -0.73626  -0.73165  -0.72556
 Alpha  occ. eigenvalues --   -0.71758  -0.70743  -0.70012  -0.69566  -0.68272
 Alpha  occ. eigenvalues --   -0.66702  -0.66532  -0.65484  -0.64103  -0.64021
 Alpha  occ. eigenvalues --   -0.63553  -0.62485  -0.62278  -0.62238  -0.62029
 Alpha  occ. eigenvalues --   -0.61401  -0.60506  -0.59957  -0.59683  -0.59013
 Alpha  occ. eigenvalues --   -0.58431  -0.57880  -0.57625  -0.57220  -0.56591
 Alpha  occ. eigenvalues --   -0.56147  -0.55889  -0.55664  -0.55279  -0.54550
 Alpha  occ. eigenvalues --   -0.54358  -0.53862  -0.53746  -0.53697  -0.53515
 Alpha  occ. eigenvalues --   -0.53168  -0.52794  -0.52441  -0.51692  -0.51534
 Alpha  occ. eigenvalues --   -0.51316  -0.51237  -0.51058  -0.50873  -0.50639
 Alpha  occ. eigenvalues --   -0.50486  -0.50169  -0.50051  -0.49841  -0.49475
 Alpha  occ. eigenvalues --   -0.49302  -0.49117  -0.48753  -0.48615  -0.48113
 Alpha  occ. eigenvalues --   -0.47903  -0.47830  -0.47475  -0.47285  -0.47116
 Alpha  occ. eigenvalues --   -0.46842  -0.46529  -0.46280  -0.46126  -0.45989
 Alpha  occ. eigenvalues --   -0.45867  -0.45642  -0.45370  -0.45297  -0.45065
 Alpha  occ. eigenvalues --   -0.44782  -0.44724  -0.44477  -0.44412  -0.44158
 Alpha  occ. eigenvalues --   -0.44003  -0.43934  -0.43758  -0.43533  -0.43385
 Alpha  occ. eigenvalues --   -0.43111  -0.42934  -0.42710  -0.42619  -0.42199
 Alpha  occ. eigenvalues --   -0.41965  -0.41802  -0.41567  -0.41446  -0.41189
 Alpha  occ. eigenvalues --   -0.41131  -0.40919  -0.40685  -0.40466  -0.40008
 Alpha  occ. eigenvalues --   -0.39887  -0.39492  -0.38418  -0.38390  -0.38225
 Alpha  occ. eigenvalues --   -0.38148  -0.37944  -0.37883  -0.37586  -0.37327
 Alpha  occ. eigenvalues --   -0.37283  -0.37112  -0.36908  -0.36814  -0.36372
 Alpha  occ. eigenvalues --   -0.36213  -0.36066  -0.35896  -0.35430  -0.35317
 Alpha  occ. eigenvalues --   -0.34969  -0.34483  -0.34066  -0.33655  -0.33362
 Alpha  occ. eigenvalues --   -0.33003  -0.32706  -0.32338  -0.31792  -0.30826
 Alpha  occ. eigenvalues --   -0.30189  -0.30167  -0.29022  -0.27724  -0.23490
 Alpha  occ. eigenvalues --   -0.20656
 Alpha virt. eigenvalues --   -0.06565  -0.02641   0.01495   0.03997   0.05117
 Alpha virt. eigenvalues --    0.05426   0.05880   0.06276   0.06861   0.07014
 Alpha virt. eigenvalues --    0.08574   0.10145   0.10335   0.11084   0.11351

 Mulliken charges:
               1
     1  Mg   0.812181
     2  C    0.091753
     3  C   -0.205429
     4  C   -0.179389
     5  C   -0.191215
     6  N   -0.671274
     7  C    0.247925
     8  C   -0.145652
     9  C   -0.168993
    10  C    0.374451
    11  C   -0.287939
    12  C   -0.159974
    13  C   -0.277991
    14  C    0.628726
    15  O   -0.494978
    16  O   -0.493838
    17  N   -0.709209
    18  C    0.324929
    19  C    0.047646
    20  C    0.001882
    21  C    0.281788
    22  C   -0.357592
    23  C   -0.071696
    24  C   -0.247956
    25  N   -0.686770
    26  C    0.288400
    27  C    0.000321
    28  C    0.077679
    29  C    0.310371
    30  C   -0.388436
    31  C   -0.220622
    32  C   -0.281038
    33  N   -0.716825
    34  C    0.278166
    35  C   -0.016514
    36  C    0.013807
    37  C    0.255409
    38  C   -0.361296
    39  C    0.383823
    40  O   -0.378006
    41  C   -0.282036
    42  C    0.591185
    43  O   -0.511698
    44  O   -0.442566
    45  C   -0.082058
    46  C    0.039342
    47  C   -0.142155
    48  C    0.110548
    49  C   -0.355645
    50  C   -0.225781
    51  C   -0.160296
    52  C   -0.160825
    53  C   -0.067081
    54  C   -0.288509
    55  C   -0.143175
    56  C   -0.160526
    57  C   -0.153272
    58  C   -0.059396
    59  C   -0.309586
    60  C   -0.170977
    61  C   -0.180356
    62  C   -0.156583
    63  C   -0.056671
    64  C   -0.311016
    65  C   -0.306272
    66  H    0.083655
    67  H    0.099895
    68  H    0.082066
    69  H    0.118203
    70  H    0.098527
    71  H    0.073942
    72  H    0.113612
    73  H    0.135789
    74  H    0.110775
    75  H    0.109500
    76  H    0.144431
    77  H    0.139629
    78  H    0.109106
    79  H    0.083351
    80  H    0.128436
    81  H    0.092937
    82  H    0.090329
    83  H    0.092433
    84  H    0.128100
    85  H    0.087327
    86  H    0.124809
    87  H    0.113702
    88  H    0.078850
    89  H    0.093481
    90  H    0.090931
    91  H    0.118133
    92  H    0.121590
    93  H    0.142212
    94  H    0.125855
    95  H    0.148568
    96  H    0.150966
    97  H    0.154106
    98  H    0.114822
    99  H    0.142228
   100  H    0.117323
   101  H    0.070280
   102  H    0.104580
   103  H    0.108181
   104  H    0.125171
   105  H    0.101647
   106  H    0.085100
   107  H    0.103887
   108  H    0.084929
   109  H    0.065767
   110  H    0.086890
   111  H    0.038058
   112  H    0.094457
   113  H    0.104442
   114  H    0.097250
   115  H    0.100885
   116  H    0.087289
   117  H    0.104812
   118  H    0.075572
   119  H    0.079820
   120  H    0.070822
   121  H    0.099324
   122  H    0.098706
   123  H    0.099182
   124  H    0.095673
   125  H    0.083194
   126  H    0.023940
   127  H    0.083938
   128  H    0.098542
   129  H    0.070264
   130  H    0.108403
   131  H    0.065559
   132  H    0.109925
   133  H    0.111160
   134  H    0.083218
   135  H    0.108141
   136  H    0.109001
   137  H    0.081152
 Sum of Mulliken charges =   0.00000

 Dipole moment (field-independent basis, Debye):
    X=              1.7588    Y=              1.4053    Z=             -0.7121  Tot=              2.3613
 Quadrupole moment (field-independent basis, Debye-Ang):
   XX=           -350.4866   YY=           -388.4161   ZZ=           -399.2607
   XY=             -1.4364   XZ=              5.9534   YZ=             -4.0998

 Normal termination of Gaussian 09 at Thu Jul  4 03:21:45 2019.
