 Gaussian 16, Revision A.03,
 Gaussian 16:  ES64L-G16RevA.03 25-Dec-2016

 ----------------------------------------------------------------------
 # td=(NStates=1) iop(3/107=0140000000,3/108=0140000000) CAM-B3LYP/6-31
 G(d,p)
 ----------------------------------------------------------------------

 --
 TD
 --
 Symbolic Z-matrix:
 Charge =  0 Multiplicity = 1

                         Standard orientation:
 ---------------------------------------------------------------------
 Center     Atomic      Atomic             Coordinates (Angstroms)
 Number     Number       Type             X           Y           Z
 ---------------------------------------------------------------------
      1         12           0       -7.196943    0.671646    0.104976
      2          6           0       -4.837082   -1.905934    0.416446
      3          6           0       -4.740593    2.767266    1.183987
      4          6           0       -9.355527    3.108938   -0.255989
      5          6           0       -9.617176   -1.758346   -0.794768
      6          7           0       -5.158484    0.449733    0.690356
      7          6           0       -4.400626   -0.686153    0.752692
      8          6           0       -2.940309   -0.411155    1.254940
      9          6           0       -3.067612    1.081991    1.735949
     10          6           0       -4.404407    1.548234    1.116905
     11          6           0       -2.919749    1.196491    3.302294
     12          6           0       -1.973379   -0.674449    0.098652
     13          6           0       -0.459234   -0.536167    0.519884
     14          6           0        0.532050   -0.592338   -0.588740
     15          8           0        0.235231   -1.066170   -1.738182
     16          8           0        1.762980   -0.343376   -0.263833
     17          7           0       -6.999656    2.605594    0.393819
     18          6           0       -5.910518    3.361369    0.864821
     19          6           0       -6.389629    4.775909    0.803667
     20          6           0       -7.694522    4.820216    0.466512
     21          6           0       -8.041443    3.451963    0.198217
     22          6           0       -5.404517    5.893691    1.121281
     23          6           0       -8.456708    6.033546    0.147404
     24          6           0       -8.338854    7.226999    0.869070
     25          7           0       -9.141721    0.666438   -0.419480
     26          6           0       -9.882790    1.794669   -0.719936
     27          6           0      -11.122223    1.589716   -1.144421
     28          6           0      -11.203645    0.276919   -1.379409
     29          6           0       -9.880966   -0.370405   -0.894653
     30          6           0      -12.176636    2.587198   -1.568328
     31          6           0      -12.279351   -0.556535   -1.956786
     32          6           0      -12.194924   -1.140490   -3.349307
     33          7           0       -7.273726   -1.350300   -0.229287
     34          6           0       -8.284099   -2.188421   -0.582121
     35          6           0       -7.877367   -3.609504   -0.556977
     36          6           0       -6.575053   -3.542744   -0.168060
     37          6           0       -6.267272   -2.171418    0.047975
     38          6           0       -8.645622   -4.839307   -0.851790
     39          6           0       -5.329471   -4.416192    0.166820
     40          8           0       -5.269291   -5.595294    0.270182
     41          6           0       -4.174751   -3.334155    0.567904
     42          6           0       -3.596351   -3.597348    1.890094
     43          8           0       -3.818316   -3.026216    2.936926
     44          8           0       -2.862130   -4.754727    1.837982
     45          6           0       -2.396250   -5.301285    3.048031
     46          6           0        2.767587   -0.752905   -1.183143
     47          6           0        4.126244   -0.507006   -0.562560
     48          6           0        5.096425    0.314784   -0.990513
     49          6           0        5.020116    1.260072   -2.149280
     50          6           0        6.443970    0.306124   -0.229525
     51          6           0        7.618392   -0.223814   -1.022474
     52          6           0        8.929922   -0.207522   -0.087936
     53          6           0       10.168774   -0.676489   -0.820949
     54          6           0       10.181523   -2.187344   -1.174876
     55          6           0       11.461106   -0.304275   -0.018661
     56          6           0       12.833151   -0.429879   -0.751274
     57          6           0       13.951887   -0.203733    0.271752
     58          6           0       15.360918   -0.178489   -0.440821
     59          6           0       15.678604   -1.693802   -0.827776
     60          6           0       16.449607    0.417075    0.444828
     61          6           0       17.854949    0.643275   -0.189507
     62          6           0       18.826123    1.265857    0.782590
     63          6           0       20.212620    1.367553    0.130919
     64          6           0       20.227703    2.282683   -1.150511
     65          6           0       21.246535    1.977868    1.046507
     66          1           0       -3.925948    3.580734    1.465041
     67          1           0      -10.101819    3.938865   -0.202276
     68          1           0      -10.480369   -2.308442   -1.148574
     69          1           0       -2.846515   -1.079299    2.101855
     70          1           0       -2.285204    1.716263    1.508123
     71          1           0       -1.865580    1.172839    3.474086
     72          1           0       -2.955053    2.155971    3.701917
     73          1           0       -3.572241    0.576735    3.770948
     74          1           0       -1.974139   -1.596396   -0.387128
     75          1           0       -2.196038    0.190146   -0.793277
     76          1           0       -0.250801    0.439098    0.926955
     77          1           0       -0.141645   -1.292221    1.358808
     78          1           0       -5.630392    6.921351    0.639322
     79          1           0       -5.355013    5.952775    2.183959
     80          1           0       -4.416791    5.477986    0.641174
     81          1           0       -9.237468    5.896519   -0.660129
     82          1           0       -8.972063    7.949471    0.305299
     83          1           0       -7.559765    7.318205    1.503328
     84          1           0      -12.053395    3.167257   -2.347182
     85          1           0      -13.069081    1.871020   -1.681155
     86          1           0      -12.314589    3.366331   -0.790751
     87          1           0      -12.634025   -1.462991   -1.269362
     88          1           0      -13.240655    0.207528   -1.642891
     89          1           0      -12.998537   -2.038470   -3.477220
     90          1           0      -12.322928   -0.478212   -4.250955
     91          1           0      -11.255072   -1.760307   -3.372987
     92          1           0       -9.043530   -4.903417   -1.868954
     93          1           0       -7.949999   -5.787003   -0.887010
     94          1           0       -9.542684   -5.035432   -0.388252
     95          1           0       -3.647258   -3.702460   -0.368996
     96          1           0       -1.677625   -4.585632    3.701171
     97          1           0       -3.224207   -5.547709    3.975387
     98          1           0       -1.991721   -6.102467    2.797262
     99          1           0        2.516191   -1.751892   -1.570490
    100          1           0        2.612024    0.050018   -1.883281
    101          1           0        4.020123   -1.201789    0.307381
    102          1           0        3.840858    1.667532   -2.402232
    103          1           0        5.642712    2.294415   -1.935822
    104          1           0        5.705502    0.731485   -2.845562
    105          1           0        6.462830    1.232751   -0.039146
    106          1           0        6.192454   -0.367649    0.808086
    107          1           0        7.553795   -1.289578   -1.410837
    108          1           0        7.902910    0.394620   -1.882880
    109          1           0        9.064137    0.671201    0.565088
    110          1           0        8.655425   -0.974242    0.788924
    111          1           0       10.328368   -0.133597   -1.739490
    112          1           0        9.349924   -2.604286   -1.911121
    113          1           0       11.161430   -2.601059   -1.715998
    114          1           0       10.019966   -2.799028   -0.271436
    115          1           0       11.277284    0.699811    0.446261
    116          1           0       11.493463   -1.066491    0.818607
    117          1           0       13.019836   -1.491251   -1.271031
    118          1           0       12.681314    0.318052   -1.662952
    119          1           0       13.759819    0.733927    1.017475
    120          1           0       14.162450   -1.061529    1.064488
    121          1           0       15.428153    0.383791   -1.425135
    122          1           0       15.815457   -2.350020    0.101971
    123          1           0       14.800318   -2.081104   -1.515584
    124          1           0       16.605729   -1.988871   -1.431471
    125          1           0       15.970721    1.207761    0.805345
    126          1           0       16.789860   -0.185569    1.365444
    127          1           0       18.342840   -0.268493   -0.590661
    128          1           0       17.667145    1.463112   -1.052242
    129          1           0       18.472788    2.392491    1.002721
    130          1           0       18.959504    0.738004    1.796892
    131          1           0       20.267643    0.438398   -0.092945
    132          1           0       19.938115    3.360369   -0.848038
    133          1           0       21.212661    2.364101   -1.780147
    134          1           0       19.417594    1.842374   -1.900420
    135          1           0       21.286796    1.689870    2.131045
    136          1           0       22.205673    1.810280    0.635369
    137          1           0       21.221661    3.022881    1.319838
 ---------------------------------------------------------------------

 SCF Done:  E(RCAM-B3LYP) =  -2933.43185253     A.U. after   15 cycles

 Excitation energies and oscillator strengths:

 Excited State   1:      Singlet-A      2.0631 eV  600.97 nm  f=0.2364  <S**2>=0.000
     240 -> 243       -0.23289
     241 -> 242        0.66462
 This state for optimization and/or second-order correction.
 Total Energy, E(TD-HF/TD-DFT) =  -2933.35603648
 Copying the excited state density for this state as the 1-particle RhoCI density.

 The electronic state is 1-A.
 Alpha  occ. eigenvalues --  -46.79020 -19.22021 -19.22014 -19.18039 -19.16916
 Alpha  occ. eigenvalues --  -19.14374 -14.36684 -14.35535 -14.35047 -14.34965
 Alpha  occ. eigenvalues --  -10.34704 -10.33497 -10.32300 -10.26982 -10.26323
 Alpha  occ. eigenvalues --  -10.25333 -10.25294 -10.25202 -10.25158 -10.25092
 Alpha  occ. eigenvalues --  -10.24939 -10.24801 -10.24718 -10.24361 -10.24245
 Alpha  occ. eigenvalues --  -10.24049 -10.23724 -10.23677 -10.23616 -10.23537
 Alpha  occ. eigenvalues --  -10.23468 -10.23363 -10.23288 -10.23240 -10.23108
 Alpha  occ. eigenvalues --  -10.23060 -10.22782 -10.22722 -10.22635 -10.22596
 Alpha  occ. eigenvalues --  -10.22572 -10.22484 -10.22425 -10.22412 -10.22293
 Alpha  occ. eigenvalues --  -10.22155 -10.22105 -10.22103 -10.21945 -10.21841
 Alpha  occ. eigenvalues --  -10.21800 -10.21700 -10.21666 -10.21635 -10.21611
 Alpha  occ. eigenvalues --  -10.21515 -10.21468 -10.21178 -10.21102 -10.20780
 Alpha  occ. eigenvalues --  -10.20697 -10.20519 -10.19955 -10.19561 -10.19375
 Alpha  occ. eigenvalues --   -3.07817  -1.82746  -1.82310  -1.82220  -1.14283
 Alpha  occ. eigenvalues --   -1.12926  -1.09127  -1.04509  -1.00295  -0.99919
 Alpha  occ. eigenvalues --   -0.98360  -0.97891  -0.96616  -0.86392  -0.86231
 Alpha  occ. eigenvalues --   -0.85212  -0.84470  -0.84355  -0.84188  -0.83712
 Alpha  occ. eigenvalues --   -0.83416  -0.82873  -0.82427  -0.82182  -0.81218
 Alpha  occ. eigenvalues --   -0.79834  -0.79112  -0.78747  -0.78073  -0.77289
 Alpha  occ. eigenvalues --   -0.76589  -0.76316  -0.75445  -0.74612  -0.73482
 Alpha  occ. eigenvalues --   -0.73329  -0.72729  -0.72177  -0.70929  -0.70686
 Alpha  occ. eigenvalues --   -0.70510  -0.69347  -0.69146  -0.68698  -0.68027
 Alpha  occ. eigenvalues --   -0.67707  -0.65787  -0.64878  -0.64199  -0.63504
 Alpha  occ. eigenvalues --   -0.63028  -0.62576  -0.61096  -0.60335  -0.60041
 Alpha  occ. eigenvalues --   -0.59208  -0.59007  -0.58764  -0.58228  -0.58110
 Alpha  occ. eigenvalues --   -0.57777  -0.56431  -0.56036  -0.55681  -0.55543
 Alpha  occ. eigenvalues --   -0.55072  -0.54481  -0.53947  -0.53445  -0.53208
 Alpha  occ. eigenvalues --   -0.52695  -0.51145  -0.50966  -0.50438  -0.50302
 Alpha  occ. eigenvalues --   -0.50164  -0.49986  -0.49864  -0.49061  -0.48976
 Alpha  occ. eigenvalues --   -0.48945  -0.48367  -0.48157  -0.48015  -0.47818
 Alpha  occ. eigenvalues --   -0.47593  -0.47251  -0.47195  -0.47146  -0.46975
 Alpha  occ. eigenvalues --   -0.46766  -0.46395  -0.46207  -0.45835  -0.45638
 Alpha  occ. eigenvalues --   -0.45318  -0.45126  -0.44970  -0.44771  -0.44533
 Alpha  occ. eigenvalues --   -0.44171  -0.44085  -0.43871  -0.43710  -0.43499
 Alpha  occ. eigenvalues --   -0.43374  -0.43144  -0.42877  -0.42716  -0.42706
 Alpha  occ. eigenvalues --   -0.42435  -0.42413  -0.42009  -0.41731  -0.41435
 Alpha  occ. eigenvalues --   -0.41297  -0.40965  -0.40659  -0.40366  -0.40251
 Alpha  occ. eigenvalues --   -0.40179  -0.39980  -0.39752  -0.39605  -0.39437
 Alpha  occ. eigenvalues --   -0.39302  -0.39187  -0.39051  -0.38765  -0.38734
 Alpha  occ. eigenvalues --   -0.38590  -0.38473  -0.38289  -0.38153  -0.37764
 Alpha  occ. eigenvalues --   -0.37526  -0.37359  -0.37236  -0.37083  -0.36783
 Alpha  occ. eigenvalues --   -0.36572  -0.36511  -0.36147  -0.36008  -0.35855
 Alpha  occ. eigenvalues --   -0.35636  -0.35448  -0.34644  -0.34555  -0.34493
 Alpha  occ. eigenvalues --   -0.34283  -0.34157  -0.33897  -0.33860  -0.33667
 Alpha  occ. eigenvalues --   -0.33443  -0.33010  -0.32018  -0.31982  -0.31860
 Alpha  occ. eigenvalues --   -0.31679  -0.31422  -0.31090  -0.30722  -0.30350
 Alpha  occ. eigenvalues --   -0.30235  -0.29956  -0.28513  -0.28157  -0.27671
 Alpha  occ. eigenvalues --   -0.27172  -0.26945  -0.26564  -0.25125  -0.21567
 Alpha  occ. eigenvalues --   -0.19807
 Alpha virt. eigenvalues --   -0.06679  -0.03853   0.00707   0.01830   0.03010
 Alpha virt. eigenvalues --    0.03513   0.04613   0.04881   0.05578   0.05904
 Alpha virt. eigenvalues --    0.06780   0.08940   0.09009   0.09534   0.09569

 Mulliken charges:
               1
     1  Mg   0.811789
     2  C    0.033995
     3  C   -0.223072
     4  C   -0.189510
     5  C   -0.145913
     6  N   -0.657700
     7  C    0.296019
     8  C   -0.153336
     9  C   -0.138746
    10  C    0.393905
    11  C   -0.320159
    12  C   -0.146772
    13  C   -0.261678
    14  C    0.580969
    15  O   -0.520994
    16  O   -0.434988
    17  N   -0.739512
    18  C    0.317937
    19  C   -0.000760
    20  C    0.039217
    21  C    0.319588
    22  C   -0.375469
    23  C   -0.103145
    24  C   -0.223232
    25  N   -0.666752
    26  C    0.246332
    27  C    0.099822
    28  C   -0.000253
    29  C    0.278251
    30  C   -0.348249
    31  C   -0.255861
    32  C   -0.296998
    33  N   -0.673009
    34  C    0.242613
    35  C    0.035113
    36  C    0.003199
    37  C    0.289904
    38  C   -0.409161
    39  C    0.357450
    40  O   -0.406131
    41  C   -0.304666
    42  C    0.647279
    43  O   -0.474107
    44  O   -0.443422
    45  C   -0.049208
    46  C    0.005780
    47  C   -0.119458
    48  C    0.083549
    49  C   -0.351151
    50  C   -0.175322
    51  C   -0.183886
    52  C   -0.178854
    53  C   -0.044274
    54  C   -0.311671
    55  C   -0.180250
    56  C   -0.161748
    57  C   -0.161646
    58  C   -0.059563
    59  C   -0.311754
    60  C   -0.150641
    61  C   -0.180950
    62  C   -0.162850
    63  C   -0.018886
    64  C   -0.305154
    65  C   -0.321889
    66  H    0.070999
    67  H    0.081491
    68  H    0.089421
    69  H    0.131803
    70  H    0.092046
    71  H    0.107888
    72  H    0.106658
    73  H    0.135910
    74  H    0.135581
    75  H    0.084624
    76  H    0.122075
    77  H    0.125721
    78  H    0.114050
    79  H    0.137591
    80  H    0.103752
    81  H    0.093140
    82  H    0.104607
    83  H    0.101601
    84  H    0.139638
    85  H    0.097134
    86  H    0.107325
    87  H    0.098374
    88  H    0.064174
    89  H    0.085371
    90  H    0.118293
    91  H    0.114132
    92  H    0.121374
    93  H    0.133264
    94  H    0.136471
    95  H    0.169794
    96  H    0.097820
    97  H    0.089168
    98  H    0.125851
    99  H    0.138314
   100  H    0.105790
   101  H    0.087267
   102  H    0.112071
   103  H    0.092636
   104  H    0.142290
   105  H    0.114491
   106  H    0.076499
   107  H    0.107367
   108  H    0.098068
   109  H    0.094982
   110  H    0.071109
   111  H    0.085092
   112  H    0.083581
   113  H    0.089802
   114  H    0.108568
   115  H    0.087296
   116  H    0.084746
   117  H    0.091074
   118  H    0.082291
   119  H    0.071995
   120  H    0.094224
   121  H    0.083602
   122  H    0.094756
   123  H    0.082441
   124  H    0.093261
   125  H    0.098953
   126  H    0.068462
   127  H    0.094211
   128  H    0.081323
   129  H    0.064780
   130  H    0.084136
   131  H    0.092818
   132  H    0.096734
   133  H    0.091797
   134  H    0.083194
   135  H    0.080745
   136  H    0.106716
   137  H    0.105414
 Sum of Mulliken charges =  -0.00000

 Dipole moment (field-independent basis, Debye):
    X=              2.3755    Y=              3.5752    Z=             -0.0649  Tot=              4.2929
 Quadrupole moment (field-independent basis, Debye-Ang):
   XX=           -349.1393   YY=           -388.9048   ZZ=           -398.8869
   XY=            -12.6337   XZ=             18.4554   YZ=              0.2737

 Normal termination of Gaussian 16 at Tue Sep 10 17:36:15 2019.
