 Gaussian 16, Revision A.03,
 Gaussian 16:  ES64L-G16RevA.03 25-Dec-2016

 ----------------------------------------------------------------------
 # td=(NStates=1) iop(3/107=0140000000,3/108=0140000000) CAM-B3LYP/6-31
 G(d,p)
 ----------------------------------------------------------------------

 --
 TD
 --
 Symbolic Z-matrix:
 Charge =  0 Multiplicity = 1

                         Standard orientation:
 ---------------------------------------------------------------------
 Center     Atomic      Atomic             Coordinates (Angstroms)
 Number     Number       Type             X           Y           Z
 ---------------------------------------------------------------------
      1         12           0       -7.088510    0.625429    0.059068
      2          6           0       -4.898982   -2.011862    0.635990
      3          6           0       -4.900495    2.955526    1.243693
      4          6           0       -9.441347    3.175371   -0.565623
      5          6           0       -9.516108   -1.723907   -1.010060
      6          7           0       -5.264122    0.468029    0.710828
      7          6           0       -4.408998   -0.674612    0.841276
      8          6           0       -3.007195   -0.334123    1.206349
      9          6           0       -3.213273    1.209801    1.596876
     10          6           0       -4.495326    1.554793    1.171745
     11          6           0       -3.085284    1.338252    3.115617
     12          6           0       -1.939058   -0.525537    0.162825
     13          6           0       -0.490349   -0.403103    0.662220
     14          6           0        0.522031   -0.777233   -0.452218
     15          8           0        0.266597   -1.092096   -1.552104
     16          8           0        1.838429   -0.451008   -0.010131
     17          7           0       -7.109018    2.744963    0.315041
     18          6           0       -6.098370    3.357608    0.859717
     19          6           0       -6.509180    4.803521    0.699814
     20          6           0       -7.782821    4.852358    0.338288
     21          6           0       -8.191715    3.474762    0.031104
     22          6           0       -5.633968    5.938910    1.184323
     23          6           0       -8.599090    5.978119    0.208705
     24          6           0       -8.510082    7.210071    0.813668
     25          7           0       -9.021852    0.664817   -0.580516
     26          6           0       -9.823666    1.814285   -0.825818
     27          6           0      -11.178445    1.461710   -1.297289
     28          6           0      -11.227371    0.107468   -1.390002
     29          6           0       -9.940472   -0.384921   -1.023129
     30          6           0      -12.300433    2.383905   -1.458457
     31          6           0      -12.379822   -0.808168   -1.739012
     32          6           0      -12.224363   -1.205238   -3.278303
     33          7           0       -7.231139   -1.455067   -0.160611
     34          6           0       -8.325769   -2.291516   -0.554347
     35          6           0       -7.835003   -3.614662   -0.392870
     36          6           0       -6.565400   -3.586509    0.056753
     37          6           0       -6.215412   -2.230995    0.115174
     38          6           0       -8.698348   -4.792509   -0.931995
     39          6           0       -5.344938   -4.390575    0.243185
     40          8           0       -5.206980   -5.577944    0.160663
     41          6           0       -4.227897   -3.290637    0.569687
     42          6           0       -3.562142   -3.689281    1.872298
     43          8           0       -3.840280   -3.157295    2.979331
     44          8           0       -2.698458   -4.675194    1.757700
     45          6           0       -2.018575   -5.109063    2.913316
     46          6           0        2.789133   -0.649226   -1.118653
     47          6           0        4.193088   -0.538938   -0.470402
     48          6           0        5.203384    0.333710   -0.886825
     49          6           0        5.119513    1.086155   -2.248465
     50          6           0        6.519308    0.255656   -0.172867
     51          6           0        7.698834   -0.294467   -0.954259
     52          6           0        9.032384   -0.132729   -0.138677
     53          6           0       10.226308   -0.657068   -0.811543
     54          6           0       10.124537   -2.190190   -1.162194
     55          6           0       11.489628   -0.326686    0.052824
     56          6           0       12.903874   -0.452722   -0.656621
     57          6           0       13.954430   -0.174132    0.326572
     58          6           0       15.489225   -0.218397   -0.355770
     59          6           0       15.695756   -1.581419   -0.852345
     60          6           0       16.520865    0.385508    0.505846
     61          6           0       17.900282    0.635196   -0.356493
     62          6           0       18.908481    1.290269    0.606424
     63          6           0       20.402486    1.449486    0.003621
     64          6           0       20.233370    2.431947   -1.246067
     65          6           0       21.344238    1.901551    1.120114
     66          1           0       -4.184477    3.748358    1.454572
     67          1           0      -10.256274    3.957498   -0.856783
     68          1           0      -10.282363   -2.528601   -1.354821
     69          1           0       -2.582362   -0.988237    2.083456
     70          1           0       -2.412964    1.663677    1.068934
     71          1           0       -2.130979    0.981019    3.501736
     72          1           0       -3.190504    2.328013    3.283168
     73          1           0       -3.891470    0.893472    3.808158
     74          1           0       -2.089248   -1.445081   -0.382243
     75          1           0       -1.926936    0.175146   -0.645143
     76          1           0       -0.436250    0.621121    0.951469
     77          1           0       -0.419903   -0.975227    1.576512
     78          1           0       -6.031185    6.997031    0.669289
     79          1           0       -5.572211    5.760772    2.408274
     80          1           0       -4.795000    5.660235    0.763098
     81          1           0       -9.479519    5.812655   -0.363326
     82          1           0       -9.130470    8.145140    0.657554
     83          1           0       -7.921495    7.146685    1.788914
     84          1           0      -12.057237    2.912689   -2.355390
     85          1           0      -13.312867    1.865714   -1.730403
     86          1           0      -12.629434    2.813420   -0.718946
     87          1           0      -12.280989   -1.743965   -1.075459
     88          1           0      -13.241006   -0.031987   -1.554588
     89          1           0      -13.276752   -1.846980   -3.540044
     90          1           0      -12.427770   -0.326469   -3.888411
     91          1           0      -11.342578   -1.710783   -3.405248
     92          1           0       -9.460070   -4.377064   -1.863978
     93          1           0       -8.003713   -5.746615   -1.335670
     94          1           0       -9.362807   -5.313467   -0.138103
     95          1           0       -3.465020   -3.513983   -0.236770
     96          1           0       -1.662642   -4.245979    3.617306
     97          1           0       -2.604382   -5.622226    3.629500
     98          1           0       -1.160097   -5.825284    2.558495
     99          1           0        2.672682   -1.760010   -1.728403
    100          1           0        2.520767    0.078310   -1.926977
    101          1           0        4.324120   -1.134291    0.366861
    102          1           0        4.133871    1.008063   -2.839136
    103          1           0        5.238459    2.200001   -2.036260
    104          1           0        6.041247    0.776469   -2.762144
    105          1           0        6.756651    1.260969    0.391535
    106          1           0        6.363342   -0.197720    0.836789
    107          1           0        7.586834   -1.311127   -1.331314
    108          1           0        7.799524    0.309127   -1.685653
    109          1           0        9.097215    0.900714    0.105109
    110          1           0        8.865066   -0.733742    0.848341
    111          1           0       10.436466   -0.143140   -1.818171
    112          1           0        9.147591   -2.426078   -1.743439
    113          1           0       11.073909   -2.438565   -1.718476
    114          1           0       10.078533   -2.735917   -0.222197
    115          1           0       11.201049    0.684849    0.394846
    116          1           0       11.533937   -1.095890    0.962348
    117          1           0       12.959135   -1.438011   -1.062344
    118          1           0       12.870021    0.347336   -1.545694
    119          1           0       14.010247    0.837434    0.923096
    120          1           0       14.033186   -1.121624    1.016067
    121          1           0       15.148545    0.548626   -1.259478
    122          1           0       15.716937   -2.075979    0.098576
    123          1           0       14.701906   -1.937618   -1.376726
    124          1           0       16.483809   -1.990663   -1.504524
    125          1           0       16.156166    1.463488    0.957507
    126          1           0       16.989567   -0.249772    1.311862
    127          1           0       18.300431   -0.411837   -0.531231
    128          1           0       17.795424    1.074651   -1.197845
    129          1           0       18.663487    2.458313    0.791342
    130          1           0       18.822199    0.857837    1.636032
    131          1           0       20.575722    0.532958   -0.344567
    132          1           0       19.750751    3.355910   -1.037133
    133          1           0       21.338125    2.621814   -1.663248
    134          1           0       19.756838    1.813113   -2.077823
    135          1           0       21.050844    1.326566    2.259544
    136          1           0       22.357750    1.595193    0.745318
    137          1           0       21.150464    3.120437    1.160488
 ---------------------------------------------------------------------

 SCF Done:  E(RCAM-B3LYP) =  -2933.42996339     A.U. after   15 cycles

 Excitation energies and oscillator strengths:

 Excited State   1:      Singlet-A      2.0573 eV  602.64 nm  f=0.2404  <S**2>=0.000
     240 -> 243       -0.22479
     241 -> 242        0.66787
 This state for optimization and/or second-order correction.
 Total Energy, E(TD-HF/TD-DFT) =  -2933.35435755
 Copying the excited state density for this state as the 1-particle RhoCI density.

 The electronic state is 1-A.
 Alpha  occ. eigenvalues --  -46.79436 -19.23156 -19.21640 -19.18789 -19.16301
 Alpha  occ. eigenvalues --  -19.15508 -14.39023 -14.35684 -14.35196 -14.34287
 Alpha  occ. eigenvalues --  -10.35390 -10.34343 -10.30467 -10.28772 -10.27955
 Alpha  occ. eigenvalues --  -10.27813 -10.27071 -10.25652 -10.25548 -10.25055
 Alpha  occ. eigenvalues --  -10.24615 -10.24568 -10.24208 -10.24069 -10.23923
 Alpha  occ. eigenvalues --  -10.23905 -10.23810 -10.23696 -10.23624 -10.23613
 Alpha  occ. eigenvalues --  -10.23449 -10.23191 -10.23070 -10.23063 -10.22959
 Alpha  occ. eigenvalues --  -10.22811 -10.22621 -10.22591 -10.22510 -10.22421
 Alpha  occ. eigenvalues --  -10.22371 -10.22361 -10.22354 -10.22290 -10.22038
 Alpha  occ. eigenvalues --  -10.22018 -10.21939 -10.21923 -10.21802 -10.21764
 Alpha  occ. eigenvalues --  -10.21615 -10.21595 -10.21584 -10.21460 -10.21456
 Alpha  occ. eigenvalues --  -10.21392 -10.21340 -10.21142 -10.21117 -10.20636
 Alpha  occ. eigenvalues --  -10.20582 -10.20526 -10.20078 -10.20059 -10.19670
 Alpha  occ. eigenvalues --   -3.08156  -1.83091  -1.82661  -1.82541  -1.14219
 Alpha  occ. eigenvalues --   -1.13319  -1.07036  -1.04935  -1.02058  -1.00706
 Alpha  occ. eigenvalues --   -0.98816  -0.97811  -0.95092  -0.87676  -0.85969
 Alpha  occ. eigenvalues --   -0.85789  -0.85075  -0.84862  -0.84254  -0.83701
 Alpha  occ. eigenvalues --   -0.83496  -0.82869  -0.82394  -0.81773  -0.81015
 Alpha  occ. eigenvalues --   -0.79806  -0.79067  -0.78869  -0.77695  -0.77498
 Alpha  occ. eigenvalues --   -0.76848  -0.76408  -0.75644  -0.74322  -0.73590
 Alpha  occ. eigenvalues --   -0.72844  -0.72255  -0.71760  -0.71082  -0.70147
 Alpha  occ. eigenvalues --   -0.69842  -0.69707  -0.69330  -0.68508  -0.67666
 Alpha  occ. eigenvalues --   -0.66933  -0.65886  -0.65096  -0.64025  -0.63592
 Alpha  occ. eigenvalues --   -0.63251  -0.62727  -0.61143  -0.60919  -0.60382
 Alpha  occ. eigenvalues --   -0.60330  -0.58819  -0.58642  -0.58403  -0.57856
 Alpha  occ. eigenvalues --   -0.57041  -0.56546  -0.56533  -0.55665  -0.55261
 Alpha  occ. eigenvalues --   -0.54686  -0.54130  -0.53710  -0.53074  -0.52553
 Alpha  occ. eigenvalues --   -0.52249  -0.51573  -0.51247  -0.50989  -0.50657
 Alpha  occ. eigenvalues --   -0.50546  -0.50528  -0.50289  -0.50014  -0.49550
 Alpha  occ. eigenvalues --   -0.49535  -0.49089  -0.48894  -0.48342  -0.48266
 Alpha  occ. eigenvalues --   -0.47700  -0.47353  -0.47197  -0.46819  -0.46665
 Alpha  occ. eigenvalues --   -0.46641  -0.46406  -0.46197  -0.46149  -0.45953
 Alpha  occ. eigenvalues --   -0.45629  -0.45251  -0.44879  -0.44688  -0.44379
 Alpha  occ. eigenvalues --   -0.44326  -0.44141  -0.43902  -0.43774  -0.43602
 Alpha  occ. eigenvalues --   -0.43340  -0.42915  -0.42796  -0.42778  -0.42521
 Alpha  occ. eigenvalues --   -0.42462  -0.42360  -0.42043  -0.41772  -0.41556
 Alpha  occ. eigenvalues --   -0.41362  -0.41215  -0.40940  -0.40826  -0.40767
 Alpha  occ. eigenvalues --   -0.40366  -0.40047  -0.40001  -0.39884  -0.39567
 Alpha  occ. eigenvalues --   -0.39412  -0.39195  -0.38870  -0.38796  -0.38681
 Alpha  occ. eigenvalues --   -0.38565  -0.38342  -0.38279  -0.38161  -0.38066
 Alpha  occ. eigenvalues --   -0.37890  -0.37696  -0.37616  -0.37302  -0.37252
 Alpha  occ. eigenvalues --   -0.37083  -0.37051  -0.36824  -0.36499  -0.36371
 Alpha  occ. eigenvalues --   -0.36000  -0.35515  -0.34920  -0.34832  -0.34807
 Alpha  occ. eigenvalues --   -0.34633  -0.34378  -0.34273  -0.33888  -0.33591
 Alpha  occ. eigenvalues --   -0.33532  -0.33120  -0.32700  -0.32610  -0.32469
 Alpha  occ. eigenvalues --   -0.32312  -0.31974  -0.31616  -0.31493  -0.29893
 Alpha  occ. eigenvalues --   -0.29744  -0.29187  -0.28283  -0.27871  -0.26850
 Alpha  occ. eigenvalues --   -0.26654  -0.25941  -0.25699  -0.24118  -0.22233
 Alpha  occ. eigenvalues --   -0.19866
 Alpha virt. eigenvalues --   -0.06744  -0.04152  -0.00233   0.01292   0.02953
 Alpha virt. eigenvalues --    0.03577   0.03778   0.04084   0.05007   0.05268
 Alpha virt. eigenvalues --    0.06488   0.08113   0.09161   0.09319   0.09538

 Mulliken charges:
               1
     1  Mg   0.800660
     2  C    0.146467
     3  C   -0.189961
     4  C   -0.186524
     5  C   -0.201155
     6  N   -0.661793
     7  C    0.292646
     8  C   -0.149067
     9  C   -0.173397
    10  C    0.355261
    11  C   -0.307903
    12  C   -0.191347
    13  C   -0.276368
    14  C    0.608519
    15  O   -0.415272
    16  O   -0.492041
    17  N   -0.727423
    18  C    0.378448
    19  C   -0.054241
    20  C    0.045164
    21  C    0.344149
    22  C   -0.351128
    23  C   -0.077600
    24  C   -0.279051
    25  N   -0.668238
    26  C    0.299325
    27  C   -0.008526
    28  C    0.078282
    29  C    0.271290
    30  C   -0.367326
    31  C   -0.237683
    32  C   -0.289462
    33  N   -0.725730
    34  C    0.281020
    35  C    0.001786
    36  C    0.044499
    37  C    0.275699
    38  C   -0.363953
    39  C    0.367223
    40  O   -0.442233
    41  C   -0.373959
    42  C    0.622370
    43  O   -0.506377
    44  O   -0.408423
    45  C   -0.096125
    46  C    0.017095
    47  C   -0.115903
    48  C    0.114684
    49  C   -0.364662
    50  C   -0.245188
    51  C   -0.161504
    52  C   -0.172630
    53  C   -0.059828
    54  C   -0.310161
    55  C   -0.162747
    56  C   -0.164799
    57  C   -0.171434
    58  C   -0.034956
    59  C   -0.305319
    60  C   -0.169673
    61  C   -0.171205
    62  C   -0.162496
    63  C   -0.052649
    64  C   -0.312848
    65  C   -0.272896
    66  H    0.091414
    67  H    0.105797
    68  H    0.077662
    69  H    0.116229
    70  H    0.115567
    71  H    0.111143
    72  H    0.116626
    73  H    0.127055
    74  H    0.119526
    75  H    0.110320
    76  H    0.138923
    77  H    0.131448
    78  H    0.111218
    79  H    0.103822
    80  H    0.126323
    81  H    0.074805
    82  H    0.107571
    83  H    0.105762
    84  H    0.132193
    85  H    0.088983
    86  H    0.138065
    87  H    0.111374
    88  H    0.089496
    89  H    0.069154
    90  H    0.120153
    91  H    0.128537
    92  H    0.084140
    93  H    0.115747
    94  H    0.123277
    95  H    0.156506
    96  H    0.117035
    97  H    0.142576
    98  H    0.115915
    99  H    0.093785
   100  H    0.114330
   101  H    0.092538
   102  H    0.110269
   103  H    0.109536
   104  H    0.124339
   105  H    0.080469
   106  H    0.097013
   107  H    0.101043
   108  H    0.113595
   109  H    0.095367
   110  H    0.077101
   111  H    0.069590
   112  H    0.092388
   113  H    0.098494
   114  H    0.105986
   115  H    0.089237
   116  H    0.069629
   117  H    0.111409
   118  H    0.074825
   119  H    0.087452
   120  H    0.074928
   121  H    0.049347
   122  H    0.104240
   123  H    0.082366
   124  H    0.106443
   125  H    0.071585
   126  H    0.090698
   127  H    0.084537
   128  H    0.104185
   129  H    0.053240
   130  H    0.077081
   131  H    0.096993
   132  H    0.116817
   133  H    0.077507
   134  H    0.104558
   135  H    0.069917
   136  H    0.105862
   137  H    0.085557
 Sum of Mulliken charges =  -0.00000

 Dipole moment (field-independent basis, Debye):
    X=              1.9782    Y=              4.3261    Z=             -0.4611  Tot=              4.7792
 Quadrupole moment (field-independent basis, Debye-Ang):
   XX=           -349.1337   YY=           -403.6746   ZZ=           -398.2423
   XY=            -35.7497   XZ=              5.5824   YZ=             -2.6714

 Normal termination of Gaussian 16 at Tue Sep 17 19:05:39 2019.
