 Gaussian 16, Revision A.03,
 Gaussian 16:  ES64L-G16RevA.03 25-Dec-2016

 ----------------------------------------------------------------------
 # td=(NStates=1) iop(3/107=0140000000,3/108=0140000000) CAM-B3LYP/6-31
 G(d,p)
 ----------------------------------------------------------------------

 --
 TD
 --
 Symbolic Z-matrix:
 Charge =  0 Multiplicity = 1

                         Standard orientation:
 ---------------------------------------------------------------------
 Center     Atomic      Atomic             Coordinates (Angstroms)
 Number     Number       Type             X           Y           Z
 ---------------------------------------------------------------------
      1         12           0       -7.142241    0.513765    0.115878
      2          6           0       -4.852445   -1.976827    0.697571
      3          6           0       -4.781580    2.908513    1.124334
      4          6           0       -9.380386    3.079858   -0.398752
      5          6           0       -9.575827   -1.738761   -0.903258
      6          7           0       -5.145778    0.424455    0.915181
      7          6           0       -4.383512   -0.687336    0.886804
      8          6           0       -2.881684   -0.356011    1.206842
      9          6           0       -2.976177    1.058748    1.798523
     10          6           0       -4.403467    1.495665    1.136968
     11          6           0       -3.016008    1.075066    3.472764
     12          6           0       -1.920091   -0.457515    0.031147
     13          6           0       -0.516003   -0.369276    0.437889
     14          6           0        0.505806   -0.496967   -0.756756
     15          8           0        0.235680   -0.907348   -1.839344
     16          8           0        1.757370   -0.315575   -0.318995
     17          7           0       -7.134341    2.629026    0.410768
     18          6           0       -6.045775    3.411029    0.771633
     19          6           0       -6.422656    4.788981    0.701571
     20          6           0       -7.692027    4.916328    0.291099
     21          6           0       -8.109258    3.447860    0.019734
     22          6           0       -5.508507    5.932368    1.149899
     23          6           0       -8.495569    6.085369    0.117643
     24          6           0       -8.327085    7.254666    0.721100
     25          7           0       -9.093545    0.673725   -0.659515
     26          6           0       -9.874377    1.726845   -0.757555
     27          6           0      -11.267303    1.372363   -1.205620
     28          6           0      -11.231033    0.083673   -1.326391
     29          6           0       -9.908204   -0.405644   -0.929269
     30          6           0      -12.364782    2.406461   -1.434727
     31          6           0      -12.383094   -0.766154   -1.592161
     32          6           0      -12.381604   -1.229064   -3.150617
     33          7           0       -7.309154   -1.424302   -0.036280
     34          6           0       -8.299246   -2.297539   -0.563609
     35          6           0       -7.958812   -3.671279   -0.452437
     36          6           0       -6.568125   -3.562484   -0.039682
     37          6           0       -6.279654   -2.239532    0.218356
     38          6           0       -8.766204   -4.728710   -0.873120
     39          6           0       -5.360817   -4.374200    0.248737
     40          8           0       -5.175269   -5.595972    0.180252
     41          6           0       -4.148358   -3.333816    0.625256
     42          6           0       -3.426172   -3.726496    1.856301
     43          8           0       -3.557857   -3.299233    2.989192
     44          8           0       -2.608110   -4.670999    1.678707
     45          6           0       -1.908743   -5.169632    2.758498
     46          6           0        2.816079   -0.526102   -1.359154
     47          6           0        4.162874   -0.307872   -0.628494
     48          6           0        5.205101    0.486638   -1.016106
     49          6           0        5.295946    1.352365   -2.252645
     50          6           0        6.484778    0.430341   -0.222073
     51          6           0        7.614967   -0.210895   -0.915087
     52          6           0        8.882569   -0.322177   -0.108985
     53          6           0       10.233233   -0.653981   -0.914913
     54          6           0       10.112370   -2.093501   -1.373561
     55          6           0       11.369344   -0.345415   -0.018078
     56          6           0       12.743541   -0.478638   -0.730931
     57          6           0       13.889320   -0.022404    0.196334
     58          6           0       15.355817   -0.193077   -0.566427
     59          6           0       15.679627   -1.607391   -0.865804
     60          6           0       16.330200    0.272861    0.402797
     61          6           0       17.760065    0.702427   -0.163452
     62          6           0       18.915119    1.211790    0.786413
     63          6           0       20.181523    1.276653    0.253307
     64          6           0       20.334734    2.192958   -1.007442
     65          6           0       21.129057    1.826084    1.387746
     66          1           0       -3.970263    3.534064    1.459433
     67          1           0      -10.172389    3.827130   -0.266844
     68          1           0      -10.266720   -2.459052   -1.175160
     69          1           0       -2.505721   -1.234766    1.889095
     70          1           0       -2.358786    1.831705    1.447520
     71          1           0       -2.227211    0.319811    3.850386
     72          1           0       -2.812061    2.149561    3.844106
     73          1           0       -4.060700    0.716070    3.851746
     74          1           0       -2.053358   -1.435272   -0.386508
     75          1           0       -2.222882    0.430058   -0.654892
     76          1           0       -0.043710    0.617449    1.054401
     77          1           0       -0.160281   -0.862020    1.384894
     78          1           0       -5.556419    6.767720    0.426523
     79          1           0       -5.982099    6.495771    2.104351
     80          1           0       -4.582241    5.611286    1.538073
     81          1           0       -9.216312    5.972501   -0.607325
     82          1           0       -9.070243    8.008424    0.633717
     83          1           0       -7.533309    7.355019    1.541007
     84          1           0      -12.051528    3.263616   -2.084379
     85          1           0      -13.434764    1.876942   -1.465022
     86          1           0      -12.650664    3.178387   -0.500316
     87          1           0      -12.517071   -1.599559   -1.155281
     88          1           0      -13.319029   -0.143975   -1.541983
     89          1           0      -13.171905   -2.060929   -3.164307
     90          1           0      -12.623551   -0.234598   -3.774919
     91          1           0      -11.522527   -1.698617   -3.164220
     92          1           0       -9.431057   -4.443946   -1.593813
     93          1           0       -8.134312   -5.624292   -1.268572
     94          1           0       -9.401954   -5.427469    0.063647
     95          1           0       -3.486393   -3.479184   -0.151784
     96          1           0       -1.324742   -4.419926    3.208683
     97          1           0       -2.651263   -5.595880    3.529940
     98          1           0       -1.398439   -6.227746    2.407629
     99          1           0        2.699431   -1.459877   -1.641325
    100          1           0        2.768012   -0.044461   -2.302753
    101          1           0        4.201822   -0.779675    0.258183
    102          1           0        4.280122    1.538337   -2.748598
    103          1           0        5.674273    2.238424   -1.996687
    104          1           0        5.841145    0.825703   -2.865705
    105          1           0        6.709947    1.416971   -0.027900
    106          1           0        6.305111    0.068511    0.729903
    107          1           0        7.208522   -1.166116   -1.478759
    108          1           0        7.886771    0.590083   -1.583143
    109          1           0        9.137920    0.513575    0.317017
    110          1           0        8.787662   -1.173137    0.586705
    111          1           0       10.194951    0.109903   -1.939583
    112          1           0        9.303564   -2.090282   -2.335340
    113          1           0       10.906470   -2.411653   -1.950196
    114          1           0       10.063822   -2.841394   -0.571403
    115          1           0       11.212196    0.744680    0.344015
    116          1           0       11.489671   -1.079478    0.804262
    117          1           0       12.796038   -1.580011   -1.015224
    118          1           0       12.743346    0.139217   -1.755016
    119          1           0       13.763142    1.032482    0.489035
    120          1           0       13.933801   -0.562141    1.059217
    121          1           0       15.203854    0.354008   -1.545528
    122          1           0       15.712734   -2.312829    0.122889
    123          1           0       14.984032   -1.914181   -1.795645
    124          1           0       16.732427   -1.683473   -1.315689
    125          1           0       15.921579    1.300329    1.120700
    126          1           0       16.608862   -0.276084    1.403166
    127          1           0       18.100349   -0.278160   -0.725535
    128          1           0       17.623527    1.323714   -0.939741
    129          1           0       18.308454    2.108107    1.277013
    130          1           0       18.840235    0.583496    1.684032
    131          1           0       20.576036    0.127923    0.164899
    132          1           0       19.687672    3.013906   -0.883438
    133          1           0       21.418402    2.389353   -1.092125
    134          1           0       20.011270    1.686797   -2.035930
    135          1           0       21.174863    1.006462    2.093526
    136          1           0       22.181660    2.038079    1.088631
    137          1           0       20.667421    2.838818    1.769166
 ---------------------------------------------------------------------

 SCF Done:  E(RCAM-B3LYP) =  -2933.42863391     A.U. after   16 cycles

 Excitation energies and oscillator strengths:

 Excited State   1:      Singlet-A      2.1504 eV  576.56 nm  f=0.2304  <S**2>=0.000
     240 -> 242       -0.13638
     240 -> 243        0.21557
     241 -> 242        0.65162
 This state for optimization and/or second-order correction.
 Total Energy, E(TD-HF/TD-DFT) =  -2933.34960816
 Copying the excited state density for this state as the 1-particle RhoCI density.

 The electronic state is 1-A.
 Alpha  occ. eigenvalues --  -46.81240 -19.21663 -19.21419 -19.16120 -19.15305
 Alpha  occ. eigenvalues --  -19.13893 -14.38105 -14.35999 -14.35831 -14.35148
 Alpha  occ. eigenvalues --  -10.33882 -10.32678 -10.30277 -10.27680 -10.27347
 Alpha  occ. eigenvalues --  -10.26350 -10.26178 -10.26071 -10.25989 -10.25921
 Alpha  occ. eigenvalues --  -10.24913 -10.24507 -10.24303 -10.24294 -10.24264
 Alpha  occ. eigenvalues --  -10.24103 -10.23860 -10.23508 -10.23484 -10.23266
 Alpha  occ. eigenvalues --  -10.23129 -10.23083 -10.23017 -10.22997 -10.22820
 Alpha  occ. eigenvalues --  -10.22793 -10.22787 -10.22739 -10.22706 -10.22685
 Alpha  occ. eigenvalues --  -10.22543 -10.22533 -10.22494 -10.22475 -10.22378
 Alpha  occ. eigenvalues --  -10.22370 -10.22243 -10.22205 -10.22065 -10.21567
 Alpha  occ. eigenvalues --  -10.21540 -10.21498 -10.21117 -10.21044 -10.21001
 Alpha  occ. eigenvalues --  -10.20990 -10.20879 -10.20717 -10.20677 -10.20663
 Alpha  occ. eigenvalues --  -10.20634 -10.20386 -10.19880 -10.19631 -10.19441
 Alpha  occ. eigenvalues --   -3.09702  -1.84647  -1.84175  -1.84103  -1.16640
 Alpha  occ. eigenvalues --   -1.12709  -1.04145  -1.03911  -1.02494  -1.00161
 Alpha  occ. eigenvalues --   -0.99783  -0.98863  -0.97835  -0.86825  -0.86117
 Alpha  occ. eigenvalues --   -0.85695  -0.85461  -0.85181  -0.84977  -0.84797
 Alpha  occ. eigenvalues --   -0.83890  -0.83315  -0.82802  -0.81849  -0.80825
 Alpha  occ. eigenvalues --   -0.79922  -0.79010  -0.78936  -0.78232  -0.77708
 Alpha  occ. eigenvalues --   -0.76986  -0.76565  -0.75891  -0.75163  -0.73202
 Alpha  occ. eigenvalues --   -0.72882  -0.72598  -0.72347  -0.71409  -0.70851
 Alpha  occ. eigenvalues --   -0.70607  -0.70216  -0.69342  -0.68971  -0.67757
 Alpha  occ. eigenvalues --   -0.66737  -0.65937  -0.65516  -0.64754  -0.64018
 Alpha  occ. eigenvalues --   -0.62814  -0.62545  -0.61074  -0.60610  -0.59941
 Alpha  occ. eigenvalues --   -0.59674  -0.59228  -0.58710  -0.58461  -0.57568
 Alpha  occ. eigenvalues --   -0.57034  -0.56618  -0.56567  -0.56045  -0.55745
 Alpha  occ. eigenvalues --   -0.54929  -0.54677  -0.53787  -0.53715  -0.53109
 Alpha  occ. eigenvalues --   -0.52381  -0.52165  -0.51700  -0.51625  -0.50811
 Alpha  occ. eigenvalues --   -0.50221  -0.50029  -0.49866  -0.49785  -0.49318
 Alpha  occ. eigenvalues --   -0.49203  -0.48942  -0.48912  -0.48784  -0.48318
 Alpha  occ. eigenvalues --   -0.47783  -0.47678  -0.47335  -0.47197  -0.47138
 Alpha  occ. eigenvalues --   -0.46754  -0.46603  -0.46146  -0.46076  -0.45948
 Alpha  occ. eigenvalues --   -0.45683  -0.45525  -0.45226  -0.45141  -0.44830
 Alpha  occ. eigenvalues --   -0.44524  -0.44371  -0.44226  -0.44187  -0.44050
 Alpha  occ. eigenvalues --   -0.43671  -0.43398  -0.43149  -0.42877  -0.42719
 Alpha  occ. eigenvalues --   -0.42312  -0.42133  -0.42046  -0.41762  -0.41689
 Alpha  occ. eigenvalues --   -0.41580  -0.41294  -0.41120  -0.40919  -0.40824
 Alpha  occ. eigenvalues --   -0.40670  -0.40250  -0.39912  -0.39619  -0.39517
 Alpha  occ. eigenvalues --   -0.39506  -0.39392  -0.39174  -0.38893  -0.38781
 Alpha  occ. eigenvalues --   -0.38647  -0.38427  -0.38218  -0.38089  -0.37895
 Alpha  occ. eigenvalues --   -0.37867  -0.37657  -0.37489  -0.37359  -0.36911
 Alpha  occ. eigenvalues --   -0.36873  -0.36324  -0.35988  -0.35860  -0.35777
 Alpha  occ. eigenvalues --   -0.35628  -0.35616  -0.35496  -0.35257  -0.34656
 Alpha  occ. eigenvalues --   -0.34383  -0.34199  -0.33982  -0.33783  -0.33498
 Alpha  occ. eigenvalues --   -0.33268  -0.33249  -0.32829  -0.32640  -0.32081
 Alpha  occ. eigenvalues --   -0.31722  -0.31585  -0.31078  -0.30745  -0.30014
 Alpha  occ. eigenvalues --   -0.29776  -0.29215  -0.28502  -0.27975  -0.26932
 Alpha  occ. eigenvalues --   -0.26677  -0.26097  -0.25812  -0.25710  -0.21580
 Alpha  occ. eigenvalues --   -0.20486
 Alpha virt. eigenvalues --   -0.07047  -0.03632   0.00295   0.02153   0.04166
 Alpha virt. eigenvalues --    0.04592   0.04728   0.04858   0.05115   0.05643
 Alpha virt. eigenvalues --    0.06155   0.08293   0.08724   0.09262   0.09296

 Mulliken charges:
               1
     1  Mg   0.832896
     2  C    0.076452
     3  C   -0.205731
     4  C   -0.213575
     5  C   -0.162188
     6  N   -0.606102
     7  C    0.306972
     8  C   -0.170146
     9  C   -0.120764
    10  C    0.285188
    11  C   -0.305113
    12  C   -0.138788
    13  C   -0.274742
    14  C    0.615787
    15  O   -0.461262
    16  O   -0.480485
    17  N   -0.692554
    18  C    0.332009
    19  C    0.022500
    20  C    0.029032
    21  C    0.320672
    22  C   -0.376681
    23  C   -0.054199
    24  C   -0.242273
    25  N   -0.665648
    26  C    0.281602
    27  C    0.063670
    28  C    0.073326
    29  C    0.302860
    30  C   -0.387816
    31  C   -0.263009
    32  C   -0.311001
    33  N   -0.756314
    34  C    0.212346
    35  C    0.120098
    36  C   -0.014227
    37  C    0.309236
    38  C   -0.401418
    39  C    0.344537
    40  O   -0.477825
    41  C   -0.320246
    42  C    0.598824
    43  O   -0.511883
    44  O   -0.369467
    45  C   -0.083740
    46  C    0.012660
    47  C   -0.131261
    48  C    0.084905
    49  C   -0.353474
    50  C   -0.221569
    51  C   -0.167118
    52  C   -0.145771
    53  C   -0.049027
    54  C   -0.305195
    55  C   -0.160092
    56  C   -0.184337
    57  C   -0.167508
    58  C   -0.048831
    59  C   -0.284479
    60  C   -0.153626
    61  C   -0.180895
    62  C   -0.148923
    63  C   -0.050245
    64  C   -0.306839
    65  C   -0.303228
    66  H    0.080582
    67  H    0.083331
    68  H    0.072980
    69  H    0.104074
    70  H    0.102881
    71  H    0.116743
    72  H    0.100893
    73  H    0.127286
    74  H    0.127426
    75  H    0.101905
    76  H    0.090977
    77  H    0.137491
    78  H    0.136608
    79  H    0.101971
    80  H    0.116597
    81  H    0.089531
    82  H    0.105357
    83  H    0.090218
    84  H    0.136265
    85  H    0.111515
    86  H    0.088142
    87  H    0.114258
    88  H    0.093228
    89  H    0.091063
    90  H    0.108300
    91  H    0.125837
    92  H    0.125967
    93  H    0.138897
    94  H    0.081162
    95  H    0.159083
    96  H    0.131585
    97  H    0.122903
    98  H    0.103726
    99  H    0.134953
   100  H    0.119648
   101  H    0.082608
   102  H    0.099666
   103  H    0.123121
   104  H    0.142931
   105  H    0.097041
   106  H    0.096763
   107  H    0.088505
   108  H    0.093811
   109  H    0.086240
   110  H    0.085744
   111  H    0.040105
   112  H    0.075693
   113  H    0.112524
   114  H    0.105377
   115  H    0.079440
   116  H    0.094259
   117  H    0.094114
   118  H    0.067456
   119  H    0.096312
   120  H    0.100476
   121  H    0.092793
   122  H    0.088640
   123  H    0.081781
   124  H    0.102218
   125  H    0.014999
   126  H    0.090579
   127  H    0.058393
   128  H    0.106294
   129  H    0.074259
   130  H    0.087438
   131  H    0.071934
   132  H    0.118660
   133  H    0.104980
   134  H    0.086372
   135  H    0.106078
   136  H    0.092976
   137  H    0.090076
 Sum of Mulliken charges =  -0.00000

 Dipole moment (field-independent basis, Debye):
    X=              1.7838    Y=              5.7271    Z=             -0.0808  Tot=              5.9990
 Quadrupole moment (field-independent basis, Debye-Ang):
   XX=           -323.0373   YY=           -394.9553   ZZ=           -402.5978
   XY=            -33.7541   XZ=             11.5271   YZ=              1.6438

 Normal termination of Gaussian 16 at Sun Sep 22 08:56:03 2019.
