 Gaussian 16, Revision A.03,
 Gaussian 16:  ES64L-G16RevA.03 25-Dec-2016

 ----------------------------------------------------------------------
 # td=(NStates=1) iop(3/107=0140000000,3/108=0140000000) CAM-B3LYP/6-31
 G(d,p)
 ----------------------------------------------------------------------

 --
 TD
 --
 Symbolic Z-matrix:
 Charge =  0 Multiplicity = 1

                         Standard orientation:
 ---------------------------------------------------------------------
 Center     Atomic      Atomic             Coordinates (Angstroms)
 Number     Number       Type             X           Y           Z
 ---------------------------------------------------------------------
      1         12           0       -7.137486    0.700517    0.151297
      2          6           0       -4.883893   -2.055691    0.415552
      3          6           0       -4.752355    2.805965    1.165843
      4          6           0       -9.316067    3.162593   -0.453755
      5          6           0       -9.635312   -1.633202   -0.696263
      6          7           0       -5.087443    0.420668    0.692645
      7          6           0       -4.363352   -0.756041    0.709139
      8          6           0       -2.889768   -0.430438    1.172152
      9          6           0       -3.036848    1.016148    1.613872
     10          6           0       -4.357460    1.433708    1.124812
     11          6           0       -2.934815    1.164142    3.077161
     12          6           0       -1.962430   -0.646461   -0.007729
     13          6           0       -0.408668   -0.644876    0.360283
     14          6           0        0.475486   -0.814751   -0.768705
     15          8           0        0.228004   -0.958754   -1.927660
     16          8           0        1.730699   -0.497666   -0.240559
     17          7           0       -7.010372    2.681513    0.357620
     18          6           0       -5.993690    3.453141    0.763839
     19          6           0       -6.349297    4.805865    0.792310
     20          6           0       -7.621607    4.843701    0.288432
     21          6           0       -8.122715    3.486825    0.046276
     22          6           0       -5.426607    5.821163    1.220391
     23          6           0       -8.426805    6.035061    0.216251
     24          6           0       -8.365176    7.293356    0.724654
     25          7           0       -9.085307    0.768088   -0.401300
     26          6           0       -9.821205    1.870268   -0.684826
     27          6           0      -11.079179    1.636735   -1.247771
     28          6           0      -11.212516    0.226924   -1.188779
     29          6           0       -9.896341   -0.270550   -0.726719
     30          6           0      -12.182726    2.568838   -1.562085
     31          6           0      -12.392760   -0.742646   -1.589193
     32          6           0      -12.140415   -1.413638   -2.991298
     33          7           0       -7.235940   -1.365480   -0.049467
     34          6           0       -8.392455   -2.228985   -0.325913
     35          6           0       -7.834926   -3.585500   -0.268318
     36          6           0       -6.629436   -3.510378    0.070597
     37          6           0       -6.215732   -2.168384    0.136231
     38          6           0       -8.695860   -4.782512   -0.740975
     39          6           0       -5.466176   -4.298574    0.161273
     40          8           0       -5.381303   -5.534620    0.161444
     41          6           0       -4.182856   -3.318874    0.467435
     42          6           0       -3.510982   -3.699335    1.795875
     43          8           0       -3.714026   -3.160209    2.812879
     44          8           0       -2.685260   -4.774952    1.730614
     45          6           0       -2.132056   -5.364747    2.831549
     46          6           0        2.736889   -0.613658   -1.317096
     47          6           0        4.044035   -0.509213   -0.635852
     48          6           0        5.015880    0.330465   -0.918007
     49          6           0        5.057170    1.236966   -2.119224
     50          6           0        6.427837    0.399074   -0.135647
     51          6           0        7.594406   -0.190761   -0.935776
     52          6           0        8.822727   -0.184178   -0.138811
     53          6           0       10.137338   -0.564323   -0.869323
     54          6           0       10.155229   -2.031395   -1.409316
     55          6           0       11.412543   -0.251162   -0.087133
     56          6           0       12.719182   -0.413458   -0.839632
     57          6           0       13.948789   -0.173479    0.109209
     58          6           0       15.378591   -0.208625   -0.448231
     59          6           0       15.634577   -1.624370   -1.009307
     60          6           0       16.441849    0.375268    0.468642
     61          6           0       17.888064    0.600185   -0.075319
     62          6           0       18.815126    1.333659    0.906360
     63          6           0       20.226785    1.333369    0.376004
     64          6           0       20.333972    2.110461   -0.975109
     65          6           0       21.179189    1.952576    1.375880
     66          1           0       -4.093305    3.412177    1.593874
     67          1           0      -10.220092    3.809194   -0.701381
     68          1           0      -10.643454   -2.150506   -0.999090
     69          1           0       -2.558777   -1.107404    1.924203
     70          1           0       -2.245193    1.692089    1.301885
     71          1           0       -1.972616    0.819724    3.445941
     72          1           0       -3.187337    2.133127    3.285432
     73          1           0       -3.639101    0.344181    3.587075
     74          1           0       -2.066768   -1.546294   -0.306236
     75          1           0       -2.127944    0.055665   -0.729131
     76          1           0       -0.118306    0.402828    0.681286
     77          1           0       -0.254291   -1.203558    1.075857
     78          1           0       -5.518963    6.776329    0.544681
     79          1           0       -5.722972    5.906210    2.277827
     80          1           0       -4.464338    5.671114    0.978961
     81          1           0       -9.169759    6.026730   -0.547356
     82          1           0       -8.962673    8.150784    0.403001
     83          1           0       -7.803747    7.535367    1.651834
     84          1           0      -11.909135    3.320343   -2.229067
     85          1           0      -13.061327    2.321426   -1.876644
     86          1           0      -12.312955    3.108864   -0.705466
     87          1           0      -12.724266   -1.334800   -0.922969
     88          1           0      -13.302736   -0.087950   -1.784940
     89          1           0      -12.854920   -2.225003   -3.292513
     90          1           0      -12.125747   -0.632807   -3.816276
     91          1           0      -11.202223   -1.937560   -3.069122
     92          1           0       -9.218979   -4.597416   -1.621047
     93          1           0       -8.275288   -5.841476   -0.867399
     94          1           0       -9.405169   -5.022636    0.049656
     95          1           0       -3.579335   -3.584215   -0.457656
     96          1           0       -1.687203   -4.552529    3.519678
     97          1           0       -3.053359   -5.640659    3.518406
     98          1           0       -1.605240   -6.287380    2.528815
     99          1           0        2.578640   -1.579002   -1.826934
    100          1           0        2.342551    0.228146   -2.010441
    101          1           0        4.255148   -1.074161    0.315452
    102          1           0        4.022323    1.280435   -2.553293
    103          1           0        5.611850    2.168831   -1.915779
    104          1           0        5.840225    0.813724   -2.900852
    105          1           0        6.579665    1.328506    0.072756
    106          1           0        6.177104   -0.010467    0.780052
    107          1           0        7.352791   -1.340587   -1.242559
    108          1           0        7.696443    0.376299   -1.782650
    109          1           0        9.174894    0.774630    0.046186
    110          1           0        8.755376   -0.639182    0.846451
    111          1           0       10.315281   -0.091607   -1.840355
    112          1           0        9.234085   -2.137030   -2.017296
    113          1           0       11.212253   -2.315834   -1.883051
    114          1           0       10.270187   -2.950065   -0.503943
    115          1           0       11.292064    0.844497    0.413607
    116          1           0       11.507030   -0.793042    0.833964
    117          1           0       12.770101   -1.412927   -1.200110
    118          1           0       12.647666    0.286262   -1.668718
    119          1           0       13.646202    0.770226    0.399287
    120          1           0       13.666142   -0.786020    0.891684
    121          1           0       15.310692    0.557600   -1.351746
    122          1           0       15.727060   -2.415890   -0.154289
    123          1           0       14.891128   -1.957846   -1.698763
    124          1           0       16.693035   -1.783770   -1.418831
    125          1           0       15.852658    1.421515    0.748167
    126          1           0       16.412233   -0.267647    1.476208
    127          1           0       18.409651   -0.349791   -0.331118
    128          1           0       17.692665    1.135555   -1.058266
    129          1           0       18.659399    2.398324    1.088046
    130          1           0       18.789517    0.840183    2.028460
    131          1           0       20.787676    0.312855    0.145416
    132          1           0       20.045689    3.202684   -0.631871
    133          1           0       21.219171    2.038061   -1.493697
    134          1           0       19.622675    1.729735   -1.686057
    135          1           0       21.145442    1.186548    2.146380
    136          1           0       22.318359    1.968053    1.050165
    137          1           0       20.841735    2.980628    1.796984
 ---------------------------------------------------------------------

 SCF Done:  E(RCAM-B3LYP) =  -2933.49643788     A.U. after   16 cycles

 Excitation energies and oscillator strengths:

 Excited State   1:      Singlet-A      2.1402 eV  579.32 nm  f=0.2075  <S**2>=0.000
     240 -> 243        0.28871
     241 -> 242        0.63911
 This state for optimization and/or second-order correction.
 Total Energy, E(TD-HF/TD-DFT) =  -2933.41778817
 Copying the excited state density for this state as the 1-particle RhoCI density.

 The electronic state is 1-A.
 Alpha  occ. eigenvalues --  -46.79483 -19.20990 -19.20655 -19.17579 -19.16876
 Alpha  occ. eigenvalues --  -19.15893 -14.37529 -14.35260 -14.34817 -14.34772
 Alpha  occ. eigenvalues --  -10.34662 -10.33938 -10.30148 -10.27645 -10.27535
 Alpha  occ. eigenvalues --  -10.26822 -10.26091 -10.25688 -10.24992 -10.24767
 Alpha  occ. eigenvalues --  -10.24588 -10.24014 -10.23920 -10.23817 -10.23612
 Alpha  occ. eigenvalues --  -10.23369 -10.23002 -10.22788 -10.22641 -10.22527
 Alpha  occ. eigenvalues --  -10.22468 -10.22463 -10.22410 -10.22342 -10.22328
 Alpha  occ. eigenvalues --  -10.22319 -10.22275 -10.22250 -10.22149 -10.22132
 Alpha  occ. eigenvalues --  -10.22045 -10.22013 -10.21991 -10.21916 -10.21850
 Alpha  occ. eigenvalues --  -10.21801 -10.21493 -10.21441 -10.21314 -10.21278
 Alpha  occ. eigenvalues --  -10.21272 -10.21217 -10.21203 -10.20989 -10.20926
 Alpha  occ. eigenvalues --  -10.20885 -10.20814 -10.20395 -10.20226 -10.20087
 Alpha  occ. eigenvalues --  -10.19916 -10.19703 -10.19468 -10.19379 -10.19268
 Alpha  occ. eigenvalues --   -3.08142  -1.83089  -1.82619  -1.82540  -1.14584
 Alpha  occ. eigenvalues --   -1.12292  -1.06311  -1.04690  -1.04571  -0.99942
 Alpha  occ. eigenvalues --   -0.98886  -0.98768  -0.97865  -0.88131  -0.86455
 Alpha  occ. eigenvalues --   -0.86038  -0.85188  -0.84615  -0.84486  -0.84205
 Alpha  occ. eigenvalues --   -0.83936  -0.83473  -0.83242  -0.82799  -0.81826
 Alpha  occ. eigenvalues --   -0.80889  -0.79654  -0.79018  -0.78580  -0.78055
 Alpha  occ. eigenvalues --   -0.77036  -0.76469  -0.75696  -0.75085  -0.73804
 Alpha  occ. eigenvalues --   -0.73753  -0.73224  -0.71934  -0.71368  -0.71332
 Alpha  occ. eigenvalues --   -0.70878  -0.69987  -0.69334  -0.69287  -0.68719
 Alpha  occ. eigenvalues --   -0.67410  -0.66750  -0.66085  -0.65311  -0.64422
 Alpha  occ. eigenvalues --   -0.63299  -0.63198  -0.61709  -0.61063  -0.60856
 Alpha  occ. eigenvalues --   -0.59579  -0.58719  -0.58600  -0.58385  -0.57524
 Alpha  occ. eigenvalues --   -0.57326  -0.56659  -0.56378  -0.55999  -0.55506
 Alpha  occ. eigenvalues --   -0.55144  -0.54945  -0.53936  -0.53757  -0.53489
 Alpha  occ. eigenvalues --   -0.52314  -0.52023  -0.51778  -0.51168  -0.51002
 Alpha  occ. eigenvalues --   -0.50928  -0.50628  -0.50438  -0.50162  -0.49679
 Alpha  occ. eigenvalues --   -0.49551  -0.49378  -0.49011  -0.48362  -0.48211
 Alpha  occ. eigenvalues --   -0.48148  -0.48052  -0.47849  -0.47650  -0.47278
 Alpha  occ. eigenvalues --   -0.46963  -0.46832  -0.46685  -0.46561  -0.46242
 Alpha  occ. eigenvalues --   -0.46138  -0.46001  -0.45975  -0.45191  -0.44979
 Alpha  occ. eigenvalues --   -0.44770  -0.44704  -0.44250  -0.44048  -0.43840
 Alpha  occ. eigenvalues --   -0.43548  -0.43311  -0.43147  -0.43053  -0.42712
 Alpha  occ. eigenvalues --   -0.42645  -0.42299  -0.41949  -0.41922  -0.41748
 Alpha  occ. eigenvalues --   -0.41321  -0.41200  -0.40987  -0.40794  -0.40737
 Alpha  occ. eigenvalues --   -0.40251  -0.40138  -0.40107  -0.40001  -0.39931
 Alpha  occ. eigenvalues --   -0.39712  -0.39516  -0.39197  -0.39119  -0.39012
 Alpha  occ. eigenvalues --   -0.38967  -0.38872  -0.38672  -0.38385  -0.38270
 Alpha  occ. eigenvalues --   -0.38130  -0.37820  -0.37697  -0.37585  -0.37278
 Alpha  occ. eigenvalues --   -0.37113  -0.36967  -0.36785  -0.36059  -0.35887
 Alpha  occ. eigenvalues --   -0.35853  -0.35569  -0.35500  -0.35100  -0.34678
 Alpha  occ. eigenvalues --   -0.34281  -0.34175  -0.33627  -0.33320  -0.33117
 Alpha  occ. eigenvalues --   -0.32967  -0.32723  -0.32622  -0.32524  -0.32418
 Alpha  occ. eigenvalues --   -0.32257  -0.32085  -0.31690  -0.31234  -0.30965
 Alpha  occ. eigenvalues --   -0.30870  -0.30343  -0.29834  -0.29041  -0.27514
 Alpha  occ. eigenvalues --   -0.27268  -0.26346  -0.25881  -0.24638  -0.21618
 Alpha  occ. eigenvalues --   -0.20124
 Alpha virt. eigenvalues --   -0.06529  -0.04200   0.00040   0.02428   0.03968
 Alpha virt. eigenvalues --    0.04336   0.05028   0.05260   0.05503   0.05740
 Alpha virt. eigenvalues --    0.06507   0.09675   0.09938   0.10109   0.10429

 Mulliken charges:
               1
     1  Mg   0.804596
     2  C    0.114403
     3  C   -0.194673
     4  C   -0.155055
     5  C   -0.175511
     6  N   -0.642893
     7  C    0.276796
     8  C   -0.161376
     9  C   -0.149517
    10  C    0.389533
    11  C   -0.295155
    12  C   -0.151268
    13  C   -0.266320
    14  C    0.613573
    15  O   -0.460238
    16  O   -0.500596
    17  N   -0.743816
    18  C    0.335233
    19  C    0.028214
    20  C   -0.011194
    21  C    0.347220
    22  C   -0.368098
    23  C   -0.076236
    24  C   -0.262039
    25  N   -0.707075
    26  C    0.283927
    27  C    0.030873
    28  C   -0.018049
    29  C    0.319856
    30  C   -0.377785
    31  C   -0.242926
    32  C   -0.321562
    33  N   -0.749908
    34  C    0.218534
    35  C    0.005353
    36  C    0.107921
    37  C    0.355682
    38  C   -0.379727
    39  C    0.306386
    40  O   -0.469378
    41  C   -0.353624
    42  C    0.619659
    43  O   -0.438446
    44  O   -0.433172
    45  C   -0.083353
    46  C    0.000344
    47  C   -0.113609
    48  C    0.099245
    49  C   -0.357195
    50  C   -0.219212
    51  C   -0.158030
    52  C   -0.161710
    53  C   -0.063398
    54  C   -0.293054
    55  C   -0.180676
    56  C   -0.198500
    57  C   -0.171160
    58  C   -0.041862
    59  C   -0.314299
    60  C   -0.157844
    61  C   -0.170729
    62  C   -0.139342
    63  C   -0.066122
    64  C   -0.293082
    65  C   -0.296055
    66  H    0.046743
    67  H    0.081296
    68  H    0.095897
    69  H    0.110937
    70  H    0.104421
    71  H    0.109021
    72  H    0.110764
    73  H    0.103388
    74  H    0.117512
    75  H    0.115384
    76  H    0.135328
    77  H    0.130095
    78  H    0.109586
    79  H    0.134368
    80  H    0.127343
    81  H    0.079692
    82  H    0.104730
    83  H    0.091699
    84  H    0.121097
    85  H    0.120944
    86  H    0.136082
    87  H    0.124886
    88  H    0.096870
    89  H    0.097977
    90  H    0.107844
    91  H    0.116482
    92  H    0.128947
    93  H    0.133446
    94  H    0.127869
    95  H    0.156074
    96  H    0.112782
    97  H    0.102968
    98  H    0.134160
    99  H    0.131962
   100  H    0.122555
   101  H    0.086055
   102  H    0.103116
   103  H    0.112400
   104  H    0.104982
   105  H    0.110742
   106  H    0.096155
   107  H    0.081202
   108  H    0.101564
   109  H    0.100957
   110  H    0.099894
   111  H    0.089958
   112  H    0.104883
   113  H    0.089376
   114  H    0.047179
   115  H    0.053599
   116  H    0.094770
   117  H    0.101965
   118  H    0.091861
   119  H    0.095181
   120  H    0.095971
   121  H    0.063530
   122  H    0.084339
   123  H    0.114725
   124  H    0.089393
   125  H    0.066102
   126  H    0.068655
   127  H    0.103639
   128  H    0.100240
   129  H    0.098408
   130  H    0.071763
   131  H    0.065142
   132  H    0.076816
   133  H    0.108363
   134  H    0.098433
   135  H    0.103850
   136  H    0.084937
   137  H    0.086224
 Sum of Mulliken charges =  -0.00000

 Dipole moment (field-independent basis, Debye):
    X=              0.5661    Y=              4.0246    Z=              0.0542  Tot=              4.0645
 Quadrupole moment (field-independent basis, Debye-Ang):
   XX=           -335.5726   YY=           -395.6396   ZZ=           -399.2862
   XY=            -19.6696   XZ=             11.0012   YZ=             -1.7747

 Normal termination of Gaussian 16 at Sun Sep 15 17:33:20 2019.
