 Gaussian 09, Revision D.01,
 Gaussian 09:  ES64L-G09RevD.01 24-Apr-2013

 -------------------------------------
 # td=(NStates=1) CAM-B3LYP/6-31G(d,p)
 -------------------------------------

 --
 TD
 --
 Symbolic Z-matrix:
 Charge =  0 Multiplicity = 1

                         Standard orientation:
 ---------------------------------------------------------------------
 Center     Atomic      Atomic             Coordinates (Angstroms)
 Number     Number       Type             X           Y           Z
 ---------------------------------------------------------------------
      1         12           0       -7.264970    0.530893    0.104646
      2          6           0       -4.815755   -1.929820    0.382469
      3          6           0       -4.796623    2.819140    1.101383
      4          6           0       -9.398094    3.067454   -0.442920
      5          6           0       -9.521415   -1.762460   -0.918804
      6          7           0       -5.097418    0.473503    0.593097
      7          6           0       -4.370840   -0.619077    0.614917
      8          6           0       -2.902727   -0.361670    1.082889
      9          6           0       -2.970232    1.195606    1.537454
     10          6           0       -4.398807    1.496849    0.983551
     11          6           0       -2.861951    1.323252    3.001591
     12          6           0       -1.842750   -0.583185   -0.052836
     13          6           0       -0.424282   -0.490604    0.411907
     14          6           0        0.516376   -0.720831   -0.752357
     15          8           0        0.256769   -0.996536   -1.887788
     16          8           0        1.727352   -0.492651   -0.284777
     17          7           0       -7.179014    2.657037    0.363162
     18          6           0       -6.111618    3.393401    0.810696
     19          6           0       -6.445209    4.726516    0.760171
     20          6           0       -7.764628    4.845930    0.396449
     21          6           0       -8.142987    3.454693    0.058922
     22          6           0       -5.533723    5.867921    0.958272
     23          6           0       -8.638850    6.026846    0.147182
     24          6           0       -8.522664    7.119026    0.875291
     25          7           0       -9.170377    0.666650   -0.525670
     26          6           0       -9.809670    1.747962   -0.719339
     27          6           0      -11.241831    1.425122   -1.039341
     28          6           0      -11.313718    0.121037   -1.209844
     29          6           0       -9.991700   -0.465024   -0.866056
     30          6           0      -12.286638    2.530841   -1.253362
     31          6           0      -12.483089   -0.748538   -1.710284
     32          6           0      -12.332591   -1.245588   -3.080749
     33          7           0       -7.312731   -1.468427   -0.057296
     34          6           0       -8.389630   -2.314118   -0.452986
     35          6           0       -7.887565   -3.667330   -0.444822
     36          6           0       -6.513418   -3.635956   -0.057567
     37          6           0       -6.191986   -2.323672    0.032160
     38          6           0       -8.673675   -4.832304   -0.736355
     39          6           0       -5.288749   -4.380096    0.224644
     40          8           0       -5.036428   -5.609734    0.286470
     41          6           0       -4.160736   -3.239983    0.558010
     42          6           0       -3.566846   -3.591320    1.928057
     43          8           0       -3.828240   -3.028829    2.982075
     44          8           0       -2.619799   -4.544154    1.896531
     45          6           0       -2.006942   -5.031195    2.987972
     46          6           0        2.815167   -0.661751   -1.319760
     47          6           0        4.142490   -0.547949   -0.638736
     48          6           0        5.119800    0.297378   -0.973573
     49          6           0        4.989203    1.365319   -2.086893
     50          6           0        6.423582    0.371208   -0.098695
     51          6           0        7.681327   -0.293442   -0.864897
     52          6           0        8.923164   -0.098788   -0.075448
     53          6           0       10.302007   -0.621496   -0.744900
     54          6           0       10.064495   -2.128941   -1.024552
     55          6           0       11.490233   -0.202133    0.045544
     56          6           0       12.878023   -0.459657   -0.695383
     57          6           0       14.032929   -0.102514    0.153271
     58          6           0       15.301926   -0.139307   -0.631995
     59          6           0       15.685099   -1.557753   -0.986212
     60          6           0       16.444844    0.391764    0.350343
     61          6           0       17.813512    0.590403   -0.198371
     62          6           0       18.775090    1.310961    0.731330
     63          6           0       20.264111    1.285156    0.277688
     64          6           0       20.448674    2.026580   -1.095530
     65          6           0       21.171498    1.935057    1.398168
     66          1           0       -3.966996    3.636380    1.135767
     67          1           0      -10.078649    3.837762   -0.495342
     68          1           0      -10.420664   -2.248236   -1.061106
     69          1           0       -2.514425   -1.105983    1.763691
     70          1           0       -2.240888    1.785231    1.121967
     71          1           0       -1.720696    1.044867    3.397717
     72          1           0       -2.971409    2.392880    3.391364
     73          1           0       -3.406571    0.628143    3.541216
     74          1           0       -1.852907   -1.569136   -0.403907
     75          1           0       -2.148675    0.080389   -0.972540
     76          1           0       -0.208500    0.507047    0.797025
     77          1           0       -0.164265   -1.083433    1.295483
     78          1           0       -5.779485    6.888454    0.446106
     79          1           0       -5.309925    6.174646    2.101814
     80          1           0       -4.490031    5.739936    0.679558
     81          1           0       -9.379441    6.006834   -0.573717
     82          1           0       -9.306993    7.913155    0.847927
     83          1           0       -7.977387    7.089802    1.884458
     84          1           0      -11.855899    3.138376   -2.208618
     85          1           0      -13.279892    2.263751   -1.449481
     86          1           0      -12.430854    3.106120   -0.299300
     87          1           0      -12.716158   -1.628981   -0.884633
     88          1           0      -13.176507   -0.180021   -1.317733
     89          1           0      -13.047025   -2.046120   -3.390359
     90          1           0      -12.308919   -0.523784   -4.001092
     91          1           0      -11.233963   -1.652867   -3.182568
     92          1           0       -8.979441   -4.687134   -1.765312
     93          1           0       -8.193695   -5.694065   -0.637959
     94          1           0       -9.618966   -4.874717   -0.137758
     95          1           0       -3.423227   -3.602881   -0.283641
     96          1           0       -1.589237   -4.222070    3.582724
     97          1           0       -2.755093   -5.396109    3.754150
     98          1           0       -1.477211   -5.949164    2.721730
     99          1           0        2.748331   -1.793591   -1.619941
    100          1           0        2.279333    0.138153   -2.074236
    101          1           0        4.499087   -1.190946    0.240752
    102          1           0        3.972741    1.305283   -2.441400
    103          1           0        5.062241    2.374755   -1.901100
    104          1           0        5.829065    1.197756   -2.944964
    105          1           0        6.479860    1.333312    0.164218
    106          1           0        6.082077   -0.112469    0.892513
    107          1           0        7.462634   -1.207135   -1.025484
    108          1           0        8.000550    0.297194   -1.718586
    109          1           0        9.148199    0.926976    0.204017
    110          1           0        8.731339   -0.783641    0.765902
    111          1           0       10.259332   -0.302222   -1.798915
    112          1           0        9.207894   -2.280704   -1.586730
    113          1           0       11.023076   -2.516028   -1.583251
    114          1           0        9.983515   -2.574116   -0.057641
    115          1           0       11.285098    0.758699    0.356062
    116          1           0       11.531899   -0.865270    0.976791
    117          1           0       12.824461   -1.455737   -1.055817
    118          1           0       12.937047    0.224107   -1.674446
    119          1           0       13.931828    0.841502    0.680595
    120          1           0       14.206044   -0.675009    1.198613
    121          1           0       15.152336    0.524546   -1.394985
    122          1           0       15.890401   -2.155653   -0.119263
    123          1           0       14.968904   -2.290584   -1.627896
    124          1           0       16.727521   -1.643829   -1.465031
    125          1           0       16.092012    1.397482    0.586299
    126          1           0       16.494677   -0.105866    1.264419
    127          1           0       18.195410   -0.285710   -0.548750
    128          1           0       17.898790    1.328701   -1.189836
    129          1           0       18.421698    2.318433    0.857905
    130          1           0       18.723075    1.005885    1.794957
    131          1           0       20.496915    0.242777    0.085286
    132          1           0       20.164271    3.057262   -1.053694
    133          1           0       21.464195    1.974431   -1.372158
    134          1           0       19.871171    1.712367   -1.841763
    135          1           0       21.030306    1.538234    2.508331
    136          1           0       22.259860    1.859939    1.088717
    137          1           0       21.096325    2.941298    1.397396
 ---------------------------------------------------------------------

 SCF Done:  E(RCAM-B3LYP) =  -2932.69305150     A.U. after   18 cycles

 Excitation energies and oscillator strengths:

 Excited State   1:      Singlet-A      2.0274 eV  611.54 nm  f=0.2680  <S**2>=0.000
     240 -> 242        0.14169
     240 -> 243       -0.22905
     241 -> 242        0.64376
 This state for optimization and/or second-order correction.
 Total Energy, E(TD-HF/TD-KS) =  -2932.61854569
 Copying the excited state density for this state as the 1-particle RhoCI density.

 The electronic state is 1-A.
 Alpha  occ. eigenvalues --  -46.85209 -19.25274 -19.25235 -19.20421 -19.20034
 Alpha  occ. eigenvalues --  -19.19924 -14.42102 -14.39674 -14.39199 -14.38734
 Alpha  occ. eigenvalues --  -10.39103 -10.38088 -10.35617 -10.34057 -10.30938
 Alpha  occ. eigenvalues --  -10.30733 -10.30289 -10.30177 -10.29519 -10.29272
 Alpha  occ. eigenvalues --  -10.29162 -10.29125 -10.28696 -10.28447 -10.28207
 Alpha  occ. eigenvalues --  -10.27805 -10.27561 -10.27457 -10.27345 -10.27244
 Alpha  occ. eigenvalues --  -10.27243 -10.27158 -10.27113 -10.27065 -10.26986
 Alpha  occ. eigenvalues --  -10.26894 -10.26770 -10.26751 -10.26722 -10.26590
 Alpha  occ. eigenvalues --  -10.26487 -10.26484 -10.26416 -10.26389 -10.26299
 Alpha  occ. eigenvalues --  -10.26256 -10.26043 -10.25973 -10.25951 -10.25726
 Alpha  occ. eigenvalues --  -10.25488 -10.25421 -10.25224 -10.25045 -10.25023
 Alpha  occ. eigenvalues --  -10.25017 -10.24940 -10.24810 -10.24748 -10.24708
 Alpha  occ. eigenvalues --  -10.24218 -10.24216 -10.24197 -10.24197 -10.22702
 Alpha  occ. eigenvalues --   -3.14109  -1.88824  -1.88362  -1.88255  -1.18847
 Alpha  occ. eigenvalues --   -1.18280  -1.09038  -1.08551  -1.08306  -1.06592
 Alpha  occ. eigenvalues --   -1.05816  -1.04263  -1.01525  -0.92255  -0.91369
 Alpha  occ. eigenvalues --   -0.90730  -0.90108  -0.89863  -0.89533  -0.89266
 Alpha  occ. eigenvalues --   -0.88530  -0.88227  -0.87942  -0.87142  -0.86425
 Alpha  occ. eigenvalues --   -0.85423  -0.84468  -0.84044  -0.83396  -0.83249
 Alpha  occ. eigenvalues --   -0.82295  -0.81264  -0.80824  -0.79891  -0.78103
 Alpha  occ. eigenvalues --   -0.77674  -0.77041  -0.76458  -0.76418  -0.76018
 Alpha  occ. eigenvalues --   -0.75751  -0.75234  -0.74778  -0.73207  -0.72368
 Alpha  occ. eigenvalues --   -0.71543  -0.70775  -0.70646  -0.69180  -0.68265
 Alpha  occ. eigenvalues --   -0.67359  -0.66813  -0.65646  -0.65471  -0.65136
 Alpha  occ. eigenvalues --   -0.64500  -0.63950  -0.63858  -0.62968  -0.62375
 Alpha  occ. eigenvalues --   -0.61602  -0.60960  -0.60580  -0.59870  -0.59347
 Alpha  occ. eigenvalues --   -0.59232  -0.58743  -0.57623  -0.57279  -0.56520
 Alpha  occ. eigenvalues --   -0.56321  -0.55953  -0.55386  -0.55150  -0.55004
 Alpha  occ. eigenvalues --   -0.54600  -0.54170  -0.53940  -0.53439  -0.53291
 Alpha  occ. eigenvalues --   -0.53036  -0.52608  -0.52239  -0.52038  -0.51820
 Alpha  occ. eigenvalues --   -0.51455  -0.51382  -0.50947  -0.50835  -0.50591
 Alpha  occ. eigenvalues --   -0.50438  -0.50240  -0.49989  -0.49941  -0.49694
 Alpha  occ. eigenvalues --   -0.49510  -0.49390  -0.49066  -0.48815  -0.48431
 Alpha  occ. eigenvalues --   -0.48296  -0.48141  -0.47919  -0.47544  -0.47366
 Alpha  occ. eigenvalues --   -0.47208  -0.46351  -0.46264  -0.46198  -0.46021
 Alpha  occ. eigenvalues --   -0.45792  -0.45736  -0.45434  -0.45156  -0.45017
 Alpha  occ. eigenvalues --   -0.44805  -0.44426  -0.44356  -0.44229  -0.44042
 Alpha  occ. eigenvalues --   -0.43964  -0.43659  -0.43557  -0.43385  -0.43274
 Alpha  occ. eigenvalues --   -0.43069  -0.43055  -0.42993  -0.42572  -0.42356
 Alpha  occ. eigenvalues --   -0.42018  -0.41904  -0.41848  -0.41729  -0.41399
 Alpha  occ. eigenvalues --   -0.41165  -0.40861  -0.40794  -0.40712  -0.40540
 Alpha  occ. eigenvalues --   -0.40181  -0.39658  -0.39545  -0.39312  -0.39118
 Alpha  occ. eigenvalues --   -0.39050  -0.38417  -0.38263  -0.38167  -0.38017
 Alpha  occ. eigenvalues --   -0.37426  -0.37037  -0.37020  -0.36741  -0.36581
 Alpha  occ. eigenvalues --   -0.36392  -0.36241  -0.35944  -0.35722  -0.35581
 Alpha  occ. eigenvalues --   -0.34672  -0.34562  -0.34161  -0.33620  -0.33268
 Alpha  occ. eigenvalues --   -0.33054  -0.32958  -0.32718  -0.31178  -0.30099
 Alpha  occ. eigenvalues --   -0.29862  -0.29508  -0.28125  -0.28016  -0.22902
 Alpha  occ. eigenvalues --   -0.21543
 Alpha virt. eigenvalues --   -0.07184  -0.02797   0.01405   0.04130   0.05766
 Alpha virt. eigenvalues --    0.06078   0.06263   0.06420   0.07269   0.07791
 Alpha virt. eigenvalues --    0.08565   0.10362   0.10945   0.11174   0.11738

 Mulliken charges:
               1
     1  Mg   0.838217
     2  C    0.094535
     3  C   -0.206839
     4  C   -0.158042
     5  C   -0.130502
     6  N   -0.613175
     7  C    0.327015
     8  C   -0.168201
     9  C   -0.115487
    10  C    0.331394
    11  C   -0.291161
    12  C   -0.176977
    13  C   -0.280738
    14  C    0.618349
    15  O   -0.481747
    16  O   -0.486341
    17  N   -0.705153
    18  C    0.293551
    19  C    0.049301
    20  C   -0.005993
    21  C    0.321843
    22  C   -0.394770
    23  C   -0.059224
    24  C   -0.248582
    25  N   -0.695155
    26  C    0.344210
    27  C    0.006644
    28  C   -0.010186
    29  C    0.208672
    30  C   -0.361772
    31  C   -0.187041
    32  C   -0.306828
    33  N   -0.730113
    34  C    0.298124
    35  C   -0.031835
    36  C    0.090554
    37  C    0.219419
    38  C   -0.369771
    39  C    0.332445
    40  O   -0.483672
    41  C   -0.348919
    42  C    0.622365
    43  O   -0.485910
    44  O   -0.413938
    45  C   -0.085283
    46  C    0.002987
    47  C   -0.130012
    48  C    0.102278
    49  C   -0.354096
    50  C   -0.233668
    51  C   -0.156287
    52  C   -0.186441
    53  C   -0.081420
    54  C   -0.311019
    55  C   -0.164607
    56  C   -0.175195
    57  C   -0.157059
    58  C   -0.044963
    59  C   -0.307349
    60  C   -0.192091
    61  C   -0.166665
    62  C   -0.173321
    63  C   -0.055987
    64  C   -0.325802
    65  C   -0.316428
    66  H    0.085454
    67  H    0.077647
    68  H    0.090282
    69  H    0.113251
    70  H    0.110655
    71  H    0.068495
    72  H    0.102170
    73  H    0.142419
    74  H    0.124664
    75  H    0.099203
    76  H    0.130895
    77  H    0.137919
    78  H    0.121575
    79  H    0.097092
    80  H    0.116717
    81  H    0.105731
    82  H    0.099012
    83  H    0.109192
    84  H    0.110227
    85  H    0.122141
    86  H    0.120350
    87  H    0.078605
    88  H    0.112551
    89  H    0.111936
    90  H    0.104789
    91  H    0.105451
    92  H    0.127948
    93  H    0.145115
    94  H    0.120647
    95  H    0.157624
    96  H    0.116575
    97  H    0.106838
    98  H    0.127578
    99  H    0.128568
   100  H    0.142971
   101  H    0.098520
   102  H    0.104825
   103  H    0.126705
   104  H    0.097268
   105  H    0.115748
   106  H    0.084576
   107  H    0.110714
   108  H    0.100139
   109  H    0.086843
   110  H    0.083459
   111  H    0.077428
   112  H    0.112240
   113  H    0.080604
   114  H    0.101845
   115  H    0.097864
   116  H    0.084857
   117  H    0.111231
   118  H    0.071929
   119  H    0.093018
   120  H    0.061544
   121  H    0.095730
   122  H    0.110174
   123  H    0.078348
   124  H    0.090864
   125  H    0.086438
   126  H    0.102011
   127  H    0.099921
   128  H    0.056040
   129  H    0.090744
   130  H    0.075957
   131  H    0.091440
   132  H    0.099312
   133  H    0.102716
   134  H    0.114068
   135  H    0.088737
   136  H    0.088137
   137  H    0.119585
 Sum of Mulliken charges =   0.00000

 Dipole moment (field-independent basis, Debye):
    X=              0.3585    Y=              5.8474    Z=             -0.2119  Tot=              5.8622
 Quadrupole moment (field-independent basis, Debye-Ang):
   XX=           -317.7715   YY=           -395.3229   ZZ=           -400.8433
   XY=            -23.3046   XZ=             15.4553   YZ=              0.2999

 Normal termination of Gaussian 09 at Fri Jul  5 16:08:38 2019.
