 Gaussian 09, Revision D.01,
 Gaussian 09:  ES64L-G09RevD.01 24-Apr-2013

 -------------------------------------
 # td=(NStates=1) CAM-B3LYP/6-31G(d,p)
 -------------------------------------

 --
 TD
 --
 Symbolic Z-matrix:
 Charge =  0 Multiplicity = 1

                         Standard orientation:
 ---------------------------------------------------------------------
 Center     Atomic      Atomic             Coordinates (Angstroms)
 Number     Number       Type             X           Y           Z
 ---------------------------------------------------------------------
      1         12           0       -7.157232    0.598602    0.027125
      2          6           0       -4.756965   -1.938168    0.501967
      3          6           0       -4.866677    2.902091    0.993058
      4          6           0       -9.450136    3.080200   -0.509098
      5          6           0       -9.537421   -1.792819   -0.815454
      6          7           0       -5.165620    0.510410    0.635479
      7          6           0       -4.355988   -0.594543    0.719780
      8          6           0       -3.000762   -0.304208    1.235766
      9          6           0       -3.052703    1.178836    1.629318
     10          6           0       -4.450325    1.631644    0.999025
     11          6           0       -3.154381    1.331797    3.126354
     12          6           0       -1.960384   -0.432862    0.137268
     13          6           0       -0.455993   -0.204452    0.624653
     14          6           0        0.522055   -0.617506   -0.516748
     15          8           0        0.294446   -1.030347   -1.656566
     16          8           0        1.859004   -0.451216   -0.144730
     17          7           0       -7.172870    2.540452    0.264542
     18          6           0       -6.157025    3.415174    0.621732
     19          6           0       -6.560442    4.758563    0.777750
     20          6           0       -7.895302    4.755811    0.319685
     21          6           0       -8.277095    3.489600   -0.041094
     22          6           0       -5.689482    5.931570    1.009580
     23          6           0       -8.729447    5.987648    0.183654
     24          6           0       -8.604597    7.176171    0.687525
     25          7           0       -9.192653    0.632012   -0.423521
     26          6           0      -10.041690    1.747872   -0.701299
     27          6           0      -11.285973    1.362589   -1.141899
     28          6           0      -11.260539    0.016446   -1.241633
     29          6           0       -9.973302   -0.454367   -0.772372
     30          6           0      -12.437608    2.270509   -1.297548
     31          6           0      -12.263982   -0.928957   -1.665203
     32          6           0      -12.216487   -1.296955   -3.159756
     33          7           0       -7.253396   -1.395546   -0.194819
     34          6           0       -8.320915   -2.258102   -0.496095
     35          6           0       -7.778167   -3.623406   -0.448740
     36          6           0       -6.457089   -3.567435   -0.031645
     37          6           0       -6.168535   -2.114990    0.110920
     38          6           0       -8.684543   -4.938784   -0.575256
     39          6           0       -5.193487   -4.342960    0.068231
     40          8           0       -4.970767   -5.504971    0.069830
     41          6           0       -4.091339   -3.237049    0.472785
     42          6           0       -3.445669   -3.677978    1.834016
     43          8           0       -3.662402   -3.094560    2.895605
     44          8           0       -2.613005   -4.644497    1.702007
     45          6           0       -2.157685   -5.146382    2.957655
     46          6           0        2.877340   -0.780274   -1.027514
     47          6           0        4.232742   -0.515156   -0.374914
     48          6           0        5.169721    0.343518   -1.021646
     49          6           0        5.087242    1.007410   -2.381447
     50          6           0        6.446852    0.421816   -0.309158
     51          6           0        7.685022   -0.181226   -0.839681
     52          6           0        8.988093   -0.169983   -0.124997
     53          6           0       10.244513   -0.624122   -0.821816
     54          6           0       10.160575   -2.054680   -1.200535
     55          6           0       11.560405   -0.274330   -0.081236
     56          6           0       12.937591   -0.505838   -0.818880
     57          6           0       14.078331   -0.174196    0.188831
     58          6           0       15.419405   -0.242327   -0.532773
     59          6           0       15.793091   -1.659363   -0.909164
     60          6           0       16.494884    0.457311    0.419462
     61          6           0       17.851222    0.537736   -0.179743
     62          6           0       18.736247    1.318907    0.790562
     63          6           0       20.155213    1.363035    0.271753
     64          6           0       20.214092    2.375670   -0.960647
     65          6           0       21.182059    1.890593    1.264513
     66          1           0       -4.189447    3.621536    1.042138
     67          1           0      -10.296449    3.924320   -0.648255
     68          1           0      -10.407307   -2.441272   -0.837577
     69          1           0       -2.652726   -0.936080    2.084888
     70          1           0       -2.149664    1.671673    1.160564
     71          1           0       -2.124173    1.044453    3.575252
     72          1           0       -3.110197    2.527785    3.407686
     73          1           0       -3.943392    0.651429    3.643620
     74          1           0       -1.892593   -1.572831   -0.294442
     75          1           0       -2.533442    0.009493   -0.805571
     76          1           0       -0.309611    0.806701    0.864059
     77          1           0       -0.211263   -0.713511    1.470618
     78          1           0       -6.059280    6.933311    0.582071
     79          1           0       -5.758086    6.106587    2.046503
     80          1           0       -4.601019    5.821087    0.823516
     81          1           0       -9.719266    5.874665   -0.500345
     82          1           0       -9.339010    7.988857    0.531601
     83          1           0       -7.829417    7.430861    1.543128
     84          1           0      -12.326466    2.980069   -2.166787
     85          1           0      -13.338147    1.883667   -1.368149
     86          1           0      -12.654435    2.751874   -0.331066
     87          1           0      -12.235002   -1.910766   -0.981672
     88          1           0      -13.275567   -0.546021   -1.425657
     89          1           0      -12.940206   -2.196351   -3.412473
     90          1           0      -12.389995   -0.382023   -3.765752
     91          1           0      -11.132821   -1.411817   -3.388991
     92          1           0       -9.175379   -4.984570   -1.470721
     93          1           0       -7.974478   -5.632582   -0.483175
     94          1           0       -9.480890   -5.124551    0.271982
     95          1           0       -3.222708   -3.338558   -0.031696
     96          1           0       -1.159883   -4.491053    3.508528
     97          1           0       -3.047217   -5.263092    3.557637
     98          1           0       -1.636685   -6.068909    2.867463
     99          1           0        2.852076   -1.657781   -1.272931
    100          1           0        2.717440   -0.158091   -1.778611
    101          1           0        4.587768   -1.047830    0.546825
    102          1           0        4.141318    1.089921   -2.620433
    103          1           0        5.449402    2.009463   -2.368907
    104          1           0        5.646459    0.427828   -3.092287
    105          1           0        6.591601    1.461504   -0.003230
    106          1           0        6.592310    0.057994    0.791492
    107          1           0        7.643192   -1.163601   -1.245358
    108          1           0        7.908188    0.349552   -1.653180
    109          1           0        9.335208    0.852738    0.129056
    110          1           0        8.850417   -0.620031    0.876968
    111          1           0       10.276535   -0.098478   -1.629992
    112          1           0        9.243905   -2.397354   -1.759038
    113          1           0       11.030205   -2.523814   -1.664194
    114          1           0       10.011124   -2.670278   -0.321829
    115          1           0       11.431201    0.830480    0.248994
    116          1           0       11.408419   -0.606637    0.968862
    117          1           0       12.886847   -1.525310   -1.336222
    118          1           0       12.981654    0.129925   -1.759159
    119          1           0       14.010059    0.911800    0.428428
    120          1           0       14.073097   -0.797563    1.124194
    121          1           0       15.495444    0.392685   -1.419789
    122          1           0       15.531807   -2.275270   -0.176860
    123          1           0       15.101762   -2.013341   -1.595453
    124          1           0       16.749491   -1.835744   -1.386867
    125          1           0       16.326688    1.557415    0.486481
    126          1           0       16.368142   -0.098188    1.381480
    127          1           0       18.475592   -0.285113   -0.242095
    128          1           0       17.848597    0.996923   -1.338400
    129          1           0       18.135886    2.215744    0.895935
    130          1           0       18.954467    0.915643    1.908068
    131          1           0       20.556200    0.511742    0.099285
    132          1           0       19.920658    3.398276   -0.698792
    133          1           0       21.272097    2.650026   -1.312804
    134          1           0       19.780403    2.102045   -1.923556
    135          1           0       21.164316    1.232690    2.125513
    136          1           0       22.210411    1.812577    0.961750
    137          1           0       21.048848    2.868664    1.644195
 ---------------------------------------------------------------------

 SCF Done:  E(RCAM-B3LYP) =  -2932.63153056     A.U. after   16 cycles

 Excitation energies and oscillator strengths:

 Excited State   1:      Singlet-A      2.1362 eV  580.40 nm  f=0.1919  <S**2>=0.000
     240 -> 243       -0.28025
     241 -> 242        0.63870
 This state for optimization and/or second-order correction.
 Total Energy, E(TD-HF/TD-KS) =  -2932.55302783
 Copying the excited state density for this state as the 1-particle RhoCI density.

 The electronic state is 1-A.
 Alpha  occ. eigenvalues --  -46.82807 -19.28288 -19.24489 -19.21612 -19.21261
 Alpha  occ. eigenvalues --  -19.19866 -14.41238 -14.39767 -14.39134 -14.38770
 Alpha  occ. eigenvalues --  -10.40068 -10.38936 -10.36215 -10.33121 -10.31093
 Alpha  occ. eigenvalues --  -10.30331 -10.30317 -10.29794 -10.29629 -10.29150
 Alpha  occ. eigenvalues --  -10.28818 -10.28745 -10.28610 -10.28412 -10.28282
 Alpha  occ. eigenvalues --  -10.28209 -10.28104 -10.28017 -10.27756 -10.27715
 Alpha  occ. eigenvalues --  -10.27711 -10.27673 -10.27573 -10.27156 -10.26976
 Alpha  occ. eigenvalues --  -10.26910 -10.26853 -10.26829 -10.26638 -10.26489
 Alpha  occ. eigenvalues --  -10.26294 -10.26262 -10.26143 -10.26084 -10.25875
 Alpha  occ. eigenvalues --  -10.25738 -10.25607 -10.25371 -10.25220 -10.25168
 Alpha  occ. eigenvalues --  -10.25153 -10.24975 -10.24904 -10.24867 -10.24857
 Alpha  occ. eigenvalues --  -10.24829 -10.24740 -10.24460 -10.24452 -10.24028
 Alpha  occ. eigenvalues --  -10.23709 -10.23673 -10.23127 -10.23111 -10.22052
 Alpha  occ. eigenvalues --   -3.12083  -1.86772  -1.86326  -1.86285  -1.21480
 Alpha  occ. eigenvalues --   -1.16863  -1.13814  -1.08396  -1.08179  -1.03846
 Alpha  occ. eigenvalues --   -1.02857  -1.01846  -1.00945  -0.92152  -0.91969
 Alpha  occ. eigenvalues --   -0.90820  -0.90259  -0.89814  -0.89225  -0.88810
 Alpha  occ. eigenvalues --   -0.88741  -0.88337  -0.87319  -0.86660  -0.86200
 Alpha  occ. eigenvalues --   -0.85131  -0.84674  -0.84131  -0.83765  -0.83179
 Alpha  occ. eigenvalues --   -0.82128  -0.81816  -0.80747  -0.80301  -0.78545
 Alpha  occ. eigenvalues --   -0.78195  -0.77442  -0.77304  -0.76649  -0.76200
 Alpha  occ. eigenvalues --   -0.75618  -0.75274  -0.74564  -0.73024  -0.72589
 Alpha  occ. eigenvalues --   -0.71448  -0.70118  -0.69102  -0.68852  -0.68302
 Alpha  occ. eigenvalues --   -0.66905  -0.66590  -0.65330  -0.65025  -0.64674
 Alpha  occ. eigenvalues --   -0.64561  -0.64500  -0.64080  -0.63339  -0.62665
 Alpha  occ. eigenvalues --   -0.62495  -0.60930  -0.60750  -0.59714  -0.59568
 Alpha  occ. eigenvalues --   -0.58443  -0.58334  -0.57935  -0.57691  -0.57034
 Alpha  occ. eigenvalues --   -0.56707  -0.56410  -0.55588  -0.55339  -0.54793
 Alpha  occ. eigenvalues --   -0.54531  -0.54297  -0.54007  -0.53657  -0.53146
 Alpha  occ. eigenvalues --   -0.52646  -0.52477  -0.52298  -0.51992  -0.51595
 Alpha  occ. eigenvalues --   -0.51569  -0.51431  -0.51228  -0.51002  -0.50704
 Alpha  occ. eigenvalues --   -0.50257  -0.50210  -0.50178  -0.49713  -0.49672
 Alpha  occ. eigenvalues --   -0.49354  -0.49137  -0.48944  -0.48816  -0.48356
 Alpha  occ. eigenvalues --   -0.48244  -0.47949  -0.47839  -0.47712  -0.47434
 Alpha  occ. eigenvalues --   -0.47019  -0.46894  -0.46706  -0.46641  -0.45994
 Alpha  occ. eigenvalues --   -0.45952  -0.45728  -0.45633  -0.45406  -0.45185
 Alpha  occ. eigenvalues --   -0.44929  -0.44791  -0.44713  -0.44357  -0.44248
 Alpha  occ. eigenvalues --   -0.44220  -0.44033  -0.43752  -0.43735  -0.43556
 Alpha  occ. eigenvalues --   -0.43376  -0.42947  -0.42721  -0.42554  -0.42284
 Alpha  occ. eigenvalues --   -0.42166  -0.41813  -0.41620  -0.41556  -0.41302
 Alpha  occ. eigenvalues --   -0.41189  -0.40943  -0.40797  -0.40760  -0.40304
 Alpha  occ. eigenvalues --   -0.40173  -0.39504  -0.39180  -0.38965  -0.38836
 Alpha  occ. eigenvalues --   -0.38750  -0.38236  -0.38186  -0.37767  -0.37582
 Alpha  occ. eigenvalues --   -0.37408  -0.37348  -0.36921  -0.36760  -0.36480
 Alpha  occ. eigenvalues --   -0.36233  -0.36142  -0.35768  -0.35594  -0.35293
 Alpha  occ. eigenvalues --   -0.35188  -0.34852  -0.34506  -0.33574  -0.33252
 Alpha  occ. eigenvalues --   -0.33020  -0.32257  -0.32240  -0.31071  -0.30400
 Alpha  occ. eigenvalues --   -0.29951  -0.28794  -0.28171  -0.27297  -0.23129
 Alpha  occ. eigenvalues --   -0.21728
 Alpha virt. eigenvalues --   -0.06205  -0.03522   0.01766   0.04882   0.05379
 Alpha virt. eigenvalues --    0.05754   0.06324   0.06891   0.07349   0.07488
 Alpha virt. eigenvalues --    0.08265   0.10980   0.11206   0.11885   0.12197

 Mulliken charges:
               1
     1  Mg   0.798773
     2  C    0.115874
     3  C   -0.183552
     4  C   -0.212829
     5  C   -0.154437
     6  N   -0.652724
     7  C    0.320223
     8  C   -0.157907
     9  C   -0.128146
    10  C    0.336661
    11  C   -0.287946
    12  C   -0.198983
    13  C   -0.254010
    14  C    0.589777
    15  O   -0.472618
    16  O   -0.501638
    17  N   -0.708545
    18  C    0.288578
    19  C    0.040114
    20  C    0.013982
    21  C    0.335631
    22  C   -0.392366
    23  C   -0.034282
    24  C   -0.271621
    25  N   -0.666746
    26  C    0.234473
    27  C    0.061489
    28  C    0.026285
    29  C    0.271895
    30  C   -0.370737
    31  C   -0.260102
    32  C   -0.299903
    33  N   -0.738259
    34  C    0.303844
    35  C   -0.029759
    36  C   -0.022799
    37  C    0.306572
    38  C   -0.347717
    39  C    0.387262
    40  O   -0.422792
    41  C   -0.344612
    42  C    0.593278
    43  O   -0.493727
    44  O   -0.398187
    45  C   -0.073158
    46  C    0.086253
    47  C   -0.155799
    48  C    0.085598
    49  C   -0.352631
    50  C   -0.233723
    51  C   -0.158231
    52  C   -0.199321
    53  C   -0.037986
    54  C   -0.322248
    55  C   -0.190087
    56  C   -0.185630
    57  C   -0.170348
    58  C   -0.075861
    59  C   -0.309806
    60  C   -0.165457
    61  C   -0.171076
    62  C   -0.160642
    63  C   -0.036165
    64  C   -0.325084
    65  C   -0.333543
    66  H    0.059745
    67  H    0.088534
    68  H    0.097811
    69  H    0.130631
    70  H    0.097249
    71  H    0.090312
    72  H    0.087059
    73  H    0.135333
    74  H    0.093255
    75  H    0.120490
    76  H    0.148665
    77  H    0.155101
    78  H    0.124112
    79  H    0.136602
    80  H    0.119355
    81  H    0.080195
    82  H    0.108818
    83  H    0.093687
    84  H    0.113836
    85  H    0.121052
    86  H    0.119513
    87  H    0.084155
    88  H    0.096291
    89  H    0.097722
    90  H    0.109055
    91  H    0.111518
    92  H    0.130802
    93  H    0.148832
    94  H    0.114159
    95  H    0.153441
    96  H    0.080684
    97  H    0.149614
    98  H    0.134670
    99  H    0.115686
   100  H    0.103845
   101  H    0.100918
   102  H    0.126634
   103  H    0.119333
   104  H    0.136175
   105  H    0.097593
   106  H    0.077121
   107  H    0.096618
   108  H    0.098399
   109  H    0.076912
   110  H    0.076289
   111  H    0.096836
   112  H    0.092185
   113  H    0.095052
   114  H    0.098856
   115  H    0.070770
   116  H    0.089056
   117  H    0.095846
   118  H    0.095709
   119  H    0.102249
   120  H    0.098152
   121  H    0.077846
   122  H    0.104700
   123  H    0.103106
   124  H    0.105061
   125  H    0.084780
   126  H    0.089160
   127  H    0.100140
   128  H    0.072032
   129  H    0.089956
   130  H    0.067351
   131  H    0.100857
   132  H    0.105271
   133  H    0.078095
   134  H    0.098801
   135  H    0.087568
   136  H    0.103036
   137  H    0.106885
 Sum of Mulliken charges =   0.00000

 Dipole moment (field-independent basis, Debye):
    X=              1.3588    Y=              3.2744    Z=              0.4316  Tot=              3.5713
 Quadrupole moment (field-independent basis, Debye-Ang):
   XX=           -337.0427   YY=           -382.2697   ZZ=           -398.1357
   XY=            -19.6402   XZ=              5.1932   YZ=             -5.2262

 Normal termination of Gaussian 09 at Thu Jul  4 07:38:48 2019.
