 Gaussian 09, Revision D.01,
 Gaussian 09:  ES64L-G09RevD.01 24-Apr-2013

 -------------------------------------
 # td=(NStates=1) CAM-B3LYP/6-31G(d,p)
 -------------------------------------

 --
 TD
 --
 Symbolic Z-matrix:
 Charge =  0 Multiplicity = 1

                         Standard orientation:
 ---------------------------------------------------------------------
 Center     Atomic      Atomic             Coordinates (Angstroms)
 Number     Number       Type             X           Y           Z
 ---------------------------------------------------------------------
      1         12           0       -7.136649    0.564812   -0.058992
      2          6           0       -4.898274   -1.962098    0.584840
      3          6           0       -4.836970    2.861637    1.074682
      4          6           0       -9.408131    3.099590   -0.431518
      5          6           0       -9.431104   -1.774503   -0.870804
      6          7           0       -5.110578    0.465454    0.685112
      7          6           0       -4.324403   -0.665757    0.772837
      8          6           0       -2.907249   -0.407768    1.174773
      9          6           0       -3.088616    1.145151    1.657632
     10          6           0       -4.419726    1.556106    1.149519
     11          6           0       -2.988687    1.295495    3.216036
     12          6           0       -1.994713   -0.568459    0.001973
     13          6           0       -0.555218   -0.482512    0.360430
     14          6           0        0.464815   -0.693582   -0.657417
     15          8           0        0.185832   -1.044692   -1.846622
     16          8           0        1.747602   -0.709253   -0.134523
     17          7           0       -7.032698    2.601586    0.216328
     18          6           0       -6.029621    3.424734    0.737161
     19          6           0       -6.361965    4.746472    0.746079
     20          6           0       -7.697706    4.848705    0.316777
     21          6           0       -8.078134    3.503223   -0.036080
     22          6           0       -5.489025    5.816590    1.309177
     23          6           0       -8.498383    6.135236    0.151294
     24          6           0       -8.518519    7.204917    0.927125
     25          7           0       -9.055148    0.686792   -0.515600
     26          6           0       -9.808439    1.795364   -0.724298
     27          6           0      -11.133699    1.530555   -1.162016
     28          6           0      -11.113356    0.051583   -1.359285
     29          6           0       -9.884411   -0.370182   -0.958042
     30          6           0      -12.243018    2.489792   -1.408445
     31          6           0      -12.334886   -0.834340   -1.900128
     32          6           0      -12.041332   -1.333955   -3.301211
     33          7           0       -7.256818   -1.398936   -0.064621
     34          6           0       -8.272989   -2.278789   -0.511416
     35          6           0       -7.863573   -3.643072   -0.406535
     36          6           0       -6.500586   -3.548215   -0.025045
     37          6           0       -6.163312   -2.174918    0.223735
     38          6           0       -8.713396   -4.907523   -0.699981
     39          6           0       -5.296574   -4.298197    0.255838
     40          8           0       -5.186156   -5.527170    0.288608
     41          6           0       -4.157952   -3.351016    0.625494
     42          6           0       -3.639523   -3.551600    1.959469
     43          8           0       -3.873036   -2.968782    2.948694
     44          8           0       -2.763082   -4.635762    1.896183
     45          6           0       -2.209349   -5.046473    3.012438
     46          6           0        2.800380   -0.764961   -1.229003
     47          6           0        4.103393   -0.327298   -0.634720
     48          6           0        5.161172    0.335624   -1.021142
     49          6           0        5.131692    1.148833   -2.356321
     50          6           0        6.410797    0.398226   -0.274587
     51          6           0        7.672134   -0.241404   -0.943157
     52          6           0        8.946191   -0.106046   -0.095195
     53          6           0       10.216949   -0.602631   -0.724784
     54          6           0       10.153027   -2.075699   -1.124968
     55          6           0       11.476592   -0.171554    0.027179
     56          6           0       12.806143   -0.555399   -0.684689
     57          6           0       13.934258   -0.132014    0.236667
     58          6           0       15.380647   -0.229227   -0.477540
     59          6           0       15.648576   -1.804136   -0.719143
     60          6           0       16.485759    0.291411    0.515687
     61          6           0       17.810531    0.507344   -0.091061
     62          6           0       18.849924    1.316927    0.741816
     63          6           0       20.220643    1.438620    0.074374
     64          6           0       20.164635    2.082373   -1.209780
     65          6           0       21.040707    2.265824    1.129867
     66          1           0       -4.248500    3.508441    1.544612
     67          1           0      -10.118480    3.892029   -0.472466
     68          1           0      -10.409154   -2.549652   -1.272745
     69          1           0       -2.717149   -0.858095    2.114806
     70          1           0       -2.364363    1.773313    0.949190
     71          1           0       -1.945482    1.158454    3.512468
     72          1           0       -3.302087    2.468986    3.750285
     73          1           0       -3.743659    0.502597    3.569815
     74          1           0       -2.322957   -1.489297   -0.390904
     75          1           0       -2.156067    0.106491   -0.753997
     76          1           0       -0.443049    0.460979    0.758206
     77          1           0       -0.224392   -1.104001    1.303265
     78          1           0       -5.763503    6.740776    0.929696
     79          1           0       -5.601595    5.858702    2.383650
     80          1           0       -4.408653    5.767797    1.044740
     81          1           0       -9.337465    6.043909   -0.510367
     82          1           0       -9.283934    7.965733    0.724312
     83          1           0       -7.875847    7.096174    1.702606
     84          1           0      -11.910501    3.245916   -2.262617
     85          1           0      -13.199225    2.102349   -1.714764
     86          1           0      -12.636566    3.161270   -0.657641
     87          1           0      -12.351111   -1.607359   -1.158719
     88          1           0      -13.175155    0.052521   -1.876869
     89          1           0      -13.024629   -1.753044   -3.843344
     90          1           0      -11.664214   -0.347859   -3.655640
     91          1           0      -11.265752   -2.050721   -3.260153
     92          1           0       -8.868710   -4.732598   -1.750863
     93          1           0       -7.963858   -5.695176   -0.522236
     94          1           0       -9.609206   -4.807145   -0.133389
     95          1           0       -3.433219   -3.406870   -0.064495
     96          1           0       -1.546606   -4.464547    3.536552
     97          1           0       -2.939233   -5.363370    3.868379
     98          1           0       -1.561364   -5.822512    2.726807
     99          1           0        2.814932   -1.816153   -1.556633
    100          1           0        2.532375   -0.245655   -2.116359
    101          1           0        4.249504   -0.816244    0.193322
    102          1           0        3.958402    1.350850   -2.691491
    103          1           0        5.714390    2.079180   -2.274417
    104          1           0        5.564545    0.501215   -3.193856
    105          1           0        6.843531    1.456208   -0.216394
    106          1           0        6.209227    0.093021    0.806253
    107          1           0        7.294515   -1.177523   -1.203719
    108          1           0        7.907537   -0.014357   -1.916608
    109          1           0        9.097082    0.992519    0.085967
    110          1           0        8.702130   -0.443393    0.856722
    111          1           0       10.237080   -0.076273   -1.691178
    112          1           0        9.067957   -2.303222   -1.646064
    113          1           0       10.924993   -2.533226   -1.693823
    114          1           0       10.249259   -2.729985   -0.246036
    115          1           0       11.451539    1.046845    0.283760
    116          1           0       11.540470   -0.684999    0.756717
    117          1           0       12.600470   -1.616835   -0.809924
    118          1           0       12.812868   -0.052491   -1.737930
    119          1           0       13.824264    0.792321    0.526978
    120          1           0       14.031638   -0.903799    1.041185
    121          1           0       15.377866    0.385039   -1.279831
    122          1           0       15.874128   -2.448619    0.454196
    123          1           0       14.922494   -2.077477   -1.453095
    124          1           0       16.720620   -1.928523   -1.243674
    125          1           0       16.108150    1.262825    0.954434
    126          1           0       16.417799   -0.468610    1.263016
    127          1           0       18.288092   -0.375693   -0.270766
    128          1           0       17.763975    1.005494   -0.958465
    129          1           0       18.290454    2.338334    0.898302
    130          1           0       18.956049    0.988861    1.819636
    131          1           0       20.406818    0.282155    0.132425
    132          1           0       19.617968    2.986623   -1.237870
    133          1           0       21.426873    2.015789   -1.340054
    134          1           0       19.878106    1.419341   -2.121867
    135          1           0       21.011576    1.856517    2.170851
    136          1           0       22.234978    2.185157    0.891866
    137          1           0       20.571467    3.321822    1.219362
 ---------------------------------------------------------------------

 SCF Done:  E(RCAM-B3LYP) =  -2932.59142867     A.U. after   17 cycles

 Excitation energies and oscillator strengths:

 Excited State   1:      Singlet-A      2.1527 eV  575.94 nm  f=0.1235  <S**2>=0.000
     240 -> 242       -0.16847
     240 -> 243       -0.29578
     241 -> 242        0.58808
     241 -> 243       -0.16749
 This state for optimization and/or second-order correction.
 Total Energy, E(TD-HF/TD-KS) =  -2932.51231689
 Copying the excited state density for this state as the 1-particle RhoCI density.

 The electronic state is 1-A.
 Alpha  occ. eigenvalues --  -46.82780 -19.26835 -19.25598 -19.22653 -19.20975
 Alpha  occ. eigenvalues --  -19.20478 -14.41729 -14.38916 -14.38527 -14.38368
 Alpha  occ. eigenvalues --  -10.39906 -10.39529 -10.35352 -10.32314 -10.31806
 Alpha  occ. eigenvalues --  -10.30076 -10.29923 -10.29418 -10.29161 -10.29114
 Alpha  occ. eigenvalues --  -10.29053 -10.29031 -10.28962 -10.28837 -10.28716
 Alpha  occ. eigenvalues --  -10.28054 -10.27932 -10.27883 -10.27865 -10.27864
 Alpha  occ. eigenvalues --  -10.27809 -10.27671 -10.27581 -10.27465 -10.27429
 Alpha  occ. eigenvalues --  -10.27417 -10.27031 -10.27028 -10.26881 -10.26780
 Alpha  occ. eigenvalues --  -10.26771 -10.26740 -10.26692 -10.26637 -10.26346
 Alpha  occ. eigenvalues --  -10.26268 -10.26095 -10.26062 -10.25981 -10.25749
 Alpha  occ. eigenvalues --  -10.25643 -10.25602 -10.25568 -10.25470 -10.25370
 Alpha  occ. eigenvalues --  -10.25189 -10.25031 -10.24946 -10.24716 -10.24447
 Alpha  occ. eigenvalues --  -10.24326 -10.24264 -10.24166 -10.23619 -10.22569
 Alpha  occ. eigenvalues --   -3.12051  -1.86734  -1.86306  -1.86236  -1.20340
 Alpha  occ. eigenvalues --   -1.15600  -1.12780  -1.10495  -1.06659  -1.04129
 Alpha  occ. eigenvalues --   -1.02969  -1.02338  -1.01352  -0.94038  -0.92161
 Alpha  occ. eigenvalues --   -0.91805  -0.90931  -0.90435  -0.89052  -0.88555
 Alpha  occ. eigenvalues --   -0.88414  -0.87582  -0.87497  -0.86967  -0.86451
 Alpha  occ. eigenvalues --   -0.85958  -0.85359  -0.84680  -0.83736  -0.82846
 Alpha  occ. eigenvalues --   -0.82022  -0.81499  -0.81112  -0.79821  -0.78934
 Alpha  occ. eigenvalues --   -0.78272  -0.77407  -0.76834  -0.75923  -0.75780
 Alpha  occ. eigenvalues --   -0.75504  -0.74958  -0.74059  -0.73370  -0.73047
 Alpha  occ. eigenvalues --   -0.72294  -0.71903  -0.69653  -0.68985  -0.68393
 Alpha  occ. eigenvalues --   -0.67919  -0.66700  -0.65662  -0.65526  -0.65106
 Alpha  occ. eigenvalues --   -0.64955  -0.64420  -0.63827  -0.63357  -0.61982
 Alpha  occ. eigenvalues --   -0.61907  -0.61254  -0.61072  -0.60473  -0.60126
 Alpha  occ. eigenvalues --   -0.58728  -0.58467  -0.58034  -0.57436  -0.56599
 Alpha  occ. eigenvalues --   -0.56453  -0.55935  -0.55476  -0.55254  -0.54927
 Alpha  occ. eigenvalues --   -0.54817  -0.54350  -0.54176  -0.53934  -0.53817
 Alpha  occ. eigenvalues --   -0.53510  -0.52732  -0.52559  -0.52301  -0.52105
 Alpha  occ. eigenvalues --   -0.51898  -0.51662  -0.51487  -0.51338  -0.51035
 Alpha  occ. eigenvalues --   -0.50838  -0.50759  -0.50423  -0.49862  -0.49390
 Alpha  occ. eigenvalues --   -0.49259  -0.49201  -0.49140  -0.48705  -0.48410
 Alpha  occ. eigenvalues --   -0.48167  -0.48052  -0.47765  -0.47645  -0.47549
 Alpha  occ. eigenvalues --   -0.47418  -0.46857  -0.46644  -0.46281  -0.46229
 Alpha  occ. eigenvalues --   -0.45919  -0.45773  -0.45673  -0.45639  -0.45260
 Alpha  occ. eigenvalues --   -0.44697  -0.44484  -0.44301  -0.44138  -0.43897
 Alpha  occ. eigenvalues --   -0.43691  -0.43603  -0.43401  -0.43357  -0.43185
 Alpha  occ. eigenvalues --   -0.43085  -0.43080  -0.42915  -0.42820  -0.42692
 Alpha  occ. eigenvalues --   -0.42497  -0.41759  -0.41704  -0.41420  -0.41143
 Alpha  occ. eigenvalues --   -0.41087  -0.40993  -0.40776  -0.40760  -0.40649
 Alpha  occ. eigenvalues --   -0.40494  -0.40200  -0.39862  -0.39817  -0.39636
 Alpha  occ. eigenvalues --   -0.39125  -0.38828  -0.38102  -0.37943  -0.37704
 Alpha  occ. eigenvalues --   -0.37466  -0.37144  -0.36822  -0.36672  -0.36470
 Alpha  occ. eigenvalues --   -0.36377  -0.36320  -0.36146  -0.35967  -0.35789
 Alpha  occ. eigenvalues --   -0.35634  -0.35396  -0.34781  -0.34226  -0.33909
 Alpha  occ. eigenvalues --   -0.33455  -0.32875  -0.32716  -0.31072  -0.30576
 Alpha  occ. eigenvalues --   -0.30362  -0.29631  -0.27395  -0.26824  -0.23220
 Alpha  occ. eigenvalues --   -0.21594
 Alpha virt. eigenvalues --   -0.06106  -0.04404   0.00829   0.04305   0.04719
 Alpha virt. eigenvalues --    0.05529   0.05814   0.05925   0.07101   0.08058
 Alpha virt. eigenvalues --    0.08623   0.09804   0.10899   0.10967   0.11661

 Mulliken charges:
               1
     1  Mg   0.811828
     2  C    0.014850
     3  C   -0.173038
     4  C   -0.151636
     5  C   -0.218193
     6  N   -0.617020
     7  C    0.271135
     8  C   -0.156215
     9  C   -0.183350
    10  C    0.342231
    11  C   -0.290583
    12  C   -0.154704
    13  C   -0.274153
    14  C    0.625342
    15  O   -0.503129
    16  O   -0.505368
    17  N   -0.702627
    18  C    0.328314
    19  C    0.017473
    20  C   -0.010086
    21  C    0.268506
    22  C   -0.382887
    23  C   -0.076090
    24  C   -0.223704
    25  N   -0.709240
    26  C    0.313080
    27  C    0.038150
    28  C   -0.058735
    29  C    0.299469
    30  C   -0.396350
    31  C   -0.211685
    32  C   -0.284528
    33  N   -0.777913
    34  C    0.325870
    35  C    0.010300
    36  C   -0.008511
    37  C    0.355752
    38  C   -0.343645
    39  C    0.339200
    40  O   -0.466333
    41  C   -0.291700
    42  C    0.645358
    43  O   -0.431506
    44  O   -0.434944
    45  C   -0.082306
    46  C    0.012371
    47  C   -0.124592
    48  C    0.144742
    49  C   -0.357732
    50  C   -0.248952
    51  C   -0.192016
    52  C   -0.164174
    53  C   -0.061051
    54  C   -0.325116
    55  C   -0.145857
    56  C   -0.196815
    57  C   -0.150713
    58  C   -0.087195
    59  C   -0.293131
    60  C   -0.164151
    61  C   -0.160687
    62  C   -0.190347
    63  C   -0.045823
    64  C   -0.279374
    65  C   -0.294834
    66  H    0.055772
    67  H    0.093999
    68  H    0.068093
    69  H    0.137813
    70  H    0.094405
    71  H    0.120206
    72  H    0.076796
    73  H    0.132680
    74  H    0.121649
    75  H    0.134481
    76  H    0.147020
    77  H    0.134257
    78  H    0.125401
    79  H    0.129072
    80  H    0.111640
    81  H    0.083137
    82  H    0.112106
    83  H    0.100350
    84  H    0.105787
    85  H    0.119811
    86  H    0.127532
    87  H    0.112117
    88  H    0.087147
    89  H    0.090850
    90  H    0.117308
    91  H    0.112205
    92  H    0.139657
    93  H    0.158866
    94  H    0.141173
    95  H    0.174172
    96  H    0.106201
    97  H    0.092879
    98  H    0.113904
    99  H    0.139832
   100  H    0.133665
   101  H    0.079796
   102  H    0.090114
   103  H    0.117841
   104  H    0.115453
   105  H    0.094267
   106  H    0.099234
   107  H    0.102403
   108  H    0.101660
   109  H    0.084878
   110  H    0.098727
   111  H    0.083938
   112  H    0.083824
   113  H    0.113907
   114  H    0.096449
   115  H    0.055300
   116  H    0.102868
   117  H    0.099274
   118  H    0.074917
   119  H    0.099027
   120  H    0.090137
   121  H    0.090023
   122  H    0.065401
   123  H    0.121473
   124  H    0.084124
   125  H    0.070021
   126  H    0.087099
   127  H    0.092969
   128  H    0.098525
   129  H    0.052530
   130  H    0.080195
   131  H    0.087627
   132  H    0.118889
   133  H    0.073339
   134  H    0.101059
   135  H    0.103721
   136  H    0.074076
   137  H    0.101697
 Sum of Mulliken charges =   0.00000

 Dipole moment (field-independent basis, Debye):
    X=              2.2629    Y=              4.0191    Z=              0.0954  Tot=              4.6134
 Quadrupole moment (field-independent basis, Debye-Ang):
   XX=           -352.2454   YY=           -398.2001   ZZ=           -399.1274
   XY=            -26.2682   XZ=              8.0766   YZ=              2.6071

 Normal termination of Gaussian 09 at Fri Jul  5 09:49:59 2019.
