 Gaussian 09, Revision D.01,
 Gaussian 09:  ES64L-G09RevD.01 24-Apr-2013

 -------------------------------------
 # td=(NStates=1) CAM-B3LYP/6-31G(d,p)
 -------------------------------------

 --
 TD
 --
 Symbolic Z-matrix:
 Charge =  0 Multiplicity = 1

                         Standard orientation:
 ---------------------------------------------------------------------
 Center     Atomic      Atomic             Coordinates (Angstroms)
 Number     Number       Type             X           Y           Z
 ---------------------------------------------------------------------
      1         12           0       -7.145769    0.636629    0.077001
      2          6           0       -4.872212   -2.024473    0.540825
      3          6           0       -4.797927    2.818756    1.286942
      4          6           0       -9.355288    3.150514   -0.340461
      5          6           0       -9.621036   -1.614469   -0.950685
      6          7           0       -5.108859    0.353816    0.684401
      7          6           0       -4.308882   -0.817436    0.745166
      8          6           0       -2.953672   -0.481471    1.203903
      9          6           0       -3.054494    1.034762    1.662753
     10          6           0       -4.394676    1.447236    1.120818
     11          6           0       -2.915014    1.063754    3.209743
     12          6           0       -1.893576   -0.597042    0.004731
     13          6           0       -0.484467   -0.391519    0.518910
     14          6           0        0.508769   -0.636407   -0.552423
     15          8           0        0.240749   -1.034250   -1.685936
     16          8           0        1.812397   -0.324787   -0.223000
     17          7           0       -7.049756    2.634831    0.378913
     18          6           0       -5.942954    3.343353    0.796231
     19          6           0       -6.236230    4.673011    0.763577
     20          6           0       -7.603000    4.858811    0.339119
     21          6           0       -8.139481    3.561472    0.104067
     22          6           0       -5.325248    5.792643    1.073814
     23          6           0       -8.449359    6.063147    0.172313
     24          6           0       -8.182443    7.231095    0.874112
     25          7           0       -9.176713    0.636087   -0.438429
     26          6           0       -9.879900    1.845633   -0.633659
     27          6           0      -11.173095    1.553073   -1.112142
     28          6           0      -11.307551    0.151969   -1.291233
     29          6           0       -9.967757   -0.328473   -0.879869
     30          6           0      -12.234526    2.653876   -1.431981
     31          6           0      -12.358987   -0.706766   -1.791387
     32          6           0      -12.084740   -1.072338   -3.277910
     33          7           0       -7.304038   -1.355809   -0.099655
     34          6           0       -8.371420   -2.205213   -0.481183
     35          6           0       -7.939733   -3.591952   -0.509569
     36          6           0       -6.610325   -3.592614   -0.087697
     37          6           0       -6.224932   -2.212451    0.185962
     38          6           0       -8.932316   -4.624719   -0.852215
     39          6           0       -5.430791   -4.459541    0.189884
     40          8           0       -5.219665   -5.633172    0.096595
     41          6           0       -4.284180   -3.311196    0.502849
     42          6           0       -3.675747   -3.784940    1.867561
     43          8           0       -3.889659   -3.198588    2.868016
     44          8           0       -2.731399   -4.738015    1.659860
     45          6           0       -2.198937   -5.202544    2.997763
     46          6           0        2.757345   -0.594948   -1.152396
     47          6           0        4.165390   -0.336967   -0.489994
     48          6           0        5.167568    0.396419   -0.924284
     49          6           0        5.130571    1.193980   -2.225431
     50          6           0        6.463711    0.441172   -0.243133
     51          6           0        7.657214   -0.236460   -0.924263
     52          6           0        9.025354   -0.223774   -0.121494
     53          6           0       10.168996   -0.552932   -0.915893
     54          6           0       10.145932   -2.076139   -1.257991
     55          6           0       11.427922   -0.309801   -0.040026
     56          6           0       12.753675   -0.572600   -0.711142
     57          6           0       13.979409   -0.207079    0.163402
     58          6           0       15.307291   -0.320455   -0.536539
     59          6           0       15.748086   -1.772035   -0.725587
     60          6           0       16.437648    0.307956    0.519709
     61          6           0       17.767104    0.512069   -0.180858
     62          6           0       18.756287    1.373929    0.736904
     63          6           0       20.169078    1.525831    0.218244
     64          6           0       20.378814    2.175429   -1.168648
     65          6           0       21.168259    1.922066    1.284296
     66          1           0       -4.087308    3.666060    1.647995
     67          1           0      -10.031561    4.064826   -0.427770
     68          1           0      -10.454232   -2.295412   -1.407600
     69          1           0       -2.807733   -1.052358    2.183064
     70          1           0       -2.308693    1.429677    1.199235
     71          1           0       -2.039857    0.591290    3.657749
     72          1           0       -2.824803    2.209196    3.340472
     73          1           0       -3.944502    0.709280    3.565040
     74          1           0       -2.106694   -1.683768   -0.431153
     75          1           0       -2.188971    0.019766   -0.768239
     76          1           0       -0.274130    0.491302    1.051172
     77          1           0       -0.473484   -1.012043    1.538366
     78          1           0       -5.618083    6.766745    0.505976
     79          1           0       -5.021088    6.018994    2.082431
     80          1           0       -4.334609    5.732042    0.470990
     81          1           0       -9.243123    5.972221   -0.406756
     82          1           0       -8.804753    8.019806    0.867834
     83          1           0       -7.252520    7.266670    1.644264
     84          1           0      -11.851498    3.494815   -2.135523
     85          1           0      -13.120945    2.282740   -1.919805
     86          1           0      -12.701875    2.939365   -0.318845
     87          1           0      -12.599345   -1.557581   -1.191617
     88          1           0      -13.351755   -0.176657   -1.619106
     89          1           0      -13.172349   -1.319589   -3.539632
     90          1           0      -11.996921   -0.147626   -3.708261
     91          1           0      -11.198190   -1.734631   -3.498172
     92          1           0       -9.484913   -4.397181   -1.901436
     93          1           0       -8.307058   -5.572602   -1.250462
     94          1           0       -9.735819   -5.017392   -0.012109
     95          1           0       -3.426104   -3.519551   -0.235593
     96          1           0       -1.659381   -4.465467    3.411784
     97          1           0       -3.037680   -5.434905    3.489879
     98          1           0       -1.762704   -6.094445    2.721627
     99          1           0        2.850742   -1.713970   -1.352748
    100          1           0        2.440323   -0.089498   -2.058102
    101          1           0        4.414091   -0.943874    0.509781
    102          1           0        4.187694    1.352881   -2.808818
    103          1           0        5.518728    2.173092   -2.027740
    104          1           0        5.811261    0.789718   -3.047149
    105          1           0        6.557041    1.561892   -0.026273
    106          1           0        6.478307   -0.041303    0.792796
    107          1           0        7.330015   -1.168634   -1.349240
    108          1           0        7.935286    0.150971   -1.892085
    109          1           0        9.116100    0.729914    0.404316
    110          1           0        8.830157   -0.609733    0.803533
    111          1           0       10.196948   -0.061645   -1.849327
    112          1           0        9.224693   -2.239337   -1.775805
    113          1           0       11.034637   -2.242280   -2.038085
    114          1           0       10.370815   -2.631457   -0.385938
    115          1           0       11.382072    0.766061    0.423887
    116          1           0       11.448713   -0.788184    0.993188
    117          1           0       12.752650   -1.591357   -1.185011
    118          1           0       12.942690    0.184533   -1.560202
    119          1           0       13.919605    0.733884    0.608385
    120          1           0       13.772836   -0.688474    1.046691
    121          1           0       15.297317    0.185105   -1.538997
    122          1           0       16.059501   -2.154410    0.176482
    123          1           0       14.945782   -2.532352   -1.340706
    124          1           0       16.550747   -1.990091   -1.178432
    125          1           0       15.940085    1.440263    0.552272
    126          1           0       16.453098   -0.166023    1.502065
    127          1           0       18.290418   -0.275220   -0.424194
    128          1           0       17.658233    1.029770   -1.114547
    129          1           0       18.212831    2.432893    0.741583
    130          1           0       18.513717    0.999207    1.657916
    131          1           0       20.383159    0.358423   -0.046310
    132          1           0       20.266778    3.317834   -1.209904
    133          1           0       21.507650    2.085190   -1.523013
    134          1           0       19.809825    1.580188   -1.971832
    135          1           0       20.862168    1.473216    2.312549
    136          1           0       22.188825    1.921578    1.127402
    137          1           0       21.015382    2.976901    1.479849
 ---------------------------------------------------------------------

 SCF Done:  E(RCAM-B3LYP) =  -2932.63645238     A.U. after   18 cycles

 Excitation energies and oscillator strengths:

 Excited State   1:      Singlet-A      2.0164 eV  614.89 nm  f=0.2367  <S**2>=0.000
     240 -> 242       -0.10431
     240 -> 243       -0.24489
     241 -> 242        0.64694
 This state for optimization and/or second-order correction.
 Total Energy, E(TD-HF/TD-KS) =  -2932.56235200
 Copying the excited state density for this state as the 1-particle RhoCI density.

 The electronic state is 1-A.
 Alpha  occ. eigenvalues --  -46.83372 -19.25906 -19.25491 -19.21389 -19.20790
 Alpha  occ. eigenvalues --  -19.20704 -14.41841 -14.39418 -14.39075 -14.38080
 Alpha  occ. eigenvalues --  -10.39930 -10.38174 -10.35346 -10.31700 -10.31681
 Alpha  occ. eigenvalues --  -10.29870 -10.29726 -10.29213 -10.29120 -10.29096
 Alpha  occ. eigenvalues --  -10.29032 -10.28779 -10.28618 -10.28390 -10.28164
 Alpha  occ. eigenvalues --  -10.28150 -10.28013 -10.27971 -10.27676 -10.27640
 Alpha  occ. eigenvalues --  -10.27515 -10.27466 -10.27426 -10.27350 -10.27166
 Alpha  occ. eigenvalues --  -10.27038 -10.26998 -10.26979 -10.26874 -10.26840
 Alpha  occ. eigenvalues --  -10.26827 -10.26759 -10.26710 -10.26635 -10.26608
 Alpha  occ. eigenvalues --  -10.26490 -10.26444 -10.26322 -10.26278 -10.25925
 Alpha  occ. eigenvalues --  -10.25886 -10.25797 -10.25762 -10.25727 -10.25666
 Alpha  occ. eigenvalues --  -10.25276 -10.25168 -10.25112 -10.24973 -10.24522
 Alpha  occ. eigenvalues --  -10.24230 -10.23917 -10.23565 -10.23181 -10.23151
 Alpha  occ. eigenvalues --   -3.12406  -1.87117  -1.86659  -1.86567  -1.18893
 Alpha  occ. eigenvalues --   -1.17589  -1.12009  -1.09386  -1.09384  -1.03380
 Alpha  occ. eigenvalues --   -1.02774  -1.01574  -1.00639  -0.92531  -0.91596
 Alpha  occ. eigenvalues --   -0.90334  -0.90004  -0.89571  -0.89527  -0.88885
 Alpha  occ. eigenvalues --   -0.88184  -0.87944  -0.87263  -0.86423  -0.85970
 Alpha  occ. eigenvalues --   -0.84649  -0.84193  -0.82848  -0.82769  -0.82379
 Alpha  occ. eigenvalues --   -0.81587  -0.81270  -0.80712  -0.79842  -0.77549
 Alpha  occ. eigenvalues --   -0.77156  -0.76681  -0.76222  -0.75874  -0.75814
 Alpha  occ. eigenvalues --   -0.75587  -0.74594  -0.74172  -0.73671  -0.72156
 Alpha  occ. eigenvalues --   -0.71787  -0.70855  -0.70303  -0.69202  -0.68428
 Alpha  occ. eigenvalues --   -0.67718  -0.66819  -0.65979  -0.65949  -0.64968
 Alpha  occ. eigenvalues --   -0.64924  -0.64040  -0.63516  -0.63275  -0.62252
 Alpha  occ. eigenvalues --   -0.61447  -0.61282  -0.60808  -0.59921  -0.58822
 Alpha  occ. eigenvalues --   -0.58227  -0.57960  -0.57346  -0.56865  -0.56467
 Alpha  occ. eigenvalues --   -0.56431  -0.55877  -0.55518  -0.54960  -0.54551
 Alpha  occ. eigenvalues --   -0.54485  -0.53442  -0.53243  -0.53003  -0.52716
 Alpha  occ. eigenvalues --   -0.52365  -0.52312  -0.52253  -0.52225  -0.51538
 Alpha  occ. eigenvalues --   -0.51226  -0.50998  -0.50606  -0.50528  -0.50520
 Alpha  occ. eigenvalues --   -0.50307  -0.50066  -0.50031  -0.49603  -0.49290
 Alpha  occ. eigenvalues --   -0.49141  -0.48822  -0.48744  -0.48544  -0.48369
 Alpha  occ. eigenvalues --   -0.48194  -0.48079  -0.47714  -0.47387  -0.47333
 Alpha  occ. eigenvalues --   -0.46826  -0.46377  -0.46307  -0.46008  -0.45983
 Alpha  occ. eigenvalues --   -0.45924  -0.45553  -0.45382  -0.45178  -0.45095
 Alpha  occ. eigenvalues --   -0.44753  -0.44638  -0.44422  -0.44215  -0.44143
 Alpha  occ. eigenvalues --   -0.43949  -0.43707  -0.43610  -0.43443  -0.43068
 Alpha  occ. eigenvalues --   -0.42919  -0.42748  -0.42515  -0.42107  -0.42057
 Alpha  occ. eigenvalues --   -0.41720  -0.41666  -0.41393  -0.41282  -0.41168
 Alpha  occ. eigenvalues --   -0.40934  -0.40772  -0.40709  -0.40418  -0.40275
 Alpha  occ. eigenvalues --   -0.40071  -0.39546  -0.39517  -0.39439  -0.39345
 Alpha  occ. eigenvalues --   -0.39062  -0.38885  -0.38740  -0.38504  -0.38403
 Alpha  occ. eigenvalues --   -0.37631  -0.37424  -0.36818  -0.36443  -0.36314
 Alpha  occ. eigenvalues --   -0.35853  -0.35690  -0.35619  -0.35173  -0.35021
 Alpha  occ. eigenvalues --   -0.34733  -0.34605  -0.34125  -0.33824  -0.33598
 Alpha  occ. eigenvalues --   -0.32955  -0.32367  -0.31839  -0.30805  -0.29806
 Alpha  occ. eigenvalues --   -0.29399  -0.28998  -0.27857  -0.26359  -0.23054
 Alpha  occ. eigenvalues --   -0.21498
 Alpha virt. eigenvalues --   -0.06926  -0.03279   0.01327   0.03847   0.04368
 Alpha virt. eigenvalues --    0.06208   0.06575   0.07099   0.07883   0.07991
 Alpha virt. eigenvalues --    0.08192   0.10600   0.10929   0.11872   0.12037

 Mulliken charges:
               1
     1  Mg   0.800771
     2  C    0.183955
     3  C   -0.202657
     4  C   -0.192912
     5  C   -0.188693
     6  N   -0.631883
     7  C    0.296470
     8  C   -0.212219
     9  C   -0.120403
    10  C    0.320335
    11  C   -0.305525
    12  C   -0.168045
    13  C   -0.279823
    14  C    0.627358
    15  O   -0.474465
    16  O   -0.460224
    17  N   -0.768946
    18  C    0.402793
    19  C    0.011046
    20  C    0.017724
    21  C    0.297750
    22  C   -0.420738
    23  C   -0.060192
    24  C   -0.234617
    25  N   -0.690283
    26  C    0.301262
    27  C   -0.006956
    28  C    0.059445
    29  C    0.344645
    30  C   -0.359889
    31  C   -0.287984
    32  C   -0.304048
    33  N   -0.709952
    34  C    0.248510
    35  C    0.049676
    36  C   -0.001875
    37  C    0.251554
    38  C   -0.382672
    39  C    0.377545
    40  O   -0.434915
    41  C   -0.419934
    42  C    0.615886
    43  O   -0.455210
    44  O   -0.486081
    45  C   -0.082513
    46  C    0.028347
    47  C   -0.168905
    48  C    0.149524
    49  C   -0.365761
    50  C   -0.228575
    51  C   -0.190520
    52  C   -0.161133
    53  C   -0.056368
    54  C   -0.300111
    55  C   -0.189111
    56  C   -0.176146
    57  C   -0.165475
    58  C   -0.065896
    59  C   -0.281445
    60  C   -0.203245
    61  C   -0.179110
    62  C   -0.168704
    63  C   -0.029313
    64  C   -0.308291
    65  C   -0.315128
    66  H    0.088508
    67  H    0.091833
    68  H    0.097496
    69  H    0.130775
    70  H    0.101796
    71  H    0.116437
    72  H    0.095356
    73  H    0.129342
    74  H    0.115247
    75  H    0.132174
    76  H    0.149166
    77  H    0.134040
    78  H    0.120957
    79  H    0.130561
    80  H    0.103537
    81  H    0.089350
    82  H    0.106275
    83  H    0.105645
    84  H    0.115873
    85  H    0.117222
    86  H    0.101566
    87  H    0.122339
    88  H    0.100423
    89  H    0.100597
    90  H    0.129599
    91  H    0.121648
    92  H    0.103894
    93  H    0.116910
    94  H    0.121951
    95  H    0.156988
    96  H    0.138729
    97  H    0.145517
    98  H    0.134457
    99  H    0.108636
   100  H    0.119749
   101  H    0.078191
   102  H    0.110606
   103  H    0.114563
   104  H    0.110706
   105  H    0.091949
   106  H    0.089365
   107  H    0.102837
   108  H    0.089152
   109  H    0.083187
   110  H    0.097833
   111  H    0.100122
   112  H    0.103737
   113  H    0.077339
   114  H    0.115313
   115  H    0.069854
   116  H    0.083329
   117  H    0.098644
   118  H    0.074923
   119  H    0.089699
   120  H    0.090148
   121  H    0.087089
   122  H    0.101020
   123  H    0.054403
   124  H    0.110086
   125  H    0.070846
   126  H    0.105443
   127  H    0.102008
   128  H    0.099463
   129  H    0.062649
   130  H    0.102222
   131  H    0.055608
   132  H    0.098221
   133  H    0.089434
   134  H    0.104049
   135  H    0.091323
   136  H    0.112742
   137  H    0.099602
 Sum of Mulliken charges =   0.00000

 Dipole moment (field-independent basis, Debye):
    X=              0.7213    Y=              4.7011    Z=              0.7279  Tot=              4.8115
 Quadrupole moment (field-independent basis, Debye-Ang):
   XX=           -324.5043   YY=           -394.0548   ZZ=           -392.4777
   XY=            -22.7954   XZ=             19.1201   YZ=             -6.6722

 Normal termination of Gaussian 09 at Sat Jul  6 20:30:17 2019.
