 Gaussian 09, Revision D.01,
 Gaussian 09:  ES64L-G09RevD.01 24-Apr-2013

 -------------------------------------
 # td=(NStates=1) CAM-B3LYP/6-31G(d,p)
 -------------------------------------

 --
 TD
 --
 Symbolic Z-matrix:
 Charge =  0 Multiplicity = 1

                         Standard orientation:
 ---------------------------------------------------------------------
 Center     Atomic      Atomic             Coordinates (Angstroms)
 Number     Number       Type             X           Y           Z
 ---------------------------------------------------------------------
      1         12           0       -7.183835    0.569942   -0.007186
      2          6           0       -4.928173   -2.006443    0.553583
      3          6           0       -4.846248    2.839534    1.109135
      4          6           0       -9.323124    2.985266   -0.490839
      5          6           0       -9.543424   -1.826167   -0.871198
      6          7           0       -5.134688    0.401402    0.705270
      7          6           0       -4.407397   -0.714603    0.898019
      8          6           0       -2.930988   -0.340079    1.316213
      9          6           0       -3.096429    1.102365    1.708738
     10          6           0       -4.417425    1.507007    1.163440
     11          6           0       -2.892301    1.376267    3.205449
     12          6           0       -1.997146   -0.659415    0.213642
     13          6           0       -0.478864   -0.382185    0.600296
     14          6           0        0.580011   -0.590370   -0.501302
     15          8           0        0.219804   -0.876691   -1.679464
     16          8           0        1.877546   -0.449421   -0.149737
     17          7           0       -7.095271    2.617283    0.207819
     18          6           0       -6.017841    3.413880    0.789710
     19          6           0       -6.405342    4.750773    0.870586
     20          6           0       -7.674555    4.899083    0.391589
     21          6           0       -8.188414    3.505687    0.045316
     22          6           0       -5.465691    5.801397    1.266120
     23          6           0       -8.586873    6.081018    0.237762
     24          6           0       -8.507638    7.153344    1.000429
     25          7           0       -9.138155    0.619137   -0.631934
     26          6           0       -9.832465    1.804907   -0.854791
     27          6           0      -11.132263    1.394223   -1.367574
     28          6           0      -11.128986    0.066420   -1.426340
     29          6           0       -9.937205   -0.470830   -0.973418
     30          6           0      -12.214548    2.420565   -1.507517
     31          6           0      -12.380718   -0.813720   -1.908536
     32          6           0      -12.276765   -1.081244   -3.387066
     33          7           0       -7.304513   -1.411511   -0.077563
     34          6           0       -8.367281   -2.324146   -0.417559
     35          6           0       -7.861956   -3.686460   -0.515228
     36          6           0       -6.551023   -3.522941   -0.170471
     37          6           0       -6.218072   -2.194581    0.050957
     38          6           0       -8.739057   -4.898347   -0.751120
     39          6           0       -5.305432   -4.374930    0.128360
     40          8           0       -5.071121   -5.546794    0.152016
     41          6           0       -4.198724   -3.297335    0.582695
     42          6           0       -3.558008   -3.658733    1.957712
     43          8           0       -3.790583   -3.056655    2.967800
     44          8           0       -2.816120   -4.793601    1.893558
     45          6           0       -2.330427   -5.157730    3.212262
     46          6           0        2.965847   -0.603460   -1.076973
     47          6           0        4.178848   -0.287850   -0.473186
     48          6           0        5.154307    0.495584   -0.956229
     49          6           0        5.002002    1.244752   -2.163733
     50          6           0        6.493628    0.573514   -0.259307
     51          6           0        7.682996   -0.107325   -0.995841
     52          6           0        8.922575    0.007318   -0.208532
     53          6           0       10.172736   -0.509512   -0.930547
     54          6           0        9.916659   -1.936035   -1.426629
     55          6           0       11.414573   -0.238356   -0.043055
     56          6           0       12.784226   -0.596223   -0.567768
     57          6           0       13.988989   -0.107622    0.262501
     58          6           0       15.404470   -0.284008   -0.440457
     59          6           0       15.741399   -1.839489   -0.631056
     60          6           0       16.427631    0.420049    0.420545
     61          6           0       17.929892    0.368131   -0.262417
     62          6           0       18.853607    1.279918    0.617886
     63          6           0       20.308384    1.271011    0.151001
     64          6           0       20.328228    1.981335   -1.287946
     65          6           0       21.294354    1.878240    1.074710
     66          1           0       -4.096497    3.556528    1.485390
     67          1           0      -10.158795    3.740467   -0.508489
     68          1           0      -10.372044   -2.608122   -1.465983
     69          1           0       -2.495434   -1.038219    2.143231
     70          1           0       -2.356069    1.681201    1.154579
     71          1           0       -1.849822    1.352172    3.736375
     72          1           0       -2.931785    2.403693    3.290147
     73          1           0       -3.761756    1.026579    3.797402
     74          1           0       -2.049322   -1.589953   -0.298832
     75          1           0       -2.136378   -0.143223   -0.865991
     76          1           0       -0.510692    0.575683    0.979738
     77          1           0        0.031822   -0.919892    1.305492
     78          1           0       -5.800878    6.813104    0.734168
     79          1           0       -5.500811    6.084040    2.403804
     80          1           0       -4.459572    5.602738    1.046430
     81          1           0       -9.389179    6.010675   -0.495336
     82          1           0       -9.226981    7.960756    0.766671
     83          1           0       -7.903144    7.139442    1.765157
     84          1           0      -12.092414    3.023071   -2.565059
     85          1           0      -13.058560    1.722733   -1.504825
     86          1           0      -12.082309    2.864049   -0.474107
     87          1           0      -12.221336   -1.825002   -1.398848
     88          1           0      -13.299893   -0.350099   -1.600287
     89          1           0      -13.053783   -1.579865   -3.682994
     90          1           0      -12.382051   -0.109201   -3.824012
     91          1           0      -11.436038   -1.400281   -3.635378
     92          1           0       -8.895641   -5.030857   -1.877985
     93          1           0       -8.026523   -5.656480   -0.443990
     94          1           0       -9.705042   -4.808316   -0.163066
     95          1           0       -3.439401   -3.339330   -0.249206
     96          1           0       -1.885320   -4.128732    3.501277
     97          1           0       -3.191736   -5.243113    3.823932
     98          1           0       -1.655111   -5.879728    2.908844
     99          1           0        2.839790   -1.705567   -1.410451
    100          1           0        2.523484    0.028386   -1.932124
    101          1           0        4.300162   -0.502943    0.569465
    102          1           0        3.916466    1.342851   -2.487917
    103          1           0        5.303839    2.259434   -2.105081
    104          1           0        5.599515    0.614681   -2.866659
    105          1           0        6.580059    1.726348   -0.194020
    106          1           0        6.486995    0.082841    0.685915
    107          1           0        7.280055   -1.153405   -1.202041
    108          1           0        7.848172    0.340660   -1.922724
    109          1           0        8.866156    1.222335   -0.052552
    110          1           0        8.737490   -0.577041    0.690988
    111          1           0       10.316825    0.185547   -1.747089
    112          1           0        8.977186   -1.888159   -2.161373
    113          1           0       10.876970   -2.311184   -1.974009
    114          1           0        9.659827   -2.803128   -0.523971
    115          1           0       11.435344    0.822816    0.181339
    116          1           0       11.524195   -0.768473    1.069305
    117          1           0       12.869535   -1.705971   -0.776597
    118          1           0       13.017841   -0.039492   -1.516724
    119          1           0       13.940277    0.905954    0.504998
    120          1           0       13.985144   -0.634548    1.129566
    121          1           0       15.352490    0.330060   -1.554845
    122          1           0       15.664244   -2.459447    0.350542
    123          1           0       14.811930   -2.283043   -1.152373
    124          1           0       16.594801   -1.921653   -1.182648
    125          1           0       16.030796    1.361999    0.740411
    126          1           0       16.649694   -0.067940    1.365202
    127          1           0       18.246356   -0.619760   -0.173793
    128          1           0       17.902382    0.793805   -1.311400
    129          1           0       18.451157    2.348070    0.980092
    130          1           0       18.873960    0.941173    1.782551
    131          1           0       20.437467    0.236347   -0.070468
    132          1           0       20.157876    2.962849   -1.079292
    133          1           0       21.398340    2.020594   -1.486647
    134          1           0       19.692691    1.548226   -1.878934
    135          1           0       21.487659    1.242053    2.040535
    136          1           0       22.375276    2.045900    0.836259
    137          1           0       21.110905    2.865436    1.463897
 ---------------------------------------------------------------------

 SCF Done:  E(RCAM-B3LYP) =  -2932.66155073     A.U. after   17 cycles

 Excitation energies and oscillator strengths:

 Excited State   1:      Singlet-A      2.0460 eV  605.98 nm  f=0.1837  <S**2>=0.000
     240 -> 243        0.29967
     241 -> 242        0.63647
 This state for optimization and/or second-order correction.
 Total Energy, E(TD-HF/TD-KS) =  -2932.58636174
 Copying the excited state density for this state as the 1-particle RhoCI density.

 The electronic state is 1-A.
 Alpha  occ. eigenvalues --  -46.83299 -19.25831 -19.25596 -19.21461 -19.21253
 Alpha  occ. eigenvalues --  -19.19753 -14.42066 -14.38997 -14.38713 -14.37977
 Alpha  occ. eigenvalues --  -10.39462 -10.39081 -10.35911 -10.32283 -10.31227
 Alpha  occ. eigenvalues --  -10.30975 -10.30429 -10.29144 -10.28923 -10.28832
 Alpha  occ. eigenvalues --  -10.28732 -10.28526 -10.28458 -10.28380 -10.28298
 Alpha  occ. eigenvalues --  -10.28010 -10.27994 -10.27909 -10.27824 -10.27575
 Alpha  occ. eigenvalues --  -10.27451 -10.27291 -10.27140 -10.27134 -10.27026
 Alpha  occ. eigenvalues --  -10.26983 -10.26974 -10.26920 -10.26679 -10.26628
 Alpha  occ. eigenvalues --  -10.26593 -10.26560 -10.26470 -10.26340 -10.26302
 Alpha  occ. eigenvalues --  -10.26263 -10.26201 -10.26172 -10.25917 -10.25761
 Alpha  occ. eigenvalues --  -10.25748 -10.25718 -10.25579 -10.25568 -10.25421
 Alpha  occ. eigenvalues --  -10.25321 -10.25015 -10.24943 -10.24935 -10.24820
 Alpha  occ. eigenvalues --  -10.24672 -10.24623 -10.23793 -10.22043 -10.21363
 Alpha  occ. eigenvalues --   -3.12349  -1.87056  -1.86593  -1.86517  -1.18247
 Alpha  occ. eigenvalues --   -1.16863  -1.12757  -1.09641  -1.06464  -1.04141
 Alpha  occ. eigenvalues --   -1.03011  -1.01869  -1.00090  -0.92929  -0.92068
 Alpha  occ. eigenvalues --   -0.90784  -0.90304  -0.89528  -0.89478  -0.88641
 Alpha  occ. eigenvalues --   -0.88374  -0.87754  -0.87590  -0.87351  -0.86419
 Alpha  occ. eigenvalues --   -0.85665  -0.84583  -0.83712  -0.83526  -0.83083
 Alpha  occ. eigenvalues --   -0.82125  -0.80835  -0.80594  -0.79796  -0.78894
 Alpha  occ. eigenvalues --   -0.77654  -0.76974  -0.76552  -0.76385  -0.75996
 Alpha  occ. eigenvalues --   -0.75315  -0.74832  -0.74251  -0.73609  -0.72363
 Alpha  occ. eigenvalues --   -0.72048  -0.70815  -0.69811  -0.69563  -0.67936
 Alpha  occ. eigenvalues --   -0.67589  -0.66650  -0.65203  -0.64753  -0.64531
 Alpha  occ. eigenvalues --   -0.63130  -0.63125  -0.62789  -0.62498  -0.61520
 Alpha  occ. eigenvalues --   -0.61269  -0.60995  -0.60224  -0.59910  -0.59373
 Alpha  occ. eigenvalues --   -0.58735  -0.57737  -0.57497  -0.57074  -0.56525
 Alpha  occ. eigenvalues --   -0.55992  -0.55897  -0.55574  -0.55027  -0.54867
 Alpha  occ. eigenvalues --   -0.54433  -0.54175  -0.54139  -0.53764  -0.53449
 Alpha  occ. eigenvalues --   -0.53269  -0.52915  -0.52715  -0.52604  -0.52363
 Alpha  occ. eigenvalues --   -0.52116  -0.51260  -0.51227  -0.50965  -0.50596
 Alpha  occ. eigenvalues --   -0.50405  -0.50066  -0.49823  -0.49788  -0.49691
 Alpha  occ. eigenvalues --   -0.49408  -0.49340  -0.49138  -0.48779  -0.48437
 Alpha  occ. eigenvalues --   -0.48242  -0.47968  -0.47636  -0.47466  -0.47280
 Alpha  occ. eigenvalues --   -0.47091  -0.46819  -0.46560  -0.46429  -0.46227
 Alpha  occ. eigenvalues --   -0.46029  -0.45895  -0.45467  -0.45066  -0.45007
 Alpha  occ. eigenvalues --   -0.44688  -0.44633  -0.44522  -0.44101  -0.44025
 Alpha  occ. eigenvalues --   -0.43883  -0.43753  -0.43501  -0.43402  -0.43101
 Alpha  occ. eigenvalues --   -0.42886  -0.42752  -0.42466  -0.42434  -0.42390
 Alpha  occ. eigenvalues --   -0.42175  -0.41937  -0.41732  -0.41650  -0.41580
 Alpha  occ. eigenvalues --   -0.41309  -0.41005  -0.40753  -0.40631  -0.40240
 Alpha  occ. eigenvalues --   -0.40138  -0.39688  -0.39623  -0.39439  -0.39356
 Alpha  occ. eigenvalues --   -0.38924  -0.38743  -0.38600  -0.38009  -0.37547
 Alpha  occ. eigenvalues --   -0.37451  -0.37318  -0.36865  -0.36800  -0.36579
 Alpha  occ. eigenvalues --   -0.36412  -0.36314  -0.35679  -0.35567  -0.35519
 Alpha  occ. eigenvalues --   -0.35165  -0.34827  -0.34108  -0.33878  -0.33324
 Alpha  occ. eigenvalues --   -0.32908  -0.32685  -0.32207  -0.30922  -0.29927
 Alpha  occ. eigenvalues --   -0.29766  -0.28938  -0.27609  -0.27443  -0.22849
 Alpha  occ. eigenvalues --   -0.20877
 Alpha virt. eigenvalues --   -0.05861  -0.03439   0.02102   0.04435   0.05405
 Alpha virt. eigenvalues --    0.06313   0.06505   0.06752   0.07108   0.07529
 Alpha virt. eigenvalues --    0.08632   0.10438   0.11367   0.11618   0.11849

 Mulliken charges:
               1
     1  Mg   0.800927
     2  C    0.050552
     3  C   -0.223826
     4  C   -0.212151
     5  C   -0.180639
     6  N   -0.627810
     7  C    0.312783
     8  C   -0.129468
     9  C   -0.157387
    10  C    0.336222
    11  C   -0.313066
    12  C   -0.196018
    13  C   -0.248082
    14  C    0.579539
    15  O   -0.505860
    16  O   -0.489452
    17  N   -0.700237
    18  C    0.337097
    19  C    0.046692
    20  C    0.018772
    21  C    0.291737
    22  C   -0.387619
    23  C   -0.074646
    24  C   -0.217508
    25  N   -0.718246
    26  C    0.311048
    27  C    0.012334
    28  C   -0.013605
    29  C    0.320220
    30  C   -0.349494
    31  C   -0.241697
    32  C   -0.277845
    33  N   -0.736060
    34  C    0.237794
    35  C    0.021208
    36  C   -0.031416
    37  C    0.339738
    38  C   -0.364967
    39  C    0.380788
    40  O   -0.428170
    41  C   -0.339097
    42  C    0.625912
    43  O   -0.467325
    44  O   -0.465488
    45  C   -0.079630
    46  C    0.017969
    47  C   -0.124945
    48  C    0.106822
    49  C   -0.357757
    50  C   -0.213757
    51  C   -0.190265
    52  C   -0.147865
    53  C   -0.051449
    54  C   -0.294138
    55  C   -0.155798
    56  C   -0.184395
    57  C   -0.179957
    58  C   -0.049171
    59  C   -0.314389
    60  C   -0.174648
    61  C   -0.197812
    62  C   -0.165821
    63  C   -0.047904
    64  C   -0.304584
    65  C   -0.332435
    66  H    0.072965
    67  H    0.067228
    68  H    0.086859
    69  H    0.125904
    70  H    0.117110
    71  H    0.102505
    72  H    0.115160
    73  H    0.128600
    74  H    0.129057
    75  H    0.107236
    76  H    0.134908
    77  H    0.131571
    78  H    0.111238
    79  H    0.108956
    80  H    0.125819
    81  H    0.099164
    82  H    0.099855
    83  H    0.099191
    84  H    0.114111
    85  H    0.108829
    86  H    0.129917
    87  H    0.084969
    88  H    0.102851
    89  H    0.108902
    90  H    0.100387
    91  H    0.115106
    92  H    0.127721
    93  H    0.150715
    94  H    0.132686
    95  H    0.157258
    96  H    0.118604
    97  H    0.149367
    98  H    0.135951
    99  H    0.120799
   100  H    0.126786
   101  H    0.097412
   102  H    0.107803
   103  H    0.120391
   104  H    0.125627
   105  H    0.082197
   106  H    0.102868
   107  H    0.095180
   108  H    0.100330
   109  H    0.071342
   110  H    0.097494
   111  H    0.097473
   112  H    0.101056
   113  H    0.101367
   114  H    0.075665
   115  H    0.094900
   116  H    0.055227
   117  H    0.087809
   118  H    0.077530
   119  H    0.091515
   120  H    0.098942
   121  H    0.046461
   122  H    0.095494
   123  H    0.092714
   124  H    0.117509
   125  H    0.093094
   126  H    0.097521
   127  H    0.119533
   128  H    0.099386
   129  H    0.072183
   130  H    0.055522
   131  H    0.092503
   132  H    0.109540
   133  H    0.096386
   134  H    0.102904
   135  H    0.085770
   136  H    0.099150
   137  H    0.109659
 Sum of Mulliken charges =   0.00000

 Dipole moment (field-independent basis, Debye):
    X=              2.9585    Y=              3.6587    Z=              0.9613  Tot=              4.8024
 Quadrupole moment (field-independent basis, Debye-Ang):
   XX=           -351.4185   YY=           -390.5686   ZZ=           -396.3947
   XY=            -10.9082   XZ=             12.9019   YZ=              1.0709

 Normal termination of Gaussian 09 at Thu Jul  4 11:09:19 2019.
