 Gaussian 09, Revision D.01,
 Gaussian 09:  ES64L-G09RevD.01 24-Apr-2013

 -------------------------------------
 # td=(NStates=1) CAM-B3LYP/6-31G(d,p)
 -------------------------------------

 --
 TD
 --
 Symbolic Z-matrix:
 Charge =  0 Multiplicity = 1

                         Standard orientation:
 ---------------------------------------------------------------------
 Center     Atomic      Atomic             Coordinates (Angstroms)
 Number     Number       Type             X           Y           Z
 ---------------------------------------------------------------------
      1         12           0       -7.063189    0.640871   -0.004092
      2          6           0       -4.840784   -2.027399    0.433579
      3          6           0       -4.754607    2.800422    0.928388
      4          6           0       -9.442654    3.180741   -0.405659
      5          6           0       -9.583054   -1.648533   -0.812212
      6          7           0       -5.166820    0.473278    0.613736
      7          6           0       -4.389971   -0.682248    0.785827
      8          6           0       -2.933588   -0.350737    1.136766
      9          6           0       -2.940304    1.071032    1.619358
     10          6           0       -4.383193    1.494365    1.057727
     11          6           0       -2.994689    1.157396    3.233948
     12          6           0       -1.902487   -0.588707   -0.061220
     13          6           0       -0.454107   -0.480893    0.632798
     14          6           0        0.497757   -0.769431   -0.543212
     15          8           0        0.272518   -1.245863   -1.597895
     16          8           0        1.785808   -0.654127   -0.111738
     17          7           0       -7.152835    2.686482    0.287979
     18          6           0       -6.028341    3.377110    0.630163
     19          6           0       -6.416742    4.798098    0.691774
     20          6           0       -7.674953    4.943922    0.287131
     21          6           0       -8.169187    3.555738    0.036091
     22          6           0       -5.503047    5.875573    1.315151
     23          6           0       -8.547728    6.061078    0.097893
     24          6           0       -8.508612    7.239047    0.682148
     25          7           0       -9.109836    0.687150   -0.586731
     26          6           0       -9.805155    1.890888   -0.646344
     27          6           0      -11.159985    1.606232   -1.038037
     28          6           0      -11.274890    0.143598   -1.210038
     29          6           0       -9.964884   -0.376287   -0.861435
     30          6           0      -12.248624    2.517820   -1.293139
     31          6           0      -12.445900   -0.611776   -1.663929
     32          6           0      -12.482856   -1.183798   -3.052052
     33          7           0       -7.224535   -1.306095   -0.212466
     34          6           0       -8.315413   -2.238465   -0.624054
     35          6           0       -7.859703   -3.538904   -0.608244
     36          6           0       -6.524698   -3.486768   -0.138022
     37          6           0       -6.170880   -2.189589    0.048451
     38          6           0       -8.687351   -4.812226   -0.960725
     39          6           0       -5.406454   -4.381649    0.201595
     40          8           0       -5.253334   -5.584748    0.164531
     41          6           0       -4.239406   -3.358477    0.503886
     42          6           0       -3.589636   -3.635895    1.826761
     43          8           0       -3.819902   -2.971092    2.849377
     44          8           0       -2.921953   -4.811788    1.777209
     45          6           0       -2.078581   -5.086913    2.941101
     46          6           0        2.781462   -0.841685   -1.163188
     47          6           0        4.211002   -0.598428   -0.416319
     48          6           0        5.104155    0.187425   -0.901583
     49          6           0        5.009841    0.942793   -2.249681
     50          6           0        6.430075    0.215203   -0.113904
     51          6           0        7.673812   -0.314799   -0.799333
     52          6           0        8.859641   -0.196801    0.103455
     53          6           0       10.144982   -0.589427   -0.678684
     54          6           0       10.084798   -2.108328   -1.092930
     55          6           0       11.442660   -0.343747    0.163386
     56          6           0       12.801495   -0.551916   -0.564801
     57          6           0       14.041035   -0.016219    0.257029
     58          6           0       15.403678   -0.049697   -0.407841
     59          6           0       15.747373   -1.454554   -0.798394
     60          6           0       16.512513    0.630416    0.445994
     61          6           0       17.863260    0.616456   -0.221338
     62          6           0       18.937588    1.380627    0.666120
     63          6           0       20.291645    1.435863   -0.020214
     64          6           0       20.441921    2.072548   -1.378879
     65          6           0       21.200487    2.056037    0.995818
     66          1           0       -3.936010    3.451496    1.447881
     67          1           0      -10.148678    3.639692   -0.653657
     68          1           0      -10.260369   -2.233327   -1.164907
     69          1           0       -2.531128   -0.916889    1.959708
     70          1           0       -2.097873    1.605857    1.255953
     71          1           0       -1.788963    0.789709    3.404097
     72          1           0       -3.219336    2.222050    3.542631
     73          1           0       -3.714817    0.403424    3.717913
     74          1           0       -1.998696   -1.574775   -0.609667
     75          1           0       -1.940849    0.273591   -0.812856
     76          1           0       -0.365406    0.507199    0.747159
     77          1           0       -0.483856   -1.293290    1.564026
     78          1           0       -5.666551    6.769183    0.724546
     79          1           0       -5.498638    5.817097    2.315777
     80          1           0       -4.383301    5.661372    0.938498
     81          1           0       -9.310189    5.968778   -0.534949
     82          1           0       -9.303885    8.029177    0.531901
     83          1           0       -7.877965    7.400417    1.681040
     84          1           0      -11.781350    3.344706   -1.927291
     85          1           0      -13.240052    2.122918   -1.833830
     86          1           0      -12.509631    3.044614   -0.355109
     87          1           0      -12.557956   -1.594831   -1.146680
     88          1           0      -13.462650   -0.064556   -1.293017
     89          1           0      -13.647132   -1.590225   -3.299852
     90          1           0      -12.224871   -0.255932   -3.735028
     91          1           0      -11.722398   -2.188411   -3.186317
     92          1           0       -9.063840   -4.704768   -2.107027
     93          1           0       -8.000559   -5.708690   -0.887669
     94          1           0       -9.526949   -5.113125   -0.145875
     95          1           0       -3.430557   -3.571354   -0.135315
     96          1           0       -1.342989   -4.232805    3.318299
     97          1           0       -2.753842   -5.061239    3.801366
     98          1           0       -1.669344   -6.139642    2.781834
     99          1           0        2.415770   -1.819885   -1.419039
    100          1           0        2.688182   -0.066114   -1.918854
    101          1           0        4.371151   -1.290615    0.494788
    102          1           0        4.076178    1.066778   -2.515283
    103          1           0        5.535558    1.887393   -1.977552
    104          1           0        5.576078    0.528638   -3.075690
    105          1           0        6.586449    1.279397    0.167069
    106          1           0        6.025867   -0.330018    0.715173
    107          1           0        7.472703   -1.377364   -1.077844
    108          1           0        7.922294    0.326683   -1.585148
    109          1           0        8.867552    0.829127    0.566498
    110          1           0        8.730322   -0.799705    1.041998
    111          1           0       10.248571    0.083436   -1.666951
    112          1           0        9.291590   -2.393708   -1.803274
    113          1           0       11.115010   -2.497204   -1.554490
    114          1           0       10.185154   -2.802324   -0.193691
    115          1           0       11.225382    0.506816    0.583156
    116          1           0       11.667961   -1.099179    1.208969
    117          1           0       13.160032   -1.693066   -0.738867
    118          1           0       12.905118    0.121187   -1.595124
    119          1           0       13.819416    0.999518    0.678456
    120          1           0       13.995776   -0.699086    1.213363
    121          1           0       15.286391    0.719089   -1.272016
    122          1           0       15.897593   -2.284419   -0.023514
    123          1           0       15.031643   -2.038705   -1.531910
    124          1           0       16.811425   -1.550324   -1.252474
    125          1           0       16.116767    1.581958    0.821980
    126          1           0       16.602885    0.055278    1.291113
    127          1           0       18.343605   -0.399371   -0.453965
    128          1           0       17.885131    1.233332   -1.166522
    129          1           0       18.647312    2.481189    0.902668
    130          1           0       18.982550    0.950282    1.682849
    131          1           0       20.496279    0.398797   -0.139038
    132          1           0       20.303964    3.091289   -1.366800
    133          1           0       21.192677    1.926164   -2.079799
    134          1           0       19.672141    1.552402   -1.915890
    135          1           0       21.567137    1.577710    1.896525
    136          1           0       22.143243    2.201073    0.591538
    137          1           0       20.876851    3.184135    1.262052
 ---------------------------------------------------------------------

 SCF Done:  E(RCAM-B3LYP) =  -2932.58662639     A.U. after   18 cycles

 Excitation energies and oscillator strengths:

 Excited State   1:      Singlet-A      2.0287 eV  611.16 nm  f=0.2693  <S**2>=0.000
     240 -> 242       -0.13158
     240 -> 243        0.22959
     241 -> 242        0.64621
 This state for optimization and/or second-order correction.
 Total Energy, E(TD-HF/TD-KS) =  -2932.51207417
 Copying the excited state density for this state as the 1-particle RhoCI density.

 The electronic state is 1-A.
 Alpha  occ. eigenvalues --  -46.83025 -19.26811 -19.24511 -19.21449 -19.20700
 Alpha  occ. eigenvalues --  -19.20292 -14.42392 -14.40117 -14.38258 -14.38189
 Alpha  occ. eigenvalues --  -10.39121 -10.38874 -10.35007 -10.32728 -10.31695
 Alpha  occ. eigenvalues --  -10.31406 -10.31350 -10.31132 -10.30242 -10.29071
 Alpha  occ. eigenvalues --  -10.29037 -10.28764 -10.28546 -10.28499 -10.28474
 Alpha  occ. eigenvalues --  -10.28260 -10.28085 -10.28017 -10.27886 -10.27874
 Alpha  occ. eigenvalues --  -10.27841 -10.27559 -10.27251 -10.27231 -10.27226
 Alpha  occ. eigenvalues --  -10.27139 -10.27136 -10.27108 -10.26813 -10.26764
 Alpha  occ. eigenvalues --  -10.26718 -10.26680 -10.26595 -10.26511 -10.26431
 Alpha  occ. eigenvalues --  -10.26426 -10.26404 -10.26277 -10.26200 -10.26132
 Alpha  occ. eigenvalues --  -10.25860 -10.25833 -10.25752 -10.25676 -10.25635
 Alpha  occ. eigenvalues --  -10.25422 -10.25336 -10.25319 -10.25269 -10.25133
 Alpha  occ. eigenvalues --  -10.25098 -10.24391 -10.24328 -10.23714 -10.22858
 Alpha  occ. eigenvalues --   -3.12265  -1.86953  -1.86506  -1.86462  -1.18687
 Alpha  occ. eigenvalues --   -1.17270  -1.10852  -1.09473  -1.08035  -1.04431
 Alpha  occ. eigenvalues --   -1.03357  -1.01467  -1.00453  -0.92712  -0.91595
 Alpha  occ. eigenvalues --   -0.90585  -0.90372  -0.90203  -0.89948  -0.89364
 Alpha  occ. eigenvalues --   -0.88674  -0.87867  -0.87225  -0.85999  -0.85425
 Alpha  occ. eigenvalues --   -0.84832  -0.84374  -0.84268  -0.83135  -0.82609
 Alpha  occ. eigenvalues --   -0.81716  -0.80555  -0.79695  -0.79365  -0.77815
 Alpha  occ. eigenvalues --   -0.77622  -0.77297  -0.76713  -0.76091  -0.75462
 Alpha  occ. eigenvalues --   -0.74853  -0.74814  -0.74402  -0.73122  -0.72529
 Alpha  occ. eigenvalues --   -0.71055  -0.69818  -0.68975  -0.68019  -0.67782
 Alpha  occ. eigenvalues --   -0.66900  -0.66615  -0.65468  -0.64817  -0.64658
 Alpha  occ. eigenvalues --   -0.64485  -0.63402  -0.62453  -0.62299  -0.61880
 Alpha  occ. eigenvalues --   -0.61550  -0.61103  -0.60000  -0.59413  -0.59020
 Alpha  occ. eigenvalues --   -0.58517  -0.58410  -0.57338  -0.57124  -0.56692
 Alpha  occ. eigenvalues --   -0.56631  -0.55985  -0.55119  -0.54767  -0.54737
 Alpha  occ. eigenvalues --   -0.54672  -0.54198  -0.53639  -0.53410  -0.53037
 Alpha  occ. eigenvalues --   -0.52834  -0.52559  -0.52383  -0.51859  -0.51568
 Alpha  occ. eigenvalues --   -0.51287  -0.51253  -0.50962  -0.50871  -0.50485
 Alpha  occ. eigenvalues --   -0.50319  -0.50213  -0.49703  -0.49624  -0.49410
 Alpha  occ. eigenvalues --   -0.49104  -0.48990  -0.48795  -0.48554  -0.48183
 Alpha  occ. eigenvalues --   -0.47986  -0.47873  -0.47750  -0.47654  -0.47417
 Alpha  occ. eigenvalues --   -0.47155  -0.46565  -0.46299  -0.45741  -0.45641
 Alpha  occ. eigenvalues --   -0.45469  -0.45387  -0.45246  -0.44982  -0.44767
 Alpha  occ. eigenvalues --   -0.44429  -0.44367  -0.44250  -0.43816  -0.43776
 Alpha  occ. eigenvalues --   -0.43654  -0.43545  -0.43418  -0.43138  -0.42939
 Alpha  occ. eigenvalues --   -0.42841  -0.42474  -0.42391  -0.42042  -0.41980
 Alpha  occ. eigenvalues --   -0.41786  -0.41625  -0.41423  -0.41159  -0.40963
 Alpha  occ. eigenvalues --   -0.40851  -0.40647  -0.40571  -0.40446  -0.40313
 Alpha  occ. eigenvalues --   -0.39778  -0.39604  -0.39595  -0.39258  -0.38924
 Alpha  occ. eigenvalues --   -0.38756  -0.38596  -0.38307  -0.38109  -0.37844
 Alpha  occ. eigenvalues --   -0.37584  -0.37088  -0.36881  -0.36754  -0.36704
 Alpha  occ. eigenvalues --   -0.36500  -0.36284  -0.35860  -0.35624  -0.35507
 Alpha  occ. eigenvalues --   -0.35420  -0.35088  -0.34990  -0.34304  -0.33343
 Alpha  occ. eigenvalues --   -0.32966  -0.32750  -0.32015  -0.31186  -0.30973
 Alpha  occ. eigenvalues --   -0.29826  -0.28537  -0.28210  -0.26213  -0.23249
 Alpha  occ. eigenvalues --   -0.21458
 Alpha virt. eigenvalues --   -0.07007  -0.03042   0.01605   0.04059   0.05203
 Alpha virt. eigenvalues --    0.05524   0.06205   0.06844   0.07594   0.07687
 Alpha virt. eigenvalues --    0.07803   0.09957   0.10585   0.11185   0.11733

 Mulliken charges:
               1
     1  Mg   0.807484
     2  C    0.075985
     3  C   -0.230250
     4  C   -0.005819
     5  C   -0.122916
     6  N   -0.635434
     7  C    0.299581
     8  C   -0.139233
     9  C   -0.137213
    10  C    0.341963
    11  C   -0.294683
    12  C   -0.191462
    13  C   -0.250773
    14  C    0.582591
    15  O   -0.445315
    16  O   -0.500068
    17  N   -0.696463
    18  C    0.340281
    19  C   -0.052787
    20  C    0.071769
    21  C    0.279259
    22  C   -0.360407
    23  C   -0.050958
    24  C   -0.256294
    25  N   -0.716308
    26  C    0.307450
    27  C    0.006117
    28  C    0.052750
    29  C    0.304076
    30  C   -0.392006
    31  C   -0.263666
    32  C   -0.268579
    33  N   -0.745224
    34  C    0.230909
    35  C    0.040165
    36  C   -0.022425
    37  C    0.319875
    38  C   -0.368185
    39  C    0.384469
    40  O   -0.454936
    41  C   -0.342664
    42  C    0.617091
    43  O   -0.490190
    44  O   -0.446988
    45  C   -0.096444
    46  C    0.011934
    47  C   -0.141610
    48  C    0.098550
    49  C   -0.344661
    50  C   -0.231238
    51  C   -0.155915
    52  C   -0.177696
    53  C   -0.059071
    54  C   -0.313424
    55  C   -0.131854
    56  C   -0.160065
    57  C   -0.174589
    58  C   -0.034078
    59  C   -0.323870
    60  C   -0.170677
    61  C   -0.188344
    62  C   -0.168843
    63  C   -0.055136
    64  C   -0.317576
    65  C   -0.313001
    66  H    0.076001
    67  H   -0.023244
    68  H    0.057110
    69  H    0.117525
    70  H    0.108536
    71  H    0.075949
    72  H    0.113315
    73  H    0.143441
    74  H    0.130982
    75  H    0.105951
    76  H    0.142420
    77  H    0.135140
    78  H    0.133510
    79  H    0.142849
    80  H    0.088657
    81  H    0.094320
    82  H    0.102280
    83  H    0.094823
    84  H    0.113314
    85  H    0.113674
    86  H    0.125808
    87  H    0.110428
    88  H    0.091834
    89  H    0.083626
    90  H    0.099848
    91  H    0.088225
    92  H    0.108360
    93  H    0.146855
    94  H    0.114214
    95  H    0.162331
    96  H    0.112983
    97  H    0.145386
    98  H    0.134799
    99  H    0.135417
   100  H    0.111658
   101  H    0.095134
   102  H    0.117207
   103  H    0.105577
   104  H    0.129818
   105  H    0.087945
   106  H    0.099739
   107  H    0.105956
   108  H    0.102576
   109  H    0.083772
   110  H    0.094722
   111  H    0.075559
   112  H    0.105605
   113  H    0.085221
   114  H    0.101673
   115  H    0.101817
   116  H    0.041162
   117  H    0.091598
   118  H    0.060774
   119  H    0.077750
   120  H    0.065365
   121  H    0.078852
   122  H    0.099449
   123  H    0.095535
   124  H    0.090418
   125  H    0.094872
   126  H    0.102456
   127  H    0.091019
   128  H    0.096740
   129  H    0.070865
   130  H    0.096888
   131  H    0.089013
   132  H    0.108458
   133  H    0.113255
   134  H    0.097978
   135  H    0.100819
   136  H    0.099890
   137  H    0.073235
 Sum of Mulliken charges =   0.00000

 Dipole moment (field-independent basis, Debye):
    X=              2.5956    Y=              5.0133    Z=              0.5262  Tot=              5.6699
 Quadrupole moment (field-independent basis, Debye-Ang):
   XX=           -342.4741   YY=           -394.6416   ZZ=           -398.1018
   XY=            -31.4863   XZ=              4.7778   YZ=             -3.0316

 Normal termination of Gaussian 09 at Sat Jul  6 18:45:14 2019.
