 Gaussian 16, Revision A.03,
 Gaussian 16:  ES64L-G16RevA.03 25-Dec-2016

 ----------------------------------------------------------------------
 # td=(NStates=1) iop(3/107=0140000000,3/108=0140000000) CAM-B3LYP/6-31
 G(d,p)
 ----------------------------------------------------------------------

 --
 TD
 --
 Symbolic Z-matrix:
 Charge =  0 Multiplicity = 1

                         Standard orientation:
 ---------------------------------------------------------------------
 Center     Atomic      Atomic             Coordinates (Angstroms)
 Number     Number       Type             X           Y           Z
 ---------------------------------------------------------------------
      1         12           0       -7.174785    0.611928    0.157080
      2          6           0       -4.780375   -1.972370    0.561284
      3          6           0       -4.720172    2.780704    1.210442
      4          6           0       -9.350000    3.073092   -0.260381
      5          6           0       -9.503960   -1.704076   -0.907324
      6          7           0       -5.050108    0.401031    0.703844
      7          6           0       -4.279205   -0.799718    0.762747
      8          6           0       -2.835388   -0.534627    1.239878
      9          6           0       -2.967762    0.990536    1.734145
     10          6           0       -4.328775    1.453959    1.236935
     11          6           0       -2.889702    1.145126    3.196220
     12          6           0       -1.892879   -0.647274    0.053411
     13          6           0       -0.377249   -0.264991    0.480728
     14          6           0        0.542646   -0.441983   -0.677750
     15          8           0        0.147092   -0.957879   -1.732994
     16          8           0        1.812379   -0.109151   -0.328758
     17          7           0       -7.043355    2.570928    0.513462
     18          6           0       -6.032549    3.311714    0.823625
     19          6           0       -6.349391    4.687968    0.963583
     20          6           0       -7.676362    4.783536    0.449878
     21          6           0       -8.051771    3.429460    0.148923
     22          6           0       -5.360387    5.730862    1.191362
     23          6           0       -8.367113    5.947171    0.147724
     24          6           0       -8.436503    7.242673    0.775955
     25          7           0       -9.145588    0.681813   -0.511087
     26          6           0       -9.870194    1.841096   -0.568335
     27          6           0      -11.212335    1.502444   -1.138375
     28          6           0      -11.219691    0.169165   -1.333495
     29          6           0       -9.970013   -0.272575   -0.823723
     30          6           0      -12.293281    2.461353   -1.287254
     31          6           0      -12.327240   -0.710418   -1.783138
     32          6           0      -12.097809   -0.941209   -3.297410
     33          7           0       -7.173100   -1.338235   -0.296626
     34          6           0       -8.242577   -2.177505   -0.576035
     35          6           0       -7.837977   -3.620776   -0.622285
     36          6           0       -6.476447   -3.547224   -0.145237
     37          6           0       -6.260612   -2.151071    0.143332
     38          6           0       -8.735554   -4.752045   -0.806146
     39          6           0       -5.430627   -4.451534    0.164215
     40          8           0       -5.397121   -5.685214    0.270678
     41          6           0       -4.296451   -3.437473    0.476690
     42          6           0       -3.631616   -3.827886    1.812549
     43          8           0       -3.765157   -3.383105    2.925098
     44          8           0       -2.831498   -4.944419    1.663956
     45          6           0       -2.360395   -5.496755    2.900865
     46          6           0        2.820315   -0.461917   -1.340814
     47          6           0        4.186834   -0.237804   -0.687500
     48          6           0        5.052896    0.630349   -1.051508
     49          6           0        4.973640    1.489546   -2.208475
     50          6           0        6.389709    0.616061   -0.152942
     51          6           0        7.575549   -0.167924   -0.983724
     52          6           0        8.858021   -0.091804   -0.173840
     53          6           0       10.175283   -0.471238   -0.886336
     54          6           0       10.057674   -1.933955   -1.476730
     55          6           0       11.395994   -0.251380   -0.040269
     56          6           0       12.740999   -0.344603   -0.823837
     57          6           0       13.941271   -0.021333    0.095797
     58          6           0       15.249218   -0.165136   -0.434439
     59          6           0       15.595450   -1.467335   -1.110145
     60          6           0       16.435806    0.155894    0.500286
     61          6           0       17.718792    0.504681   -0.190768
     62          6           0       18.828360    1.012606    0.872505
     63          6           0       20.180072    1.103434    0.393185
     64          6           0       20.489409    1.955727   -0.910516
     65          6           0       21.066557    1.698287    1.388585
     66          1           0       -3.970643    3.502055    1.651960
     67          1           0      -10.034264    3.879820   -0.419502
     68          1           0      -10.197499   -2.519907   -1.356756
     69          1           0       -2.605674   -1.208136    1.909582
     70          1           0       -2.224834    1.595793    1.126416
     71          1           0       -1.898615    1.000389    3.710999
     72          1           0       -3.232324    2.121122    3.566758
     73          1           0       -3.284636    0.528337    3.801952
     74          1           0       -1.917671   -1.574120   -0.218915
     75          1           0       -2.368681    0.037230   -0.955301
     76          1           0       -0.369187    0.752406    1.030956
     77          1           0       -0.021679   -0.858291    1.317715
     78          1           0       -5.424488    6.761270    0.460401
     79          1           0       -5.662582    6.324701    2.205076
     80          1           0       -4.237455    5.539782    1.236398
     81          1           0       -9.119268    5.820661   -0.698783
     82          1           0       -9.232607    7.964202    0.391266
     83          1           0       -7.785741    7.479338    1.594520
     84          1           0      -12.059491    3.193691   -2.100282
     85          1           0      -13.311543    2.067034   -1.609736
     86          1           0      -12.323931    3.073197   -0.397669
     87          1           0      -12.520621   -1.595585   -1.371730
     88          1           0      -13.306788   -0.001370   -1.507692
     89          1           0      -12.720796   -1.830352   -3.718419
     90          1           0      -11.865109   -0.013560   -3.773434
     91          1           0      -11.115841   -1.465028   -3.357520
     92          1           0       -8.965448   -4.914486   -1.971923
     93          1           0       -8.248217   -5.639376   -0.571352
     94          1           0       -9.760839   -4.630163   -0.228600
     95          1           0       -3.358836   -3.362734   -0.258480
     96          1           0       -1.635931   -4.706554    3.594261
     97          1           0       -3.128455   -5.930647    3.541171
     98          1           0       -1.797605   -6.303353    2.783317
     99          1           0        2.837140   -1.462129   -1.834354
    100          1           0        2.692553    0.197991   -2.218293
    101          1           0        4.530635   -0.715623    0.252596
    102          1           0        4.125706    1.527895   -2.714615
    103          1           0        5.472454    2.420904   -2.063544
    104          1           0        5.925713    1.344311   -2.826129
    105          1           0        6.681448    1.586243    0.181428
    106          1           0        6.192137   -0.198636    0.710188
    107          1           0        7.266499   -1.152760   -1.025181
    108          1           0        7.763788    0.307246   -2.134358
    109          1           0        8.884378    1.045848    0.271541
    110          1           0        8.919904   -0.596034    0.756272
    111          1           0       10.037037    0.127401   -1.879020
    112          1           0        9.106688   -1.998577   -2.311423
    113          1           0       11.135832   -2.270562   -1.691381
    114          1           0        9.851866   -2.605697   -0.655756
    115          1           0       11.254837    0.826230    0.312500
    116          1           0       11.566051   -1.006791    0.738480
    117          1           0       12.877248   -1.327923   -1.212594
    118          1           0       12.685193    0.495686   -1.611640
    119          1           0       13.762600    0.967809    0.503530
    120          1           0       13.885274   -0.773268    0.876388
    121          1           0       15.460699    0.588390   -1.345928
    122          1           0       15.391086   -2.232301   -0.255772
    123          1           0       15.272367   -1.904207   -2.091393
    124          1           0       16.739209   -1.512461   -1.264906
    125          1           0       15.999877    1.237025    1.176925
    126          1           0       16.500793   -0.556227    1.334178
    127          1           0       18.107434   -0.378931   -0.627252
    128          1           0       17.711971    1.277407   -0.996609
    129          1           0       18.379755    2.171064    1.159477
    130          1           0       18.764615    0.356275    1.962133
    131          1           0       20.725086    0.090926    0.082332
    132          1           0       19.945870    2.890210   -0.832799
    133          1           0       21.441120    2.032191   -1.088002
    134          1           0       19.929302    1.396321   -1.648859
    135          1           0       21.364531    1.172937    2.275879
    136          1           0       22.218124    1.752764    1.120106
    137          1           0       20.684589    2.768939    1.916543
 ---------------------------------------------------------------------

 SCF Done:  E(RCAM-B3LYP) =  -2933.39072852     A.U. after   16 cycles

 Excitation energies and oscillator strengths:

 Excited State   1:      Singlet-A      1.8886 eV  656.50 nm  f=0.2698  <S**2>=0.000
     240 -> 243       -0.14315
     241 -> 242        0.68148
 This state for optimization and/or second-order correction.
 Total Energy, E(TD-HF/TD-DFT) =  -2933.32132524
 Copying the excited state density for this state as the 1-particle RhoCI density.

 The electronic state is 1-A.
 Alpha  occ. eigenvalues --  -46.80816 -19.22900 -19.21063 -19.16725 -19.16574
 Alpha  occ. eigenvalues --  -19.16430 -14.36649 -14.36409 -14.35713 -14.35426
 Alpha  occ. eigenvalues --  -10.34593 -10.34085 -10.31005 -10.28028 -10.26088
 Alpha  occ. eigenvalues --  -10.26067 -10.25785 -10.25698 -10.25597 -10.25447
 Alpha  occ. eigenvalues --  -10.25077 -10.25058 -10.25030 -10.24998 -10.24873
 Alpha  occ. eigenvalues --  -10.24554 -10.24175 -10.24111 -10.23642 -10.23543
 Alpha  occ. eigenvalues --  -10.23540 -10.23517 -10.23213 -10.23100 -10.23094
 Alpha  occ. eigenvalues --  -10.23020 -10.22826 -10.22722 -10.22580 -10.22487
 Alpha  occ. eigenvalues --  -10.22346 -10.22344 -10.22202 -10.22194 -10.22162
 Alpha  occ. eigenvalues --  -10.22108 -10.22092 -10.22016 -10.21966 -10.21885
 Alpha  occ. eigenvalues --  -10.21657 -10.21614 -10.21595 -10.21590 -10.21369
 Alpha  occ. eigenvalues --  -10.21368 -10.21257 -10.21234 -10.21189 -10.21142
 Alpha  occ. eigenvalues --  -10.20605 -10.20158 -10.20017 -10.19386 -10.18944
 Alpha  occ. eigenvalues --   -3.09394  -1.84336  -1.83874  -1.83796  -1.12122
 Alpha  occ. eigenvalues --   -1.12026  -1.05270  -1.03483  -1.03207  -1.01008
 Alpha  occ. eigenvalues --   -1.00542  -0.99934  -0.95843  -0.87352  -0.86592
 Alpha  occ. eigenvalues --   -0.86232  -0.84963  -0.84955  -0.84540  -0.84116
 Alpha  occ. eigenvalues --   -0.83990  -0.83826  -0.83197  -0.82135  -0.80563
 Alpha  occ. eigenvalues --   -0.80223  -0.79437  -0.78750  -0.77950  -0.77813
 Alpha  occ. eigenvalues --   -0.76908  -0.75948  -0.75429  -0.75159  -0.74408
 Alpha  occ. eigenvalues --   -0.73611  -0.72502  -0.71925  -0.71556  -0.71484
 Alpha  occ. eigenvalues --   -0.70395  -0.70262  -0.69197  -0.68768  -0.68124
 Alpha  occ. eigenvalues --   -0.67333  -0.66088  -0.65457  -0.65049  -0.64796
 Alpha  occ. eigenvalues --   -0.63988  -0.62557  -0.61433  -0.60523  -0.60339
 Alpha  occ. eigenvalues --   -0.59834  -0.59377  -0.58044  -0.57736  -0.57451
 Alpha  occ. eigenvalues --   -0.56838  -0.56718  -0.55944  -0.55702  -0.55428
 Alpha  occ. eigenvalues --   -0.54747  -0.54419  -0.54248  -0.52938  -0.52400
 Alpha  occ. eigenvalues --   -0.52249  -0.52164  -0.52123  -0.51385  -0.50832
 Alpha  occ. eigenvalues --   -0.50680  -0.50485  -0.49812  -0.49433  -0.49292
 Alpha  occ. eigenvalues --   -0.49078  -0.48805  -0.48707  -0.48186  -0.48085
 Alpha  occ. eigenvalues --   -0.47727  -0.47625  -0.47285  -0.47130  -0.46820
 Alpha  occ. eigenvalues --   -0.46704  -0.46333  -0.46191  -0.46121  -0.45769
 Alpha  occ. eigenvalues --   -0.45498  -0.45331  -0.45291  -0.45037  -0.44818
 Alpha  occ. eigenvalues --   -0.44690  -0.44120  -0.44019  -0.43734  -0.43341
 Alpha  occ. eigenvalues --   -0.43305  -0.43244  -0.42891  -0.42568  -0.42491
 Alpha  occ. eigenvalues --   -0.42278  -0.42263  -0.41798  -0.41719  -0.41603
 Alpha  occ. eigenvalues --   -0.41332  -0.41070  -0.41029  -0.40864  -0.40574
 Alpha  occ. eigenvalues --   -0.40440  -0.40363  -0.40236  -0.40137  -0.39999
 Alpha  occ. eigenvalues --   -0.39954  -0.39615  -0.39553  -0.39473  -0.39416
 Alpha  occ. eigenvalues --   -0.39287  -0.39031  -0.38470  -0.38420  -0.38152
 Alpha  occ. eigenvalues --   -0.37999  -0.37447  -0.37158  -0.37070  -0.36938
 Alpha  occ. eigenvalues --   -0.36636  -0.36471  -0.36324  -0.35893  -0.35866
 Alpha  occ. eigenvalues --   -0.35680  -0.35568  -0.34994  -0.34658  -0.34326
 Alpha  occ. eigenvalues --   -0.34233  -0.33765  -0.33691  -0.33216  -0.33051
 Alpha  occ. eigenvalues --   -0.32873  -0.32803  -0.32286  -0.32122  -0.31978
 Alpha  occ. eigenvalues --   -0.31849  -0.31620  -0.31348  -0.31061  -0.30503
 Alpha  occ. eigenvalues --   -0.30137  -0.30030  -0.29186  -0.28569  -0.27743
 Alpha  occ. eigenvalues --   -0.27597  -0.26987  -0.26559  -0.24110  -0.21983
 Alpha  occ. eigenvalues --   -0.19811
 Alpha virt. eigenvalues --   -0.07888  -0.04101  -0.00773   0.01535   0.03424
 Alpha virt. eigenvalues --    0.04129   0.04413   0.04908   0.05446   0.05993
 Alpha virt. eigenvalues --    0.06494   0.08462   0.08534   0.08936   0.09198

 Mulliken charges:
               1
     1  Mg   0.825291
     2  C    0.092513
     3  C   -0.207558
     4  C   -0.181318
     5  C   -0.192854
     6  N   -0.641191
     7  C    0.245731
     8  C   -0.126632
     9  C   -0.138210
    10  C    0.343392
    11  C   -0.311404
    12  C   -0.135916
    13  C   -0.296172
    14  C    0.639635
    15  O   -0.482639
    16  O   -0.462135
    17  N   -0.700538
    18  C    0.317997
    19  C    0.058972
    20  C    0.046823
    21  C    0.305694
    22  C   -0.389019
    23  C   -0.128769
    24  C   -0.245983
    25  N   -0.660176
    26  C    0.292164
    27  C    0.043482
    28  C    0.035043
    29  C    0.272810
    30  C   -0.401893
    31  C   -0.202486
    32  C   -0.321928
    33  N   -0.653795
    34  C    0.248752
    35  C    0.086135
    36  C   -0.023699
    37  C    0.303605
    38  C   -0.393076
    39  C    0.389104
    40  O   -0.472607
    41  C   -0.338579
    42  C    0.611233
    43  O   -0.458311
    44  O   -0.450144
    45  C   -0.062439
    46  C   -0.009560
    47  C   -0.152994
    48  C    0.185685
    49  C   -0.363960
    50  C   -0.249760
    51  C   -0.163178
    52  C   -0.153721
    53  C   -0.043404
    54  C   -0.313795
    55  C   -0.174744
    56  C   -0.186413
    57  C   -0.156710
    58  C   -0.030768
    59  C   -0.309591
    60  C   -0.144968
    61  C   -0.184321
    62  C   -0.140736
    63  C   -0.043084
    64  C   -0.295866
    65  C   -0.286122
    66  H    0.073455
    67  H    0.077809
    68  H    0.092852
    69  H    0.107536
    70  H    0.104743
    71  H    0.085585
    72  H    0.104734
    73  H    0.138344
    74  H    0.117739
    75  H    0.082114
    76  H    0.127651
    77  H    0.143196
    78  H    0.094884
    79  H    0.099055
    80  H    0.124666
    81  H    0.081904
    82  H    0.106230
    83  H    0.103688
    84  H    0.119143
    85  H    0.115362
    86  H    0.131117
    87  H    0.110339
    88  H    0.067480
    89  H    0.095519
    90  H    0.124800
    91  H    0.107069
    92  H    0.112523
    93  H    0.160560
    94  H    0.125393
    95  H    0.161654
    96  H    0.078294
    97  H    0.124332
    98  H    0.124636
    99  H    0.137118
   100  H    0.115948
   101  H    0.073427
   102  H    0.120170
   103  H    0.117591
   104  H    0.104495
   105  H    0.107822
   106  H    0.089608
   107  H    0.118831
   108  H    0.062760
   109  H    0.049223
   110  H    0.097414
   111  H    0.071941
   112  H    0.086047
   113  H    0.095641
   114  H    0.101155
   115  H    0.091020
   116  H    0.093356
   117  H    0.103598
   118  H    0.085157
   119  H    0.095763
   120  H    0.078023
   121  H    0.056131
   122  H    0.073101
   123  H    0.107918
   124  H    0.087828
   125  H    0.022919
   126  H    0.098990
   127  H    0.111093
   128  H    0.106951
   129  H    0.061425
   130  H    0.066045
   131  H    0.074790
   132  H    0.102457
   133  H    0.115288
   134  H    0.093495
   135  H    0.099635
   136  H    0.071684
   137  H    0.068842
 Sum of Mulliken charges =  -0.00000

 Dipole moment (field-independent basis, Debye):
    X=              1.0381    Y=              2.9295    Z=             -0.2952  Tot=              3.1220
 Quadrupole moment (field-independent basis, Debye-Ang):
   XX=           -323.1991   YY=           -400.7505   ZZ=           -399.8002
   XY=            -18.7676   XZ=              9.1039   YZ=             -1.9346

 Normal termination of Gaussian 16 at Mon Sep  9 19:25:29 2019.
