 Gaussian 09, Revision D.01,
 Gaussian 09:  ES64L-G09RevD.01 24-Apr-2013

 -------------------------------------
 # td=(NStates=1) CAM-B3LYP/6-31G(d,p)
 -------------------------------------

 --
 TD
 --
 Symbolic Z-matrix:
 Charge =  0 Multiplicity = 1

                         Standard orientation:
 ---------------------------------------------------------------------
 Center     Atomic      Atomic             Coordinates (Angstroms)
 Number     Number       Type             X           Y           Z
 ---------------------------------------------------------------------
      1         12           0       -7.114654    0.538883    0.174087
      2          6           0       -4.889514   -1.938010    0.541125
      3          6           0       -4.706969    2.810503    1.111139
      4          6           0       -9.328374    3.103543   -0.308434
      5          6           0       -9.542300   -1.759864   -0.811861
      6          7           0       -5.119571    0.433517    0.720005
      7          6           0       -4.376859   -0.710628    0.847803
      8          6           0       -2.877868   -0.407040    1.197608
      9          6           0       -2.915126    1.048886    1.641684
     10          6           0       -4.327605    1.478243    1.157018
     11          6           0       -2.790221    1.165858    3.132865
     12          6           0       -1.915066   -0.726935    0.050966
     13          6           0       -0.530195   -0.451402    0.438554
     14          6           0        0.605121   -0.590250   -0.616071
     15          8           0        0.211770   -0.918417   -1.741775
     16          8           0        1.855396   -0.369512   -0.233522
     17          7           0       -7.058014    2.621680    0.388751
     18          6           0       -5.996682    3.249129    0.794395
     19          6           0       -6.270413    4.706337    0.771650
     20          6           0       -7.583273    4.866647    0.413305
     21          6           0       -8.106403    3.496594    0.146922
     22          6           0       -5.328055    5.907577    1.142677
     23          6           0       -8.324562    6.033923    0.203602
     24          6           0       -8.352646    7.188281    0.877083
     25          7           0       -9.180830    0.625654   -0.385905
     26          6           0       -9.860340    1.787056   -0.558692
     27          6           0      -11.159618    1.557293   -1.084013
     28          6           0      -11.152685    0.204357   -1.254732
     29          6           0       -9.947702   -0.451037   -0.852609
     30          6           0      -12.228601    2.553689   -1.365749
     31          6           0      -12.265502   -0.640919   -1.672085
     32          6           0      -12.397808   -0.917164   -3.151119
     33          7           0       -7.231804   -1.424818   -0.085374
     34          6           0       -8.283176   -2.260263   -0.584693
     35          6           0       -7.960527   -3.618643   -0.456978
     36          6           0       -6.555539   -3.623604    0.026184
     37          6           0       -6.256894   -2.216778    0.251177
     38          6           0       -8.642455   -4.948975   -0.906206
     39          6           0       -5.403036   -4.486144    0.237493
     40          8           0       -5.285159   -5.666979    0.323276
     41          6           0       -4.219963   -3.396284    0.450635
     42          6           0       -3.523402   -3.566919    1.823189
     43          8           0       -3.759238   -3.181017    2.904175
     44          8           0       -2.648726   -4.593785    1.709327
     45          6           0       -2.169351   -5.348534    2.913659
     46          6           0        2.866155   -0.589619   -1.299724
     47          6           0        4.199779   -0.456602   -0.746518
     48          6           0        5.056259    0.489915   -1.300429
     49          6           0        4.951394    1.324473   -2.446984
     50          6           0        6.467300    0.573002   -0.490114
     51          6           0        7.594545    0.058322   -1.122312
     52          6           0        8.890654   -0.109172   -0.198525
     53          6           0       10.139351   -0.573552   -0.942447
     54          6           0        9.963706   -1.962559   -1.431938
     55          6           0       11.372842   -0.303116   -0.039848
     56          6           0       12.720774   -0.335288   -0.747900
     57          6           0       13.918383   -0.020134    0.151596
     58          6           0       15.237123   -0.171644   -0.453177
     59          6           0       15.622778   -1.551168   -1.050445
     60          6           0       16.361211    0.288917    0.417507
     61          6           0       17.849140    0.415950   -0.125767
     62          6           0       18.725044    0.959217    0.961127
     63          6           0       20.158131    1.283155    0.419777
     64          6           0       20.146619    2.261421   -0.715180
     65          6           0       21.060504    1.711292    1.536613
     66          1           0       -3.938731    3.597471    1.494075
     67          1           0       -9.917565    3.878969   -0.732541
     68          1           0      -10.407540   -2.469920   -0.945043
     69          1           0       -2.745090   -1.079428    2.096713
     70          1           0       -2.010927    1.607314    1.069441
     71          1           0       -2.030790    0.641225    3.458210
     72          1           0       -2.793402    2.183604    3.543185
     73          1           0       -3.538708    0.510284    3.654190
     74          1           0       -2.145850   -1.846158   -0.262743
     75          1           0       -2.313187   -0.097548   -0.850298
     76          1           0       -0.473227    0.449094    0.737899
     77          1           0       -0.454314   -1.050728    1.328914
     78          1           0       -5.752042    6.861036    0.848767
     79          1           0       -5.327289    5.979678    2.134901
     80          1           0       -4.313695    5.690288    0.817671
     81          1           0       -9.009921    6.208554   -0.550101
     82          1           0       -9.000470    8.079567    0.382164
     83          1           0       -7.670666    7.364246    1.809864
     84          1           0      -12.075766    3.138808   -2.358966
     85          1           0      -13.193206    2.191631   -1.445364
     86          1           0      -12.355196    3.301774   -0.489391
     87          1           0      -12.531905   -1.630054   -1.205053
     88          1           0      -13.311625    0.023540   -1.356919
     89          1           0      -13.249452   -1.843834   -3.231667
     90          1           0      -12.509633   -0.209172   -3.925971
     91          1           0      -11.566771   -1.594300   -3.315395
     92          1           0       -8.970367   -4.590322   -1.950630
     93          1           0       -7.923280   -5.804886   -0.936728
     94          1           0       -9.550441   -5.115550   -0.143136
     95          1           0       -3.328177   -3.546336   -0.198037
     96          1           0       -1.595287   -4.580283    3.253477
     97          1           0       -2.913069   -5.645856    3.572665
     98          1           0       -1.581859   -6.172946    2.616896
     99          1           0        2.572949   -1.580460   -1.675381
    100          1           0        2.915785    0.020784   -2.188398
    101          1           0        4.504266   -1.057202   -0.006199
    102          1           0        3.989348    1.361859   -3.145612
    103          1           0        5.372762    2.321878   -2.561561
    104          1           0        5.493300    0.780358   -3.374670
    105          1           0        6.477673    1.737957   -0.042973
    106          1           0        6.431199   -0.052828    0.516171
    107          1           0        7.400705   -0.804655   -1.554659
    108          1           0        7.918565    0.599426   -2.163468
    109          1           0        9.100543    1.002255    0.084035
    110          1           0        8.842701   -0.871504    0.565310
    111          1           0       10.496100    0.010368   -1.775928
    112          1           0        9.167397   -1.949080   -2.129088
    113          1           0       10.761698   -2.130833   -1.957312
    114          1           0        9.827154   -2.933534   -0.770107
    115          1           0       11.151328    0.641478    0.599464
    116          1           0       11.411646   -1.035865    0.816341
    117          1           0       12.979055   -1.279000   -1.187728
    118          1           0       12.613654    0.337015   -1.541296
    119          1           0       13.790031    0.935510    0.570711
    120          1           0       14.018617   -0.625011    1.174594
    121          1           0       15.253138    0.549014   -1.565895
    122          1           0       15.774774   -2.218996   -0.225220
    123          1           0       14.790391   -1.916200   -1.679509
    124          1           0       16.710085   -1.479574   -1.485473
    125          1           0       16.104122    1.460656    0.738715
    126          1           0       16.315664   -0.358305    1.343043
    127          1           0       18.295642   -0.514799   -0.613400
    128          1           0       17.790893    0.962345   -1.038886
    129          1           0       18.513450    1.957959    1.491872
    130          1           0       18.843527    0.084269    1.714301
    131          1           0       20.656768    0.288315    0.045188
    132          1           0       19.919800    3.233542   -0.231051
    133          1           0       21.052828    2.119861   -1.258222
    134          1           0       19.513628    1.901274   -1.495728
    135          1           0       21.120502    0.960103    2.220247
    136          1           0       22.052063    1.716060    1.208271
    137          1           0       20.762260    2.626632    1.878412
 ---------------------------------------------------------------------

 SCF Done:  E(RCAM-B3LYP) =  -2932.63517583     A.U. after   17 cycles

 Excitation energies and oscillator strengths:

 Excited State   1:      Singlet-A      2.2781 eV  544.25 nm  f=0.1896  <S**2>=0.000
     240 -> 242       -0.25532
     240 -> 243        0.24479
     241 -> 242        0.58311
     241 -> 243        0.14529
 This state for optimization and/or second-order correction.
 Total Energy, E(TD-HF/TD-KS) =  -2932.55145805
 Copying the excited state density for this state as the 1-particle RhoCI density.

 The electronic state is 1-A.
 Alpha  occ. eigenvalues --  -46.84389 -19.27157 -19.23013 -19.20192 -19.19644
 Alpha  occ. eigenvalues --  -19.19641 -14.41521 -14.39726 -14.39250 -14.38778
 Alpha  occ. eigenvalues --  -10.38995 -10.37379 -10.34974 -10.31415 -10.31185
 Alpha  occ. eigenvalues --  -10.30519 -10.30236 -10.29772 -10.29620 -10.29109
 Alpha  occ. eigenvalues --  -10.29088 -10.28998 -10.28820 -10.28708 -10.28685
 Alpha  occ. eigenvalues --  -10.28648 -10.28578 -10.28463 -10.28326 -10.28261
 Alpha  occ. eigenvalues --  -10.27948 -10.27701 -10.27547 -10.27190 -10.27175
 Alpha  occ. eigenvalues --  -10.27130 -10.27097 -10.26972 -10.26781 -10.26659
 Alpha  occ. eigenvalues --  -10.26605 -10.26217 -10.26167 -10.26092 -10.26009
 Alpha  occ. eigenvalues --  -10.25989 -10.25704 -10.25667 -10.25624 -10.25615
 Alpha  occ. eigenvalues --  -10.25610 -10.25562 -10.25546 -10.25439 -10.25407
 Alpha  occ. eigenvalues --  -10.25386 -10.25384 -10.25270 -10.25100 -10.24918
 Alpha  occ. eigenvalues --  -10.24829 -10.24673 -10.23610 -10.23510 -10.21823
 Alpha  occ. eigenvalues --   -3.13387  -1.88103  -1.87618  -1.87566  -1.17733
 Alpha  occ. eigenvalues --   -1.17188  -1.11999  -1.07747  -1.07279  -1.04983
 Alpha  occ. eigenvalues --   -1.03881  -1.02978  -1.02236  -0.92165  -0.91295
 Alpha  occ. eigenvalues --   -0.91061  -0.90890  -0.90302  -0.90053  -0.89372
 Alpha  occ. eigenvalues --   -0.88744  -0.87996  -0.87634  -0.86984  -0.86591
 Alpha  occ. eigenvalues --   -0.85787  -0.84308  -0.83900  -0.83193  -0.83036
 Alpha  occ. eigenvalues --   -0.82476  -0.81333  -0.81068  -0.80293  -0.78479
 Alpha  occ. eigenvalues --   -0.78030  -0.77366  -0.77278  -0.76904  -0.75814
 Alpha  occ. eigenvalues --   -0.75741  -0.75590  -0.74533  -0.73536  -0.72682
 Alpha  occ. eigenvalues --   -0.72005  -0.70390  -0.69360  -0.68436  -0.67743
 Alpha  occ. eigenvalues --   -0.67258  -0.66721  -0.65436  -0.65000  -0.64468
 Alpha  occ. eigenvalues --   -0.63561  -0.63531  -0.63281  -0.62138  -0.61496
 Alpha  occ. eigenvalues --   -0.60841  -0.60433  -0.60061  -0.59700  -0.59231
 Alpha  occ. eigenvalues --   -0.58626  -0.58063  -0.57529  -0.57407  -0.56361
 Alpha  occ. eigenvalues --   -0.55966  -0.55871  -0.55472  -0.55361  -0.55231
 Alpha  occ. eigenvalues --   -0.54728  -0.54289  -0.53972  -0.53403  -0.53280
 Alpha  occ. eigenvalues --   -0.52659  -0.52163  -0.51978  -0.51643  -0.51431
 Alpha  occ. eigenvalues --   -0.51269  -0.51214  -0.50852  -0.50804  -0.50627
 Alpha  occ. eigenvalues --   -0.50368  -0.50223  -0.50131  -0.50025  -0.49380
 Alpha  occ. eigenvalues --   -0.49333  -0.49084  -0.48957  -0.48847  -0.48590
 Alpha  occ. eigenvalues --   -0.48420  -0.48257  -0.48104  -0.47876  -0.47535
 Alpha  occ. eigenvalues --   -0.47337  -0.47244  -0.47041  -0.46559  -0.46368
 Alpha  occ. eigenvalues --   -0.46259  -0.46032  -0.45974  -0.45584  -0.45493
 Alpha  occ. eigenvalues --   -0.45299  -0.45194  -0.45061  -0.44939  -0.44880
 Alpha  occ. eigenvalues --   -0.44715  -0.44440  -0.44119  -0.43802  -0.43516
 Alpha  occ. eigenvalues --   -0.43206  -0.43046  -0.42894  -0.42753  -0.42478
 Alpha  occ. eigenvalues --   -0.42261  -0.41755  -0.41728  -0.41483  -0.41437
 Alpha  occ. eigenvalues --   -0.41204  -0.40678  -0.40584  -0.40552  -0.39869
 Alpha  occ. eigenvalues --   -0.39795  -0.39528  -0.39125  -0.39009  -0.38915
 Alpha  occ. eigenvalues --   -0.38451  -0.38148  -0.37518  -0.37478  -0.37447
 Alpha  occ. eigenvalues --   -0.37259  -0.36962  -0.36690  -0.36665  -0.36565
 Alpha  occ. eigenvalues --   -0.36105  -0.36091  -0.35796  -0.35275  -0.34901
 Alpha  occ. eigenvalues --   -0.34824  -0.34152  -0.34141  -0.33415  -0.32731
 Alpha  occ. eigenvalues --   -0.32615  -0.32464  -0.32077  -0.30836  -0.29888
 Alpha  occ. eigenvalues --   -0.29516  -0.28695  -0.28209  -0.27602  -0.23144
 Alpha  occ. eigenvalues --   -0.22128
 Alpha virt. eigenvalues --   -0.06087  -0.02954   0.02131   0.03651   0.04470
 Alpha virt. eigenvalues --    0.06132   0.06560   0.06923   0.07356   0.07864
 Alpha virt. eigenvalues --    0.08622   0.10877   0.11451   0.11604   0.11717

 Mulliken charges:
               1
     1  Mg   0.819914
     2  C    0.028976
     3  C   -0.221171
     4  C   -0.173331
     5  C   -0.146850
     6  N   -0.648789
     7  C    0.298000
     8  C   -0.168544
     9  C   -0.140928
    10  C    0.356381
    11  C   -0.309829
    12  C   -0.157384
    13  C   -0.235423
    14  C    0.602217
    15  O   -0.485873
    16  O   -0.470335
    17  N   -0.717492
    18  C    0.374995
    19  C   -0.022798
    20  C    0.047683
    21  C    0.302443
    22  C   -0.365375
    23  C   -0.092597
    24  C   -0.251731
    25  N   -0.697298
    26  C    0.288650
    27  C    0.075280
    28  C    0.016781
    29  C    0.302347
    30  C   -0.377862
    31  C   -0.267006
    32  C   -0.287640
    33  N   -0.712684
    34  C    0.236950
    35  C    0.020573
    36  C   -0.061472
    37  C    0.314014
    38  C   -0.351698
    39  C    0.394886
    40  O   -0.442963
    41  C   -0.319209
    42  C    0.590435
    43  O   -0.453408
    44  O   -0.500605
    45  C   -0.073548
    46  C    0.015193
    47  C   -0.114364
    48  C    0.128495
    49  C   -0.403354
    50  C   -0.212492
    51  C   -0.147387
    52  C   -0.169522
    53  C   -0.073647
    54  C   -0.301991
    55  C   -0.184040
    56  C   -0.184407
    57  C   -0.156056
    58  C   -0.030914
    59  C   -0.304112
    60  C   -0.159192
    61  C   -0.187367
    62  C   -0.139901
    63  C   -0.092588
    64  C   -0.289461
    65  C   -0.296958
    66  H    0.085336
    67  H    0.092923
    68  H    0.106151
    69  H    0.123881
    70  H    0.095335
    71  H    0.124144
    72  H    0.109581
    73  H    0.120376
    74  H    0.101770
    75  H    0.104840
    76  H    0.126982
    77  H    0.126936
    78  H    0.123452
    79  H    0.140441
    80  H    0.116217
    81  H    0.098940
    82  H    0.093610
    83  H    0.092118
    84  H    0.111047
    85  H    0.128525
    86  H    0.110600
    87  H    0.111551
    88  H    0.052740
    89  H    0.058672
    90  H    0.121612
    91  H    0.109540
    92  H    0.121891
    93  H    0.157867
    94  H    0.117247
    95  H    0.157008
    96  H    0.134280
    97  H    0.140056
    98  H    0.130117
    99  H    0.126143
   100  H    0.116929
   101  H    0.092324
   102  H    0.120169
   103  H    0.142979
   104  H    0.118523
   105  H    0.072237
   106  H    0.089977
   107  H    0.115258
   108  H    0.058646
   109  H    0.085504
   110  H    0.104652
   111  H    0.085243
   112  H    0.105167
   113  H    0.111399
   114  H    0.086196
   115  H    0.079095
   116  H    0.079205
   117  H    0.099892
   118  H    0.104024
   119  H    0.104054
   120  H    0.064353
   121  H    0.012666
   122  H    0.099776
   123  H    0.100975
   124  H    0.095843
   125  H    0.063345
   126  H    0.083565
   127  H    0.084424
   128  H    0.108110
   129  H    0.081687
   130  H    0.085859
   131  H    0.053608
   132  H    0.096941
   133  H    0.105198
   134  H    0.102031
   135  H    0.105510
   136  H    0.100813
   137  H    0.099276
 Sum of Mulliken charges =   0.00000

 Dipole moment (field-independent basis, Debye):
    X=              3.6314    Y=              4.5777    Z=             -0.4105  Tot=              5.8576
 Quadrupole moment (field-independent basis, Debye-Ang):
   XX=           -341.4096   YY=           -390.1052   ZZ=           -394.2459
   XY=            -28.4373   XZ=              5.9999   YZ=             -3.0322

 Normal termination of Gaussian 09 at Tue Jul  2 22:20:43 2019.
