 Gaussian 09, Revision D.01,
 Gaussian 09:  ES64L-G09RevD.01 24-Apr-2013

 -------------------------------------
 # td=(NStates=1) CAM-B3LYP/6-31G(d,p)
 -------------------------------------

 --
 TD
 --
 Symbolic Z-matrix:
 Charge =  0 Multiplicity = 1

                         Standard orientation:
 ---------------------------------------------------------------------
 Center     Atomic      Atomic             Coordinates (Angstroms)
 Number     Number       Type             X           Y           Z
 ---------------------------------------------------------------------
      1         12           0       -7.168329    0.584016    0.033819
      2          6           0       -4.836117   -1.980168    0.477777
      3          6           0       -4.868933    2.819234    1.136419
      4          6           0       -9.358651    3.123944   -0.275299
      5          6           0       -9.456524   -1.712970   -0.899015
      6          7           0       -5.201645    0.440018    0.776216
      7          6           0       -4.335163   -0.709310    0.832777
      8          6           0       -2.901010   -0.386744    1.186763
      9          6           0       -3.106960    1.046155    1.645340
     10          6           0       -4.423156    1.441426    1.005227
     11          6           0       -3.072790    1.233049    3.150469
     12          6           0       -1.825737   -0.578596    0.007404
     13          6           0       -0.526768   -0.390434    0.442363
     14          6           0        0.541865   -0.591319   -0.572529
     15          8           0        0.290252   -0.967446   -1.715940
     16          8           0        1.729226   -0.321852   -0.174990
     17          7           0       -7.095422    2.690885    0.271571
     18          6           0       -6.083981    3.294269    0.732245
     19          6           0       -6.382170    4.732105    0.674668
     20          6           0       -7.665540    4.838992    0.321571
     21          6           0       -8.114364    3.511265    0.079240
     22          6           0       -5.476302    5.858223    1.088753
     23          6           0       -8.503594    6.006986    0.161348
     24          6           0       -8.525693    7.232920    0.780437
     25          7           0       -9.139051    0.713181   -0.525636
     26          6           0       -9.772992    1.870258   -0.687527
     27          6           0      -11.177313    1.456694   -1.082009
     28          6           0      -11.285135    0.133938   -1.254480
     29          6           0       -9.944900   -0.406558   -0.951286
     30          6           0      -12.263938    2.466112   -1.395448
     31          6           0      -12.396262   -0.738867   -1.816221
     32          6           0      -11.980957   -1.245808   -3.174840
     33          7           0       -7.202715   -1.492304   -0.043171
     34          6           0       -8.234628   -2.187430   -0.377156
     35          6           0       -7.799419   -3.593542   -0.467425
     36          6           0       -6.501999   -3.615271   -0.136217
     37          6           0       -6.185645   -2.267645    0.066623
     38          6           0       -8.673845   -4.802004   -0.944029
     39          6           0       -5.246581   -4.454433    0.157460
     40          8           0       -5.109400   -5.660170    0.237044
     41          6           0       -4.127327   -3.312659    0.551637
     42          6           0       -3.589678   -3.707355    1.821795
     43          8           0       -3.810398   -3.190988    2.929840
     44          8           0       -2.629243   -4.670280    1.927066
     45          6           0       -2.182649   -5.166056    3.085354
     46          6           0        2.740843   -0.655387   -1.166587
     47          6           0        4.116758   -0.337374   -0.450127
     48          6           0        5.082726    0.442696   -0.857630
     49          6           0        5.015204    1.347905   -2.087203
     50          6           0        6.415677    0.397993   -0.194878
     51          6           0        7.554082   -0.076628   -0.982579
     52          6           0        8.820538   -0.152151   -0.169630
     53          6           0       10.178091   -0.716646   -0.972241
     54          6           0       10.154112   -2.277261   -1.216673
     55          6           0       11.482383   -0.320069   -0.093144
     56          6           0       12.780306   -0.713083   -0.696888
     57          6           0       13.961483   -0.216439    0.141314
     58          6           0       15.422482   -0.309476   -0.558907
     59          6           0       15.747152   -1.636075   -0.954488
     60          6           0       16.417102    0.297557    0.386457
     61          6           0       17.786995    0.358960   -0.244480
     62          6           0       18.666006    1.304811    0.688111
     63          6           0       20.209188    1.547813    0.294055
     64          6           0       20.269758    2.326469   -1.050824
     65          6           0       20.959981    2.224332    1.488554
     66          1           0       -4.286023    3.631441    1.423816
     67          1           0      -10.275269    3.802872   -0.457163
     68          1           0      -10.171017   -2.439384   -1.236855
     69          1           0       -2.473917   -0.846062    2.028899
     70          1           0       -2.017802    1.605001    1.521989
     71          1           0       -2.075846    0.858247    3.548072
     72          1           0       -3.202111    2.475641    3.315891
     73          1           0       -3.740782    0.691272    3.783177
     74          1           0       -2.140654   -1.452660   -0.510558
     75          1           0       -2.115356    0.129780   -0.724253
     76          1           0       -0.372272    0.548841    0.774497
     77          1           0       -0.183433   -1.076986    1.315929
     78          1           0       -5.757308    6.911527    0.703633
     79          1           0       -5.528096    6.177155    2.052178
     80          1           0       -4.445390    5.771389    0.889179
     81          1           0       -9.085719    5.770209   -0.789411
     82          1           0       -9.002627    8.065435    0.540476
     83          1           0       -7.950034    7.206669    1.738149
     84          1           0      -11.747236    3.451136   -1.746127
     85          1           0      -13.025459    1.992153   -2.195807
     86          1           0      -12.761966    2.922130   -0.362021
     87          1           0      -12.424282   -1.425984   -1.109439
     88          1           0      -13.377481   -0.287513   -1.662570
     89          1           0      -12.781212   -1.686133   -3.667525
     90          1           0      -11.974166   -0.209171   -3.772655
     91          1           0      -10.990180   -1.677043   -3.160256
     92          1           0       -9.069372   -4.834173   -1.915250
     93          1           0       -7.896997   -5.677110   -0.813284
     94          1           0       -9.343753   -5.152194   -0.419864
     95          1           0       -3.423468   -3.577367   -0.099243
     96          1           0       -1.879332   -4.146926    3.648765
     97          1           0       -2.955532   -5.560142    3.669272
     98          1           0       -1.135534   -5.634517    2.746859
     99          1           0        2.784404   -1.821098   -1.229271
    100          1           0        2.605821    0.034455   -2.128343
    101          1           0        4.343437   -1.048790    0.314986
    102          1           0        4.113434    1.263384   -2.665228
    103          1           0        5.397982    2.319229   -1.748091
    104          1           0        5.777898    1.122667   -2.925358
    105          1           0        6.684545    1.378954    0.145005
    106          1           0        6.299303   -0.134282    0.700287
    107          1           0        7.284745   -0.937309   -1.448180
    108          1           0        7.787009    0.456862   -1.989895
    109          1           0        9.071249    0.928989    0.220528
    110          1           0        8.924693   -0.820285    0.737331
    111          1           0       10.219614   -0.262588   -2.047358
    112          1           0        9.106044   -2.486252   -1.642803
    113          1           0       10.814087   -2.561256   -2.006627
    114          1           0       10.226508   -2.938231   -0.374128
    115          1           0       11.405954    0.691467    0.377418
    116          1           0       11.641229   -0.889906    0.879570
    117          1           0       12.926104   -1.789135   -0.917289
    118          1           0       12.706831   -0.302329   -1.700432
    119          1           0       13.731932    0.779660    0.304871
    120          1           0       14.009751   -0.795079    1.048794
    121          1           0       15.383439    0.363852   -1.499451
    122          1           0       16.028053   -2.357197   -0.202019
    123          1           0       15.142957   -2.130204   -1.641283
    124          1           0       16.763108   -1.611297   -1.406149
    125          1           0       16.145325    1.328524    0.765726
    126          1           0       16.387435   -0.364528    1.328357
    127          1           0       18.469626   -0.713766   -0.343107
    128          1           0       17.593144    0.895223   -1.276600
    129          1           0       18.053979    2.304544    0.791493
    130          1           0       18.701947    0.750417    1.744530
    131          1           0       20.501501    0.549279    0.289609
    132          1           0       19.940675    3.299969   -0.972443
    133          1           0       21.375259    2.292304   -1.363665
    134          1           0       19.569185    1.903762   -1.829919
    135          1           0       20.882814    1.829833    2.487931
    136          1           0       21.961613    2.517895    1.125244
    137          1           0       20.599207    3.301891    1.608200
 ---------------------------------------------------------------------

 SCF Done:  E(RCAM-B3LYP) =  -2932.62697173     A.U. after   17 cycles

 Excitation energies and oscillator strengths:

 Excited State   1:      Singlet-A      2.1853 eV  567.35 nm  f=0.2435  <S**2>=0.000
     240 -> 242        0.10198
     240 -> 243        0.22658
     241 -> 242        0.65282
 This state for optimization and/or second-order correction.
 Total Energy, E(TD-HF/TD-KS) =  -2932.54666277
 Copying the excited state density for this state as the 1-particle RhoCI density.

 The electronic state is 1-A.
 Alpha  occ. eigenvalues --  -46.85866 -19.27256 -19.23993 -19.22296 -19.19188
 Alpha  occ. eigenvalues --  -19.18736 -14.43149 -14.39762 -14.39244 -14.38887
 Alpha  occ. eigenvalues --  -10.38444 -10.38142 -10.37323 -10.34421 -10.32164
 Alpha  occ. eigenvalues --  -10.31159 -10.30849 -10.29658 -10.29336 -10.29148
 Alpha  occ. eigenvalues --  -10.29135 -10.28683 -10.28595 -10.28453 -10.28389
 Alpha  occ. eigenvalues --  -10.28114 -10.28051 -10.28017 -10.27809 -10.27713
 Alpha  occ. eigenvalues --  -10.27691 -10.27301 -10.27292 -10.27114 -10.27100
 Alpha  occ. eigenvalues --  -10.26967 -10.26950 -10.26631 -10.26607 -10.26538
 Alpha  occ. eigenvalues --  -10.26512 -10.26446 -10.26232 -10.26166 -10.26134
 Alpha  occ. eigenvalues --  -10.26120 -10.25758 -10.25647 -10.25627 -10.25477
 Alpha  occ. eigenvalues --  -10.25475 -10.25451 -10.25432 -10.25310 -10.25282
 Alpha  occ. eigenvalues --  -10.25083 -10.25001 -10.24932 -10.24874 -10.24869
 Alpha  occ. eigenvalues --  -10.24756 -10.24135 -10.23973 -10.23957 -10.22859
 Alpha  occ. eigenvalues --   -3.14739  -1.89465  -1.88963  -1.88907  -1.20707
 Alpha  occ. eigenvalues --   -1.18224  -1.12267  -1.07972  -1.07908  -1.07552
 Alpha  occ. eigenvalues --   -1.06505  -1.05527  -1.02278  -0.93097  -0.92281
 Alpha  occ. eigenvalues --   -0.91937  -0.90872  -0.90401  -0.89936  -0.88655
 Alpha  occ. eigenvalues --   -0.88245  -0.87665  -0.87193  -0.87012  -0.86881
 Alpha  occ. eigenvalues --   -0.85971  -0.85181  -0.83625  -0.83281  -0.82928
 Alpha  occ. eigenvalues --   -0.81786  -0.81711  -0.81119  -0.80510  -0.78950
 Alpha  occ. eigenvalues --   -0.78405  -0.77415  -0.76964  -0.76394  -0.75661
 Alpha  occ. eigenvalues --   -0.75368  -0.74889  -0.74141  -0.73317  -0.72879
 Alpha  occ. eigenvalues --   -0.71296  -0.71195  -0.70843  -0.69714  -0.68953
 Alpha  occ. eigenvalues --   -0.68923  -0.66891  -0.65653  -0.64952  -0.64638
 Alpha  occ. eigenvalues --   -0.64423  -0.63251  -0.62808  -0.62145  -0.62020
 Alpha  occ. eigenvalues --   -0.61841  -0.61624  -0.61196  -0.60291  -0.59942
 Alpha  occ. eigenvalues --   -0.59435  -0.59023  -0.58455  -0.58226  -0.57967
 Alpha  occ. eigenvalues --   -0.57076  -0.56029  -0.55890  -0.55531  -0.55300
 Alpha  occ. eigenvalues --   -0.54880  -0.54615  -0.54075  -0.53895  -0.53416
 Alpha  occ. eigenvalues --   -0.52905  -0.52663  -0.52495  -0.52424  -0.51860
 Alpha  occ. eigenvalues --   -0.51714  -0.51524  -0.51075  -0.51024  -0.50772
 Alpha  occ. eigenvalues --   -0.50534  -0.50427  -0.50228  -0.50104  -0.49826
 Alpha  occ. eigenvalues --   -0.49453  -0.48961  -0.48825  -0.48677  -0.48573
 Alpha  occ. eigenvalues --   -0.48356  -0.48023  -0.47906  -0.47838  -0.47689
 Alpha  occ. eigenvalues --   -0.47405  -0.47125  -0.46811  -0.46567  -0.46354
 Alpha  occ. eigenvalues --   -0.46137  -0.45813  -0.45690  -0.45545  -0.45362
 Alpha  occ. eigenvalues --   -0.45052  -0.44751  -0.44706  -0.44638  -0.44460
 Alpha  occ. eigenvalues --   -0.44373  -0.44079  -0.43926  -0.43887  -0.43592
 Alpha  occ. eigenvalues --   -0.43441  -0.43296  -0.42932  -0.42917  -0.42357
 Alpha  occ. eigenvalues --   -0.42281  -0.42163  -0.41929  -0.41541  -0.41267
 Alpha  occ. eigenvalues --   -0.41193  -0.40868  -0.40837  -0.40373  -0.40316
 Alpha  occ. eigenvalues --   -0.39877  -0.39794  -0.39697  -0.39142  -0.38965
 Alpha  occ. eigenvalues --   -0.38526  -0.38203  -0.37912  -0.37702  -0.37476
 Alpha  occ. eigenvalues --   -0.37448  -0.37021  -0.36934  -0.36866  -0.36426
 Alpha  occ. eigenvalues --   -0.36295  -0.36015  -0.35998  -0.35530  -0.35325
 Alpha  occ. eigenvalues --   -0.35136  -0.34588  -0.33190  -0.33093  -0.32889
 Alpha  occ. eigenvalues --   -0.32651  -0.32291  -0.31632  -0.31340  -0.30624
 Alpha  occ. eigenvalues --   -0.30579  -0.30533  -0.28716  -0.28456  -0.23561
 Alpha  occ. eigenvalues --   -0.21179
 Alpha virt. eigenvalues --   -0.05915  -0.02541   0.01202   0.03391   0.04690
 Alpha virt. eigenvalues --    0.05755   0.05896   0.06843   0.06859   0.07349
 Alpha virt. eigenvalues --    0.08148   0.10102   0.11035   0.11476   0.11739

 Mulliken charges:
               1
     1  Mg   0.830392
     2  C    0.081831
     3  C   -0.184043
     4  C   -0.194470
     5  C   -0.161385
     6  N   -0.598664
     7  C    0.263356
     8  C   -0.142747
     9  C   -0.147154
    10  C    0.359923
    11  C   -0.289651
    12  C   -0.158347
    13  C   -0.249367
    14  C    0.591591
    15  O   -0.507990
    16  O   -0.434901
    17  N   -0.723144
    18  C    0.352505
    19  C   -0.007896
    20  C    0.032377
    21  C    0.328618
    22  C   -0.401096
    23  C   -0.072630
    24  C   -0.239806
    25  N   -0.693821
    26  C    0.331098
    27  C   -0.010045
    28  C    0.036463
    29  C    0.238878
    30  C   -0.370317
    31  C   -0.220750
    32  C   -0.304117
    33  N   -0.681416
    34  C    0.276400
    35  C   -0.093602
    36  C    0.071918
    37  C    0.230497
    38  C   -0.371193
    39  C    0.372066
    40  O   -0.430169
    41  C   -0.326042
    42  C    0.615154
    43  O   -0.502310
    44  O   -0.434919
    45  C   -0.065464
    46  C    0.007472
    47  C   -0.161437
    48  C    0.144725
    49  C   -0.362755
    50  C   -0.227189
    51  C   -0.167232
    52  C   -0.174601
    53  C   -0.072012
    54  C   -0.317984
    55  C   -0.175877
    56  C   -0.187243
    57  C   -0.178281
    58  C   -0.058321
    59  C   -0.313145
    60  C   -0.150888
    61  C   -0.163162
    62  C   -0.177049
    63  C   -0.044842
    64  C   -0.314151
    65  C   -0.320630
    66  H    0.068988
    67  H    0.087756
    68  H    0.094198
    69  H    0.121975
    70  H    0.086482
    71  H    0.099961
    72  H    0.083458
    73  H    0.134793
    74  H    0.125006
    75  H    0.116537
    76  H    0.139028
    77  H    0.123162
    78  H    0.112345
    79  H    0.139373
    80  H    0.119078
    81  H    0.087144
    82  H    0.113596
    83  H    0.097262
    84  H    0.106683
    85  H    0.107385
    86  H    0.098967
    87  H    0.124060
    88  H    0.102793
    89  H    0.118604
    90  H    0.088502
    91  H    0.125811
    92  H    0.120170
    93  H    0.116069
    94  H    0.133781
    95  H    0.164677
    96  H    0.086736
    97  H    0.134960
    98  H    0.111498
    99  H    0.132632
   100  H    0.129078
   101  H    0.088394
   102  H    0.110143
   103  H    0.121436
   104  H    0.107659
   105  H    0.099212
   106  H    0.107169
   107  H    0.108481
   108  H    0.082602
   109  H    0.078050
   110  H    0.098294
   111  H    0.073551
   112  H    0.085445
   113  H    0.114638
   114  H    0.111827
   115  H    0.087653
   116  H    0.076940
   117  H    0.094583
   118  H    0.082836
   119  H    0.095284
   120  H    0.090639
   121  H    0.069215
   122  H    0.098019
   123  H    0.110293
   124  H    0.097623
   125  H    0.092814
   126  H    0.081082
   127  H    0.069821
   128  H    0.083915
   129  H    0.070349
   130  H    0.067735
   131  H    0.098386
   132  H    0.117668
   133  H    0.093036
   134  H    0.102736
   135  H    0.113529
   136  H    0.098176
   137  H    0.087216
 Sum of Mulliken charges =   0.00000

 Dipole moment (field-independent basis, Debye):
    X=              1.9469    Y=              5.1274    Z=             -0.7962  Tot=              5.5421
 Quadrupole moment (field-independent basis, Debye-Ang):
   XX=           -342.3980   YY=           -395.8841   ZZ=           -400.4878
   XY=            -24.5415   XZ=             15.7931   YZ=              4.4112

 Normal termination of Gaussian 09 at Sat Jul  6 16:17:32 2019.
