 Gaussian 16, Revision A.03,
 Gaussian 16:  ES64L-G16RevA.03 25-Dec-2016

 ----------------------------------------------------------------------
 # td=(NStates=1) iop(3/107=0140000000,3/108=0140000000) CAM-B3LYP/6-31
 G(d,p)
 ----------------------------------------------------------------------

 --
 TD
 --
 Symbolic Z-matrix:
 Charge =  0 Multiplicity = 1

                         Standard orientation:
 ---------------------------------------------------------------------
 Center     Atomic      Atomic             Coordinates (Angstroms)
 Number     Number       Type             X           Y           Z
 ---------------------------------------------------------------------
      1         12           0       -7.142611    0.635495    0.080224
      2          6           0       -4.944802   -1.975116    0.544688
      3          6           0       -4.759456    2.849648    1.044050
      4          6           0       -9.405887    3.147574   -0.311734
      5          6           0       -9.473666   -1.681785   -0.842574
      6          7           0       -5.111560    0.445397    0.646532
      7          6           0       -4.369471   -0.726369    0.810987
      8          6           0       -2.891634   -0.409473    1.251713
      9          6           0       -3.062612    1.021406    1.627928
     10          6           0       -4.313258    1.489638    0.987624
     11          6           0       -3.006055    1.048021    3.193397
     12          6           0       -1.993001   -0.643128    0.032682
     13          6           0       -0.470228   -0.457504    0.488637
     14          6           0        0.552295   -0.710525   -0.546542
     15          8           0        0.253406   -0.979199   -1.761093
     16          8           0        1.786950   -0.498711   -0.130986
     17          7           0       -7.021746    2.680879    0.250317
     18          6           0       -5.993405    3.352527    0.739146
     19          6           0       -6.237868    4.794019    0.770382
     20          6           0       -7.638563    4.929447    0.461528
     21          6           0       -8.137227    3.515639    0.156440
     22          6           0       -5.376713    5.907528    1.212390
     23          6           0       -8.418905    6.016851    0.275021
     24          6           0       -8.329664    7.230687    0.842815
     25          7           0       -9.101874    0.697366   -0.562516
     26          6           0       -9.782582    1.908970   -0.672577
     27          6           0      -11.160154    1.610829   -1.123683
     28          6           0      -11.173351    0.174542   -1.419059
     29          6           0       -9.861804   -0.261118   -0.913089
     30          6           0      -12.237751    2.517654   -1.326301
     31          6           0      -12.323433   -0.642336   -1.898218
     32          6           0      -12.164419   -1.074134   -3.302847
     33          7           0       -7.256242   -1.394504   -0.026252
     34          6           0       -8.264423   -2.243292   -0.510651
     35          6           0       -7.881821   -3.596354   -0.466468
     36          6           0       -6.556375   -3.587134   -0.120762
     37          6           0       -6.239222   -2.157818    0.105535
     38          6           0       -8.700828   -4.833070   -0.839380
     39          6           0       -5.401265   -4.436770    0.089927
     40          8           0       -5.260931   -5.664954    0.135095
     41          6           0       -4.243956   -3.349359    0.585622
     42          6           0       -3.633904   -3.733128    1.906474
     43          8           0       -3.834670   -3.069020    2.943209
     44          8           0       -2.819931   -4.794601    1.792215
     45          6           0       -2.142335   -5.300839    2.941061
     46          6           0        2.792934   -0.738132   -1.073572
     47          6           0        4.100284   -0.516950   -0.508856
     48          6           0        5.115508    0.373023   -0.915480
     49          6           0        5.019842    1.230632   -2.152610
     50          6           0        6.348520    0.372520   -0.031489
     51          6           0        7.603180   -0.098160   -0.825733
     52          6           0        8.850957   -0.175123   -0.071297
     53          6           0       10.057583   -0.615935   -0.941102
     54          6           0       10.043999   -2.077559   -1.371556
     55          6           0       11.385775   -0.228188   -0.084797
     56          6           0       12.689424   -0.384949   -0.719744
     57          6           0       13.892633   -0.093969    0.164708
     58          6           0       15.282703   -0.209696   -0.393784
     59          6           0       15.569800   -1.621047   -0.860275
     60          6           0       16.473279    0.404680    0.463954
     61          6           0       17.783965    0.483382   -0.183825
     62          6           0       18.844448    1.226081    0.653175
     63          6           0       20.312082    1.322722    0.135215
     64          6           0       20.359540    2.165148   -1.123667
     65          6           0       21.218494    1.975656    1.202225
     66          1           0       -4.096080    3.451402    1.554372
     67          1           0      -10.022298    4.056516   -0.398535
     68          1           0      -10.073330   -2.394922   -1.271683
     69          1           0       -2.645481   -1.004854    1.978287
     70          1           0       -2.216765    1.487087    1.188947
     71          1           0       -1.871167    0.952015    3.543644
     72          1           0       -3.207423    2.170001    3.552172
     73          1           0       -3.807561    0.255416    3.649494
     74          1           0       -2.065029   -1.561638   -0.388792
     75          1           0       -2.278756    0.015060   -0.808598
     76          1           0       -0.162249    0.532109    1.079288
     77          1           0       -0.388879   -1.252928    1.081178
     78          1           0       -5.334618    6.674728    0.527055
     79          1           0       -5.619816    6.278447    2.218042
     80          1           0       -4.316315    5.422512    1.254093
     81          1           0       -9.248159    5.760288   -0.684806
     82          1           0       -8.992957    7.998421    0.422252
     83          1           0       -7.654469    7.586087    1.539367
     84          1           0      -11.929795    3.142384   -2.228176
     85          1           0      -13.175134    1.947514   -1.682143
     86          1           0      -12.367995    3.014001   -0.492536
     87          1           0      -12.435463   -1.548972   -1.252817
     88          1           0      -13.107100   -0.159601   -1.749467
     89          1           0      -12.937311   -1.802353   -3.612500
     90          1           0      -12.056623   -0.137355   -4.137385
     91          1           0      -11.193089   -1.399569   -3.540237
     92          1           0       -8.938188   -4.852615   -1.911383
     93          1           0       -8.267105   -5.773487   -0.220216
     94          1           0       -9.707771   -4.746966   -0.364228
     95          1           0       -3.483394   -3.633344   -0.226097
     96          1           0       -1.439259   -4.596102    3.530022
     97          1           0       -3.085284   -5.532403    3.357119
     98          1           0       -1.583454   -6.259110    2.596563
     99          1           0        2.606585   -1.716141   -1.443032
    100          1           0        2.909770    0.123607   -2.030689
    101          1           0        4.358520   -1.073797    0.386541
    102          1           0        3.945136    1.506432   -2.494373
    103          1           0        5.802752    2.017857   -1.984129
    104          1           0        5.689433    0.732269   -3.224383
    105          1           0        6.664372    1.424889    0.368546
    106          1           0        6.255161   -0.242100    0.845818
    107          1           0        7.282135   -1.212106   -0.982255
    108          1           0        7.799417    0.446342   -1.889044
    109          1           0        8.780928    0.914782    0.537511
    110          1           0        8.679865   -0.670180    0.682689
    111          1           0       10.051521    0.031580   -1.792907
    112          1           0        9.006069   -2.258517   -1.801848
    113          1           0       10.978796   -2.377593   -1.932363
    114          1           0       10.100293   -2.735575   -0.460280
    115          1           0       11.548482    0.675324    0.402101
    116          1           0       11.537193   -0.936475    0.851040
    117          1           0       12.827152   -1.249635   -1.134931
    118          1           0       12.718919   -0.092892   -1.757635
    119          1           0       13.576537    0.891179    0.592913
    120          1           0       13.697487   -0.690267    1.087140
    121          1           0       15.269011    0.322626   -1.299066
    122          1           0       15.771606   -2.241038    0.205676
    123          1           0       14.753262   -2.126720   -1.424876
    124          1           0       16.639550   -1.697481   -1.167235
    125          1           0       16.173814    1.405615    0.686096
    126          1           0       16.474082   -0.273994    1.267807
    127          1           0       18.328823   -0.296055   -0.573224
    128          1           0       17.605271    0.979902   -1.102706
    129          1           0       18.617394    2.288009    0.781108
    130          1           0       18.862784    0.779455    1.652272
    131          1           0       20.653049    0.300224    0.016763
    132          1           0       19.977485    3.134495   -0.784791
    133          1           0       21.360454    2.272335   -1.541701
    134          1           0       19.979592    1.355340   -1.923044
    135          1           0       21.050932    1.547442    2.259983
    136          1           0       22.332507    2.096208    0.948817
    137          1           0       20.951633    3.039691    1.308731
 ---------------------------------------------------------------------

 SCF Done:  E(RCAM-B3LYP) =  -2933.41286312     A.U. after   16 cycles

 Excitation energies and oscillator strengths:

 Excited State   1:      Singlet-A      1.9961 eV  621.14 nm  f=0.2291  <S**2>=0.000
     240 -> 243       -0.22092
     241 -> 242        0.66378
 This state for optimization and/or second-order correction.
 Total Energy, E(TD-HF/TD-DFT) =  -2933.33950889
 Copying the excited state density for this state as the 1-particle RhoCI density.

 The electronic state is 1-A.
 Alpha  occ. eigenvalues --  -46.80330 -19.23544 -19.22187 -19.16801 -19.16048
 Alpha  occ. eigenvalues --  -19.15763 -14.37729 -14.35229 -14.35060 -14.34942
 Alpha  occ. eigenvalues --  -10.34628 -10.34539 -10.31214 -10.28233 -10.27905
 Alpha  occ. eigenvalues --  -10.26476 -10.26063 -10.25326 -10.24773 -10.24740
 Alpha  occ. eigenvalues --  -10.24728 -10.24576 -10.24555 -10.24529 -10.24428
 Alpha  occ. eigenvalues --  -10.24319 -10.24154 -10.24096 -10.23488 -10.23431
 Alpha  occ. eigenvalues --  -10.23382 -10.23187 -10.23089 -10.22660 -10.22387
 Alpha  occ. eigenvalues --  -10.22350 -10.22347 -10.22340 -10.22232 -10.22116
 Alpha  occ. eigenvalues --  -10.21976 -10.21880 -10.21800 -10.21782 -10.21644
 Alpha  occ. eigenvalues --  -10.21599 -10.21592 -10.21509 -10.21489 -10.21401
 Alpha  occ. eigenvalues --  -10.21358 -10.21095 -10.21082 -10.21001 -10.20949
 Alpha  occ. eigenvalues --  -10.20912 -10.20727 -10.20654 -10.20560 -10.20377
 Alpha  occ. eigenvalues --  -10.20367 -10.20355 -10.20173 -10.19428 -10.18184
 Alpha  occ. eigenvalues --   -3.08890  -1.83841  -1.83357  -1.83293  -1.14968
 Alpha  occ. eigenvalues --   -1.12874  -1.05158  -1.03022  -1.01574  -1.00762
 Alpha  occ. eigenvalues --   -0.99005  -0.98659  -0.97429  -0.86703  -0.86604
 Alpha  occ. eigenvalues --   -0.86082  -0.85787  -0.84836  -0.84520  -0.84153
 Alpha  occ. eigenvalues --   -0.84050  -0.83799  -0.83467  -0.82286  -0.82022
 Alpha  occ. eigenvalues --   -0.81227  -0.79830  -0.79459  -0.78814  -0.78471
 Alpha  occ. eigenvalues --   -0.77610  -0.76929  -0.76257  -0.75437  -0.73481
 Alpha  occ. eigenvalues --   -0.72815  -0.72068  -0.71773  -0.71273  -0.70708
 Alpha  occ. eigenvalues --   -0.70341  -0.70004  -0.69823  -0.68707  -0.68222
 Alpha  occ. eigenvalues --   -0.67466  -0.66352  -0.65811  -0.65395  -0.64615
 Alpha  occ. eigenvalues --   -0.63359  -0.63280  -0.62060  -0.61765  -0.61019
 Alpha  occ. eigenvalues --   -0.60624  -0.60105  -0.59632  -0.59160  -0.58367
 Alpha  occ. eigenvalues --   -0.57944  -0.56504  -0.56404  -0.55723  -0.55534
 Alpha  occ. eigenvalues --   -0.54825  -0.54229  -0.53969  -0.53202  -0.52655
 Alpha  occ. eigenvalues --   -0.52432  -0.51969  -0.51581  -0.51555  -0.51163
 Alpha  occ. eigenvalues --   -0.50856  -0.50737  -0.50234  -0.50077  -0.49782
 Alpha  occ. eigenvalues --   -0.49488  -0.49288  -0.48859  -0.48709  -0.48000
 Alpha  occ. eigenvalues --   -0.47823  -0.47730  -0.47571  -0.47356  -0.47086
 Alpha  occ. eigenvalues --   -0.46915  -0.46807  -0.46464  -0.46445  -0.45998
 Alpha  occ. eigenvalues --   -0.45636  -0.45478  -0.45259  -0.44962  -0.44688
 Alpha  occ. eigenvalues --   -0.44283  -0.44252  -0.44014  -0.43988  -0.43665
 Alpha  occ. eigenvalues --   -0.43533  -0.43275  -0.43031  -0.42896  -0.42783
 Alpha  occ. eigenvalues --   -0.42443  -0.42167  -0.42000  -0.41787  -0.41651
 Alpha  occ. eigenvalues --   -0.41527  -0.41341  -0.41260  -0.41130  -0.40836
 Alpha  occ. eigenvalues --   -0.40766  -0.40410  -0.40267  -0.40088  -0.40037
 Alpha  occ. eigenvalues --   -0.39969  -0.39815  -0.39664  -0.39351  -0.39065
 Alpha  occ. eigenvalues --   -0.38728  -0.38667  -0.38395  -0.38329  -0.38031
 Alpha  occ. eigenvalues --   -0.37877  -0.37438  -0.37226  -0.37120  -0.37043
 Alpha  occ. eigenvalues --   -0.36803  -0.36600  -0.36463  -0.36368  -0.36094
 Alpha  occ. eigenvalues --   -0.35764  -0.35485  -0.35402  -0.35333  -0.34698
 Alpha  occ. eigenvalues --   -0.34553  -0.34411  -0.34173  -0.33809  -0.33490
 Alpha  occ. eigenvalues --   -0.33254  -0.32732  -0.32630  -0.32105  -0.32090
 Alpha  occ. eigenvalues --   -0.32034  -0.31847  -0.31333  -0.30526  -0.30418
 Alpha  occ. eigenvalues --   -0.29793  -0.29539  -0.29350  -0.28525  -0.27836
 Alpha  occ. eigenvalues --   -0.26718  -0.26345  -0.24803  -0.23993  -0.21746
 Alpha  occ. eigenvalues --   -0.19442
 Alpha virt. eigenvalues --   -0.06765  -0.04057  -0.00595   0.01387   0.02044
 Alpha virt. eigenvalues --    0.03036   0.03341   0.04762   0.04853   0.05445
 Alpha virt. eigenvalues --    0.06539   0.08050   0.08779   0.08963   0.09899

 Mulliken charges:
               1
     1  Mg   0.808535
     2  C    0.073861
     3  C   -0.191195
     4  C   -0.158893
     5  C   -0.183222
     6  N   -0.621814
     7  C    0.270453
     8  C   -0.101991
     9  C   -0.133162
    10  C    0.328542
    11  C   -0.298211
    12  C   -0.183689
    13  C   -0.262870
    14  C    0.590682
    15  O   -0.508477
    16  O   -0.425270
    17  N   -0.711550
    18  C    0.360689
    19  C    0.019955
    20  C    0.053506
    21  C    0.263141
    22  C   -0.375839
    23  C   -0.116990
    24  C   -0.251370
    25  N   -0.687816
    26  C    0.310471
    27  C   -0.001684
    28  C   -0.010986
    29  C    0.319910
    30  C   -0.371355
    31  C   -0.191646
    32  C   -0.304782
    33  N   -0.717082
    34  C    0.258847
    35  C    0.046993
    36  C    0.036206
    37  C    0.334629
    38  C   -0.381471
    39  C    0.334032
    40  O   -0.460074
    41  C   -0.347403
    42  C    0.633223
    43  O   -0.499736
    44  O   -0.443582
    45  C   -0.083031
    46  C    0.045604
    47  C   -0.139399
    48  C    0.165307
    49  C   -0.358271
    50  C   -0.247382
    51  C   -0.172303
    52  C   -0.116785
    53  C   -0.063540
    54  C   -0.318068
    55  C   -0.171102
    56  C   -0.169951
    57  C   -0.177458
    58  C   -0.067975
    59  C   -0.305326
    60  C   -0.167466
    61  C   -0.184242
    62  C   -0.163796
    63  C   -0.081874
    64  C   -0.286888
    65  C   -0.308497
    66  H    0.067430
    67  H    0.085245
    68  H    0.066662
    69  H    0.111566
    70  H    0.101792
    71  H    0.099936
    72  H    0.088213
    73  H    0.130631
    74  H    0.127364
    75  H    0.118848
    76  H    0.122755
    77  H    0.149345
    78  H    0.137686
    79  H    0.128914
    80  H    0.092949
    81  H    0.065378
    82  H    0.096643
    83  H    0.104670
    84  H    0.120958
    85  H    0.106051
    86  H    0.134466
    87  H    0.100475
    88  H    0.101319
    89  H    0.101143
    90  H    0.064383
    91  H    0.122962
    92  H    0.140803
    93  H    0.139132
    94  H    0.119389
    95  H    0.148885
    96  H    0.123989
    97  H    0.148708
    98  H    0.124267
    99  H    0.131968
   100  H    0.064332
   101  H    0.076464
   102  H    0.132289
   103  H    0.124178
   104  H    0.074153
   105  H    0.086687
   106  H    0.110977
   107  H    0.080010
   108  H    0.072439
   109  H    0.043127
   110  H    0.100850
   111  H    0.097275
   112  H    0.109634
   113  H    0.111134
   114  H    0.105626
   115  H    0.098047
   116  H    0.061302
   117  H    0.086569
   118  H    0.068987
   119  H    0.076321
   120  H    0.081951
   121  H    0.092104
   122  H    0.053535
   123  H    0.110712
   124  H    0.107859
   125  H    0.102332
   126  H    0.096212
   127  H    0.095886
   128  H    0.098308
   129  H    0.078400
   130  H    0.087098
   131  H    0.085386
   132  H    0.108274
   133  H    0.103895
   134  H    0.088156
   135  H    0.089241
   136  H    0.094085
   137  H    0.092166
 Sum of Mulliken charges =  -0.00000

 Dipole moment (field-independent basis, Debye):
    X=              2.2666    Y=              2.6637    Z=              0.6994  Tot=              3.5667
 Quadrupole moment (field-independent basis, Debye-Ang):
   XX=           -345.6788   YY=           -394.2897   ZZ=           -401.1986
   XY=            -12.4240   XZ=              6.2927   YZ=             -0.7949

 Normal termination of Gaussian 16 at Sat Sep 14 04:51:42 2019.
