 Gaussian 09, Revision D.01,
 Gaussian 09:  ES64L-G09RevD.01 24-Apr-2013

 -------------------------------------
 # td=(NStates=1) CAM-B3LYP/6-31G(d,p)
 -------------------------------------

 --
 TD
 --
 Symbolic Z-matrix:
 Charge =  0 Multiplicity = 1

                         Standard orientation:
 ---------------------------------------------------------------------
 Center     Atomic      Atomic             Coordinates (Angstroms)
 Number     Number       Type             X           Y           Z
 ---------------------------------------------------------------------
      1         12           0       -7.119901    0.591697    0.120390
      2          6           0       -4.835354   -1.917584    0.558301
      3          6           0       -4.713412    2.837877    1.097082
      4          6           0       -9.379442    3.000951   -0.302287
      5          6           0       -9.476664   -1.912785   -0.975296
      6          7           0       -5.044763    0.391075    0.842843
      7          6           0       -4.328218   -0.729805    0.800932
      8          6           0       -2.864954   -0.442364    1.218278
      9          6           0       -3.074172    1.139162    1.705751
     10          6           0       -4.329489    1.486676    1.243041
     11          6           0       -2.870077    1.203904    3.289539
     12          6           0       -1.955716   -0.697774   -0.038254
     13          6           0       -0.483258   -0.406565    0.317063
     14          6           0        0.591322   -0.478055   -0.797620
     15          8           0        0.233489   -0.752980   -1.955209
     16          8           0        1.734423   -0.278188   -0.399569
     17          7           0       -7.092351    2.578296    0.314500
     18          6           0       -5.918016    3.338933    0.719237
     19          6           0       -6.373773    4.770985    0.685336
     20          6           0       -7.663376    4.804954    0.397032
     21          6           0       -8.164901    3.423669    0.230891
     22          6           0       -5.412664    5.884587    1.030347
     23          6           0       -8.503396    5.998922    0.232175
     24          6           0       -8.482870    7.046026    0.986686
     25          7           0       -9.117543    0.498610   -0.426973
     26          6           0       -9.807045    1.677807   -0.549554
     27          6           0      -11.176986    1.375937   -1.054541
     28          6           0      -11.276487   -0.026590   -1.181019
     29          6           0       -9.921919   -0.508082   -0.865274
     30          6           0      -12.229685    2.403881   -1.350429
     31          6           0      -12.329456   -0.771932   -1.850573
     32          6           0      -12.097624   -1.107676   -3.326352
     33          7           0       -7.231396   -1.467539   -0.050880
     34          6           0       -8.223763   -2.241496   -0.537441
     35          6           0       -7.695432   -3.629838   -0.472245
     36          6           0       -6.405215   -3.590819   -0.114899
     37          6           0       -6.105511   -2.222735    0.170210
     38          6           0       -8.550444   -4.714766   -1.024036
     39          6           0       -5.263440   -4.340234    0.309377
     40          8           0       -5.147614   -5.557004    0.438967
     41          6           0       -4.182407   -3.299043    0.627563
     42          6           0       -3.551313   -3.660417    1.935823
     43          8           0       -3.603948   -3.092936    2.987374
     44          8           0       -2.707182   -4.702547    1.723230
     45          6           0       -1.992054   -5.160906    2.797744
     46          6           0        2.800931   -0.342403   -1.446990
     47          6           0        4.032139   -0.101703   -0.775248
     48          6           0        5.136194    0.566509   -1.108447
     49          6           0        5.162096    1.438418   -2.324131
     50          6           0        6.419103    0.610404   -0.322768
     51          6           0        7.661907   -0.015593   -0.967676
     52          6           0        8.793712   -0.057534   -0.072977
     53          6           0       10.092570   -0.618664   -0.746044
     54          6           0        9.925128   -2.164198   -1.172899
     55          6           0       11.358746   -0.389463    0.112635
     56          6           0       12.650338   -0.798863   -0.404306
     57          6           0       13.877015   -0.334800    0.328916
     58          6           0       15.186491   -0.323394   -0.401334
     59          6           0       15.579842   -1.674475   -0.975235
     60          6           0       16.310138    0.270930    0.588228
     61          6           0       17.704480    0.526747   -0.159937
     62          6           0       18.670833    1.285570    0.757640
     63          6           0       20.070725    1.336509    0.170511
     64          6           0       20.111004    2.105469   -1.147869
     65          6           0       21.079121    1.990674    1.129775
     66          1           0       -4.089386    3.504119    1.614339
     67          1           0       -9.859552    3.857341   -0.506644
     68          1           0      -10.416744   -2.541241   -1.034020
     69          1           0       -2.530466   -0.829771    2.248344
     70          1           0       -2.317892    1.701188    1.147114
     71          1           0       -1.836019    1.068122    3.519860
     72          1           0       -3.374645    2.178380    3.667970
     73          1           0       -3.456718    0.382393    3.852166
     74          1           0       -1.918286   -1.886499   -0.305558
     75          1           0       -2.374445    0.057410   -0.729614
     76          1           0       -0.264745    0.671760    0.895561
     77          1           0       -0.171688   -0.972316    1.322631
     78          1           0       -5.991961    6.881723    0.389894
     79          1           0       -5.342766    6.411517    1.960181
     80          1           0       -4.355374    5.866667    0.570852
     81          1           0       -9.173410    5.819699   -0.688618
     82          1           0       -8.845713    7.984666    0.739911
     83          1           0       -8.030668    7.149784    1.894326
     84          1           0      -11.667907    3.500957   -1.782008
     85          1           0      -13.119562    2.146342   -1.972026
     86          1           0      -12.687470    2.678547   -0.261302
     87          1           0      -12.333944   -1.722784   -1.105476
     88          1           0      -13.254447   -0.288853   -1.635531
     89          1           0      -12.950219   -1.578245   -3.792531
     90          1           0      -12.117028   -0.096394   -4.037475
     91          1           0      -11.124818   -1.467558   -3.716975
     92          1           0       -8.887778   -4.357705   -2.045668
     93          1           0       -8.213306   -5.645864   -1.126861
     94          1           0       -9.442646   -4.998144   -0.451570
     95          1           0       -3.407795   -3.581240   -0.217145
     96          1           0       -0.874821   -4.488070    3.036190
     97          1           0       -2.517102   -5.412202    3.731094
     98          1           0       -1.448451   -6.165930    2.714679
     99          1           0        2.751719   -1.368885   -1.885783
    100          1           0        2.583602    0.343391   -2.303874
    101          1           0        3.986134   -0.863558    0.201973
    102          1           0        4.121571    1.700523   -2.789484
    103          1           0        5.419107    2.545539   -2.229266
    104          1           0        5.660555    1.036042   -3.079956
    105          1           0        6.480167    1.597322    0.023830
    106          1           0        5.908905    0.087713    0.628386
    107          1           0        7.270546   -0.963901   -1.275621
    108          1           0        7.961338    0.498831   -1.836802
    109          1           0        8.986607    1.000546    0.303154
    110          1           0        8.602000   -0.729375    0.816049
    111          1           0       10.091136   -0.034127   -1.773413
    112          1           0        9.045016   -2.358852   -1.821500
    113          1           0       10.854023   -2.474502   -1.695271
    114          1           0        9.814142   -2.744806   -0.249902
    115          1           0       11.467194    0.554266    0.648587
    116          1           0       11.314906   -1.186206    0.877275
    117          1           0       12.733153   -1.873191   -0.520303
    118          1           0       12.629677   -0.351147   -1.404621
    119          1           0       13.539485    0.635826    0.778058
    120          1           0       13.923630   -0.915622    1.200688
    121          1           0       15.087319    0.423653   -1.180767
    122          1           0       15.767378   -2.440996   -0.125224
    123          1           0       14.987384   -1.813644   -1.711979
    124          1           0       16.571095   -1.585123   -1.488109
    125          1           0       15.824951    1.226886    1.153984
    126          1           0       16.585147   -0.421229    1.402668
    127          1           0       18.038588   -0.468936   -0.536709
    128          1           0       17.428596    1.201697   -0.934028
    129          1           0       18.314837    2.344069    1.127581
    130          1           0       18.875939    0.509827    1.790827
    131          1           0       20.411146    0.326797   -0.098626
    132          1           0       19.715996    3.230625   -1.056875
    133          1           0       21.217672    2.369506   -1.402872
    134          1           0       19.422580    1.446652   -1.968105
    135          1           0       21.182839    1.589951    2.112302
    136          1           0       22.023231    1.892429    0.519122
    137          1           0       21.114515    3.100335    1.482474
 ---------------------------------------------------------------------

 SCF Done:  E(RCAM-B3LYP) =  -2932.61937425     A.U. after   18 cycles

 Excitation energies and oscillator strengths:

 Excited State   1:      Singlet-A      1.9719 eV  628.76 nm  f=0.2125  <S**2>=0.000
     240 -> 243       -0.26468
     241 -> 242        0.64951
 This state for optimization and/or second-order correction.
 Total Energy, E(TD-HF/TD-KS) =  -2932.54690920
 Copying the excited state density for this state as the 1-particle RhoCI density.

 The electronic state is 1-A.
 Alpha  occ. eigenvalues --  -46.84291 -19.28087 -19.26425 -19.21183 -19.19943
 Alpha  occ. eigenvalues --  -19.18537 -14.41575 -14.39381 -14.39144 -14.39031
 Alpha  occ. eigenvalues --  -10.39299 -10.38385 -10.34758 -10.33242 -10.32629
 Alpha  occ. eigenvalues --  -10.30316 -10.30228 -10.29883 -10.29196 -10.29139
 Alpha  occ. eigenvalues --  -10.29084 -10.28969 -10.28935 -10.28835 -10.28827
 Alpha  occ. eigenvalues --  -10.28628 -10.28615 -10.28291 -10.28108 -10.28034
 Alpha  occ. eigenvalues --  -10.27802 -10.27779 -10.27624 -10.27572 -10.27510
 Alpha  occ. eigenvalues --  -10.27508 -10.27380 -10.27362 -10.27242 -10.27234
 Alpha  occ. eigenvalues --  -10.27161 -10.26617 -10.26611 -10.26500 -10.26419
 Alpha  occ. eigenvalues --  -10.26241 -10.26218 -10.26176 -10.26013 -10.25984
 Alpha  occ. eigenvalues --  -10.25863 -10.25857 -10.25646 -10.25645 -10.25492
 Alpha  occ. eigenvalues --  -10.25453 -10.25375 -10.24861 -10.24857 -10.24758
 Alpha  occ. eigenvalues --  -10.24576 -10.24539 -10.24226 -10.24027 -10.23775
 Alpha  occ. eigenvalues --   -3.13242  -1.87963  -1.87499  -1.87385  -1.22198
 Alpha  occ. eigenvalues --   -1.19413  -1.10337  -1.10189  -1.07029  -1.05060
 Alpha  occ. eigenvalues --   -1.03676  -1.02223  -1.01116  -0.93995  -0.92690
 Alpha  occ. eigenvalues --   -0.91310  -0.89747  -0.89729  -0.89403  -0.89016
 Alpha  occ. eigenvalues --   -0.88371  -0.88057  -0.87517  -0.86997  -0.86863
 Alpha  occ. eigenvalues --   -0.85354  -0.84849  -0.83553  -0.83069  -0.82360
 Alpha  occ. eigenvalues --   -0.82040  -0.81551  -0.80905  -0.80691  -0.77980
 Alpha  occ. eigenvalues --   -0.77341  -0.77007  -0.76490  -0.76098  -0.75853
 Alpha  occ. eigenvalues --   -0.74564  -0.74457  -0.74017  -0.73321  -0.72600
 Alpha  occ. eigenvalues --   -0.72031  -0.70499  -0.70193  -0.69203  -0.68566
 Alpha  occ. eigenvalues --   -0.67525  -0.67197  -0.65717  -0.65125  -0.64563
 Alpha  occ. eigenvalues --   -0.64499  -0.63982  -0.63342  -0.62597  -0.62490
 Alpha  occ. eigenvalues --   -0.61667  -0.60567  -0.60261  -0.59633  -0.58990
 Alpha  occ. eigenvalues --   -0.58766  -0.58304  -0.57850  -0.57541  -0.56991
 Alpha  occ. eigenvalues --   -0.56248  -0.56198  -0.55491  -0.55405  -0.54958
 Alpha  occ. eigenvalues --   -0.54758  -0.54452  -0.53874  -0.53622  -0.53188
 Alpha  occ. eigenvalues --   -0.53120  -0.52541  -0.52434  -0.52186  -0.52041
 Alpha  occ. eigenvalues --   -0.51963  -0.51514  -0.51111  -0.51029  -0.50920
 Alpha  occ. eigenvalues --   -0.50583  -0.50465  -0.50252  -0.49982  -0.49459
 Alpha  occ. eigenvalues --   -0.49338  -0.49259  -0.48975  -0.48525  -0.48465
 Alpha  occ. eigenvalues --   -0.48368  -0.48102  -0.47873  -0.47650  -0.46902
 Alpha  occ. eigenvalues --   -0.46623  -0.46502  -0.46219  -0.46124  -0.45911
 Alpha  occ. eigenvalues --   -0.45493  -0.45303  -0.45241  -0.45033  -0.44840
 Alpha  occ. eigenvalues --   -0.44635  -0.44555  -0.44355  -0.44164  -0.43789
 Alpha  occ. eigenvalues --   -0.43740  -0.43612  -0.43362  -0.43160  -0.43000
 Alpha  occ. eigenvalues --   -0.42972  -0.42603  -0.42290  -0.42070  -0.41967
 Alpha  occ. eigenvalues --   -0.41760  -0.41432  -0.41176  -0.40911  -0.40866
 Alpha  occ. eigenvalues --   -0.40852  -0.40561  -0.40444  -0.40244  -0.39817
 Alpha  occ. eigenvalues --   -0.39783  -0.39567  -0.39155  -0.39093  -0.38986
 Alpha  occ. eigenvalues --   -0.38579  -0.38468  -0.38019  -0.37942  -0.37721
 Alpha  occ. eigenvalues --   -0.37174  -0.37073  -0.36904  -0.36799  -0.36189
 Alpha  occ. eigenvalues --   -0.35928  -0.35761  -0.35564  -0.35160  -0.34955
 Alpha  occ. eigenvalues --   -0.34726  -0.34705  -0.34346  -0.33900  -0.33514
 Alpha  occ. eigenvalues --   -0.32598  -0.32386  -0.32181  -0.31068  -0.30671
 Alpha  occ. eigenvalues --   -0.30120  -0.29670  -0.28756  -0.27199  -0.23626
 Alpha  occ. eigenvalues --   -0.20225
 Alpha virt. eigenvalues --   -0.05796  -0.03864   0.01639   0.04328   0.05209
 Alpha virt. eigenvalues --    0.05607   0.05886   0.06556   0.07163   0.07619
 Alpha virt. eigenvalues --    0.08686   0.10673   0.10937   0.11193   0.11375

 Mulliken charges:
               1
     1  Mg   0.816302
     2  C    0.156073
     3  C   -0.189806
     4  C   -0.126284
     5  C   -0.165601
     6  N   -0.637759
     7  C    0.271705
     8  C   -0.170715
     9  C   -0.188860
    10  C    0.366662
    11  C   -0.324931
    12  C   -0.139302
    13  C   -0.276651
    14  C    0.605615
    15  O   -0.527934
    16  O   -0.403119
    17  N   -0.713077
    18  C    0.288349
    19  C    0.054252
    20  C   -0.005494
    21  C    0.275242
    22  C   -0.385551
    23  C   -0.069714
    24  C   -0.239382
    25  N   -0.681769
    26  C    0.308097
    27  C    0.047857
    28  C   -0.011501
    29  C    0.250118
    30  C   -0.361487
    31  C   -0.214884
    32  C   -0.305192
    33  N   -0.731581
    34  C    0.321578
    35  C   -0.031306
    36  C    0.083674
    37  C    0.241233
    38  C   -0.376337
    39  C    0.355163
    40  O   -0.466319
    41  C   -0.354702
    42  C    0.641859
    43  O   -0.458624
    44  O   -0.417324
    45  C   -0.069641
    46  C   -0.012099
    47  C   -0.111510
    48  C    0.096969
    49  C   -0.375866
    50  C   -0.224801
    51  C   -0.165566
    52  C   -0.157063
    53  C   -0.062711
    54  C   -0.328210
    55  C   -0.175184
    56  C   -0.186196
    57  C   -0.172028
    58  C   -0.062414
    59  C   -0.298055
    60  C   -0.183003
    61  C   -0.187065
    62  C   -0.133303
    63  C   -0.040072
    64  C   -0.287718
    65  C   -0.315941
    66  H    0.089122
    67  H    0.059466
    68  H    0.115036
    69  H    0.128105
    70  H    0.114638
    71  H    0.123640
    72  H    0.103666
    73  H    0.130030
    74  H    0.117331
    75  H    0.127721
    76  H    0.091045
    77  H    0.114145
    78  H    0.071299
    79  H    0.139290
    80  H    0.114890
    81  H    0.096316
    82  H    0.106244
    83  H    0.111450
    84  H    0.081183
    85  H    0.120792
    86  H    0.107731
    87  H    0.079709
    88  H    0.112322
    89  H    0.115530
    90  H    0.073958
    91  H    0.127118
    92  H    0.120767
    93  H    0.136715
    94  H    0.118251
    95  H    0.172673
    96  H    0.051956
    97  H    0.132176
    98  H    0.114986
    99  H    0.150493
   100  H    0.138899
   101  H    0.077655
   102  H    0.090662
   103  H    0.111137
   104  H    0.139599
   105  H    0.115450
   106  H    0.082607
   107  H    0.108342
   108  H    0.106010
   109  H    0.086417
   110  H    0.088878
   111  H    0.057736
   112  H    0.105169
   113  H    0.111401
   114  H    0.105089
   115  H    0.091311
   116  H    0.088724
   117  H    0.097811
   118  H    0.075529
   119  H    0.075791
   120  H    0.093438
   121  H    0.086740
   122  H    0.098169
   123  H    0.118839
   124  H    0.090600
   125  H    0.066835
   126  H    0.088279
   127  H    0.100235
   128  H    0.108871
   129  H    0.091278
   130  H    0.035385
   131  H    0.100085
   132  H    0.083622
   133  H    0.091582
   134  H    0.079865
   135  H    0.105577
   136  H    0.090238
   137  H    0.089261
 Sum of Mulliken charges =   0.00000

 Dipole moment (field-independent basis, Debye):
    X=              3.3201    Y=              4.6762    Z=             -0.3292  Tot=              5.7444
 Quadrupole moment (field-independent basis, Debye-Ang):
   XX=           -347.9904   YY=           -392.5478   ZZ=           -398.6423
   XY=            -24.0710   XZ=              8.3828   YZ=              4.4939

 Normal termination of Gaussian 09 at Wed Jul  3 04:55:03 2019.
