 Gaussian 16, Revision A.03,
 Gaussian 16:  ES64L-G16RevA.03 25-Dec-2016

 -------------------------------------
 # td=(NStates=1) CAM-B3LYP/6-31G(d,p)
 -------------------------------------

 --
 TD
 --
 Symbolic Z-matrix:
 Charge =  0 Multiplicity = 1

                         Standard orientation:
 ---------------------------------------------------------------------
 Center     Atomic      Atomic             Coordinates (Angstroms)
 Number     Number       Type             X           Y           Z
 ---------------------------------------------------------------------
      1         12           0       -7.159730    0.597695    0.049446
      2          6           0       -4.844622   -2.039095    0.471792
      3          6           0       -4.757688    2.780177    1.295029
      4          6           0       -9.375038    3.143591   -0.458157
      5          6           0       -9.514952   -1.667123   -0.916419
      6          7           0       -5.094573    0.462189    0.642031
      7          6           0       -4.385950   -0.719215    0.789541
      8          6           0       -2.993353   -0.421841    1.283851
      9          6           0       -3.101885    1.060667    1.725828
     10          6           0       -4.459938    1.413897    1.231353
     11          6           0       -2.914938    1.212936    3.219783
     12          6           0       -1.903711   -0.591186    0.168973
     13          6           0       -0.473221   -0.469444    0.539234
     14          6           0        0.510055   -0.660005   -0.569874
     15          8           0        0.258170   -0.824372   -1.746196
     16          8           0        1.787376   -0.373503   -0.183009
     17          7           0       -7.079355    2.567608    0.462495
     18          6           0       -6.094330    3.351997    0.882803
     19          6           0       -6.463990    4.771609    0.774148
     20          6           0       -7.698123    4.843937    0.340536
     21          6           0       -8.140028    3.491879    0.116057
     22          6           0       -5.578459    5.800224    1.347940
     23          6           0       -8.554943    5.969937    0.115395
     24          6           0       -8.451074    7.146495    0.763112
     25          7           0       -9.160570    0.670234   -0.539711
     26          6           0       -9.879138    1.857929   -0.702416
     27          6           0      -11.192296    1.531841   -1.114630
     28          6           0      -11.219020    0.096996   -1.354728
     29          6           0       -9.832958   -0.375660   -1.003278
     30          6           0      -12.313303    2.606495   -1.523665
     31          6           0      -12.320075   -0.750464   -1.828285
     32          6           0      -12.303490   -1.088514   -3.430450
     33          7           0       -7.102388   -1.407009   -0.093054
     34          6           0       -8.296284   -2.201143   -0.584170
     35          6           0       -7.755437   -3.594154   -0.574014
     36          6           0       -6.488720   -3.543535   -0.084441
     37          6           0       -6.131951   -2.198251    0.036754
     38          6           0       -8.714532   -4.819380   -0.919237
     39          6           0       -5.324555   -4.330864    0.140837
     40          8           0       -5.137731   -5.572967    0.016073
     41          6           0       -4.159029   -3.354432    0.630574
     42          6           0       -3.601300   -3.704669    1.937483
     43          8           0       -3.839146   -3.053727    2.969947
     44          8           0       -2.846707   -4.817282    1.897084
     45          6           0       -2.303947   -5.353024    3.107066
     46          6           0        2.856108   -0.510098   -1.228249
     47          6           0        4.175723   -0.381387   -0.590700
     48          6           0        5.199026    0.315496   -1.077922
     49          6           0        5.084245    1.027704   -2.317702
     50          6           0        6.403680    0.428973   -0.211059
     51          6           0        7.625416   -0.210610   -0.861552
     52          6           0        8.958461   -0.052988    0.008066
     53          6           0       10.195380   -0.761032   -0.748910
     54          6           0       10.091353   -2.138422   -1.034953
     55          6           0       11.459872   -0.319147    0.083425
     56          6           0       12.799699   -0.538854   -0.674108
     57          6           0       13.991245   -0.182370    0.175042
     58          6           0       15.410243   -0.245536   -0.583384
     59          6           0       15.864229   -1.671995   -1.004630
     60          6           0       16.406351    0.387246    0.344375
     61          6           0       17.769033    0.618823   -0.188572
     62          6           0       18.758312    1.298561    0.702962
     63          6           0       20.178266    1.486272    0.203959
     64          6           0       20.221802    2.319469   -1.068691
     65          6           0       21.118408    1.968064    1.230147
     66          1           0       -4.043744    3.439217    1.834008
     67          1           0      -10.184634    3.943025   -0.350835
     68          1           0      -10.264512   -2.458651   -1.061689
     69          1           0       -2.529507   -1.157933    2.097195
     70          1           0       -2.313101    1.677536    1.298634
     71          1           0       -1.831754    0.901308    3.620386
     72          1           0       -2.961237    2.382358    3.526272
     73          1           0       -3.514523    0.782231    3.840761
     74          1           0       -1.975859   -1.604146   -0.333584
     75          1           0       -2.101192    0.069136   -0.791540
     76          1           0       -0.102917    0.551785    1.092389
     77          1           0       -0.415665   -1.405674    1.224912
     78          1           0       -5.793081    6.908728    0.731341
     79          1           0       -5.859696    6.009604    2.392221
     80          1           0       -4.455798    5.578012    1.266365
     81          1           0       -9.197868    6.103790   -0.813439
     82          1           0       -9.093544    8.037711    0.655662
     83          1           0       -7.791343    7.450854    1.434235
     84          1           0      -12.421350    2.956533   -2.419808
     85          1           0      -13.303481    2.068535   -1.249901
     86          1           0      -12.163993    3.380884   -0.628793
     87          1           0      -12.285391   -1.689063   -1.363187
     88          1           0      -13.229384   -0.229618   -1.625479
     89          1           0      -13.263732   -1.534090   -3.890171
     90          1           0      -12.034076   -0.095426   -3.970232
     91          1           0      -11.430134   -1.651673   -3.524779
     92          1           0       -9.219317   -4.914275   -1.791757
     93          1           0       -7.864856   -5.658644   -1.016387
     94          1           0       -9.471527   -4.926848   -0.042318
     95          1           0       -3.325091   -3.570847   -0.026906
     96          1           0       -2.139270   -4.545599    3.807532
     97          1           0       -3.204523   -5.833906    3.609651
     98          1           0       -1.405113   -5.988401    2.966689
     99          1           0        2.985580   -1.692387   -1.714954
    100          1           0        2.884615    0.137262   -2.063785
    101          1           0        4.338159   -0.839677    0.217674
    102          1           0        4.068983    1.415177   -2.579136
    103          1           0        5.774260    2.087147   -2.412549
    104          1           0        5.497069    0.308028   -3.163648
    105          1           0        6.679741    1.514315   -0.068859
    106          1           0        6.290011    0.097616    0.776348
    107          1           0        7.383941   -1.365192   -1.209659
    108          1           0        8.100824    0.191589   -1.885049
    109          1           0        9.249079    1.049489    0.220184
    110          1           0        8.957072   -0.531789    0.748847
    111          1           0       10.191241   -0.130669   -1.722910
    112          1           0        9.395141   -2.505607   -1.846048
    113          1           0       10.926586   -2.457065   -1.442098
    114          1           0        9.942505   -2.801507   -0.201741
    115          1           0       11.638349    0.750599    0.413888
    116          1           0       11.458260   -1.003955    0.965221
    117          1           0       12.837936   -1.588566   -1.149655
    118          1           0       12.997929    0.151660   -1.613820
    119          1           0       13.919758    0.863276    0.487091
    120          1           0       14.011811   -0.735281    1.086902
    121          1           0       15.344024    0.402766   -1.419722
    122          1           0       16.061300   -2.142152    0.026242
    123          1           0       15.306314   -2.190928   -1.563651
    124          1           0       16.800333   -1.595828   -1.622171
    125          1           0       15.709845    1.419810    0.550249
    126          1           0       16.423510   -0.221638    1.370502
    127          1           0       18.188063   -0.463061   -0.546897
    128          1           0       17.688605    1.281729   -1.170207
    129          1           0       18.156143    2.228456    0.953008
    130          1           0       18.645520    0.579716    1.713996
    131          1           0       20.347873    0.517784   -0.047168
    132          1           0       19.740493    3.234969   -1.096104
    133          1           0       21.304737    2.391281   -1.378875
    134          1           0       19.910129    1.887016   -1.986932
    135          1           0       21.148276    1.399260    2.059865
    136          1           0       22.061729    2.013917    0.963485
    137          1           0       20.816969    3.056629    1.256601
 ---------------------------------------------------------------------

 SCF Done:  E(RCAM-B3LYP) =  -2932.56619765     A.U. after   17 cycles

 Excitation energies and oscillator strengths:

 Excited State   1:      Singlet-A      2.0893 eV  593.41 nm  f=0.2333  <S**2>=0.000
     240 -> 243       -0.26327
     241 -> 242        0.64918
 This state for optimization and/or second-order correction.
 Total Energy, E(TD-HF/TD-DFT) =  -2932.48941594
 Copying the excited state density for this state as the 1-particle RhoCI density.

 The electronic state is 1-A.
 Alpha  occ. eigenvalues --  -46.84361 -19.26616 -19.26278 -19.20607 -19.20373
 Alpha  occ. eigenvalues --  -19.20155 -14.41657 -14.40289 -14.39299 -14.39163
 Alpha  occ. eigenvalues --  -10.39404 -10.39154 -10.35381 -10.32794 -10.31804
 Alpha  occ. eigenvalues --  -10.31736 -10.30948 -10.30275 -10.30050 -10.29833
 Alpha  occ. eigenvalues --  -10.29833 -10.29436 -10.28798 -10.28293 -10.28265
 Alpha  occ. eigenvalues --  -10.28191 -10.28144 -10.28110 -10.28044 -10.27979
 Alpha  occ. eigenvalues --  -10.27841 -10.27746 -10.27510 -10.27501 -10.27440
 Alpha  occ. eigenvalues --  -10.26966 -10.26898 -10.26873 -10.26736 -10.26626
 Alpha  occ. eigenvalues --  -10.26600 -10.26584 -10.26573 -10.26279 -10.26248
 Alpha  occ. eigenvalues --  -10.26104 -10.26075 -10.26063 -10.26054 -10.25952
 Alpha  occ. eigenvalues --  -10.25888 -10.25878 -10.25822 -10.25757 -10.25681
 Alpha  occ. eigenvalues --  -10.25465 -10.25198 -10.24764 -10.24534 -10.23762
 Alpha  occ. eigenvalues --  -10.23659 -10.23570 -10.23320 -10.23224 -10.22208
 Alpha  occ. eigenvalues --   -3.13427  -1.88139  -1.87638  -1.87628  -1.17911
 Alpha  occ. eigenvalues --   -1.17003  -1.08523  -1.08007  -1.07963  -1.06013
 Alpha  occ. eigenvalues --   -1.04287  -1.03696  -1.02494  -0.93060  -0.92168
 Alpha  occ. eigenvalues --   -0.91032  -0.90679  -0.90282  -0.90116  -0.89373
 Alpha  occ. eigenvalues --   -0.89002  -0.87913  -0.87090  -0.86975  -0.86139
 Alpha  occ. eigenvalues --   -0.85139  -0.84570  -0.84043  -0.83802  -0.82423
 Alpha  occ. eigenvalues --   -0.81969  -0.81435  -0.80547  -0.80027  -0.78361
 Alpha  occ. eigenvalues --   -0.77703  -0.77430  -0.77388  -0.77008  -0.75991
 Alpha  occ. eigenvalues --   -0.75877  -0.75147  -0.74582  -0.73420  -0.72782
 Alpha  occ. eigenvalues --   -0.71686  -0.70319  -0.70032  -0.69207  -0.68792
 Alpha  occ. eigenvalues --   -0.67901  -0.66157  -0.65411  -0.65111  -0.64432
 Alpha  occ. eigenvalues --   -0.64243  -0.63327  -0.62617  -0.62377  -0.62233
 Alpha  occ. eigenvalues --   -0.61067  -0.61016  -0.60706  -0.60143  -0.59911
 Alpha  occ. eigenvalues --   -0.59204  -0.58417  -0.57943  -0.57286  -0.56632
 Alpha  occ. eigenvalues --   -0.55994  -0.55606  -0.55471  -0.55114  -0.54972
 Alpha  occ. eigenvalues --   -0.54925  -0.54173  -0.54041  -0.53924  -0.53531
 Alpha  occ. eigenvalues --   -0.52827  -0.52456  -0.52231  -0.52088  -0.51856
 Alpha  occ. eigenvalues --   -0.51788  -0.51456  -0.51262  -0.50953  -0.50490
 Alpha  occ. eigenvalues --   -0.50350  -0.50163  -0.50023  -0.49773  -0.49535
 Alpha  occ. eigenvalues --   -0.49347  -0.49162  -0.48993  -0.48684  -0.48578
 Alpha  occ. eigenvalues --   -0.48244  -0.47862  -0.47739  -0.47593  -0.47286
 Alpha  occ. eigenvalues --   -0.47157  -0.46564  -0.46444  -0.46234  -0.46091
 Alpha  occ. eigenvalues --   -0.45919  -0.45681  -0.45588  -0.45337  -0.44945
 Alpha  occ. eigenvalues --   -0.44825  -0.44649  -0.44553  -0.44365  -0.44194
 Alpha  occ. eigenvalues --   -0.43783  -0.43606  -0.43555  -0.43479  -0.43018
 Alpha  occ. eigenvalues --   -0.42892  -0.42654  -0.42487  -0.42249  -0.41845
 Alpha  occ. eigenvalues --   -0.41752  -0.41613  -0.41566  -0.41486  -0.41223
 Alpha  occ. eigenvalues --   -0.41024  -0.40764  -0.40704  -0.40593  -0.40326
 Alpha  occ. eigenvalues --   -0.40251  -0.40055  -0.39894  -0.39761  -0.39068
 Alpha  occ. eigenvalues --   -0.39007  -0.38601  -0.38173  -0.37557  -0.37513
 Alpha  occ. eigenvalues --   -0.37394  -0.37283  -0.36731  -0.36627  -0.36363
 Alpha  occ. eigenvalues --   -0.36235  -0.35988  -0.35704  -0.35576  -0.35492
 Alpha  occ. eigenvalues --   -0.35187  -0.35113  -0.34467  -0.33365  -0.33351
 Alpha  occ. eigenvalues --   -0.33070  -0.32616  -0.32177  -0.31127  -0.30145
 Alpha  occ. eigenvalues --   -0.29826  -0.28884  -0.28538  -0.27267  -0.23382
 Alpha  occ. eigenvalues --   -0.21525
 Alpha virt. eigenvalues --   -0.06535  -0.03410   0.01174   0.03727   0.05138
 Alpha virt. eigenvalues --    0.05435   0.05814   0.06456   0.06531   0.07200
 Alpha virt. eigenvalues --    0.07796   0.10576   0.11239   0.11381   0.11605

 Mulliken charges:
               1
     1  Mg   0.822861
     2  C    0.083464
     3  C   -0.218068
     4  C   -0.185919
     5  C   -0.161787
     6  N   -0.639113
     7  C    0.302299
     8  C   -0.158101
     9  C   -0.147229
    10  C    0.396051
    11  C   -0.290877
    12  C   -0.186687
    13  C   -0.253276
    14  C    0.619792
    15  O   -0.462890
    16  O   -0.496290
    17  N   -0.685115
    18  C    0.306825
    19  C    0.014391
    20  C    0.095498
    21  C    0.247525
    22  C   -0.376250
    23  C   -0.114797
    24  C   -0.233279
    25  N   -0.698778
    26  C    0.304298
    27  C   -0.029288
    28  C    0.001687
    29  C    0.324581
    30  C   -0.342766
    31  C   -0.252540
    32  C   -0.314060
    33  N   -0.747824
    34  C    0.223330
    35  C   -0.023358
    36  C    0.067648
    37  C    0.353311
    38  C   -0.366358
    39  C    0.335050
    40  O   -0.486568
    41  C   -0.316384
    42  C    0.629140
    43  O   -0.496873
    44  O   -0.448596
    45  C   -0.093907
    46  C    0.046438
    47  C   -0.106910
    48  C    0.159399
    49  C   -0.380975
    50  C   -0.219797
    51  C   -0.179830
    52  C   -0.145831
    53  C   -0.074682
    54  C   -0.311355
    55  C   -0.177313
    56  C   -0.175963
    57  C   -0.176216
    58  C   -0.069372
    59  C   -0.289540
    60  C   -0.137720
    61  C   -0.161008
    62  C   -0.150260
    63  C   -0.047394
    64  C   -0.337207
    65  C   -0.285817
    66  H    0.082778
    67  H    0.102399
    68  H    0.106622
    69  H    0.117265
    70  H    0.120851
    71  H    0.085507
    72  H    0.073837
    73  H    0.139291
    74  H    0.111564
    75  H    0.104149
    76  H    0.126783
    77  H    0.127114
    78  H    0.081625
    79  H    0.136439
    80  H    0.114342
    81  H    0.112967
    82  H    0.098344
    83  H    0.104720
    84  H    0.140163
    85  H    0.103027
    86  H    0.099389
    87  H    0.109890
    88  H    0.107852
    89  H    0.103246
    90  H    0.098129
    91  H    0.118742
    92  H    0.138306
    93  H    0.135344
    94  H    0.125043
    95  H    0.164407
    96  H    0.139434
    97  H    0.130075
    98  H    0.134386
    99  H    0.091135
   100  H    0.121171
   101  H    0.067595
   102  H    0.128659
   103  H    0.080061
   104  H    0.117090
   105  H    0.097032
   106  H    0.112614
   107  H    0.071160
   108  H    0.079545
   109  H    0.080621
   110  H    0.094857
   111  H    0.070731
   112  H    0.101189
   113  H    0.119203
   114  H    0.101193
   115  H    0.093531
   116  H    0.089480
   117  H    0.082224
   118  H    0.070267
   119  H    0.086509
   120  H    0.091072
   121  H    0.088257
   122  H    0.087527
   123  H    0.106520
   124  H    0.093830
   125  H    0.049795
   126  H    0.070019
   127  H    0.069515
   128  H    0.072463
   129  H    0.080415
   130  H    0.049414
   131  H    0.094654
   132  H    0.113185
   133  H    0.089665
   134  H    0.109739
   135  H    0.106183
   136  H    0.106582
   137  H    0.091852
 Sum of Mulliken charges =  -0.00000

 Dipole moment (field-independent basis, Debye):
    X=              1.4819    Y=              3.6603    Z=              0.4626  Tot=              3.9759
 Quadrupole moment (field-independent basis, Debye-Ang):
   XX=           -337.6397   YY=           -387.8651   ZZ=           -396.6169
   XY=            -27.7758   XZ=              2.5594   YZ=             -2.8625

 Normal termination of Gaussian 16 at Sat Jun 29 10:29:49 2019.
