 Gaussian 16, Revision A.03,
 Gaussian 16:  ES64L-G16RevA.03 25-Dec-2016

 ----------------------------------------------------------------------
 # td=(NStates=1) iop(3/107=0140000000,3/108=0140000000) CAM-B3LYP/6-31
 G(d,p)
 ----------------------------------------------------------------------

 --
 TD
 --
 Symbolic Z-matrix:
 Charge =  0 Multiplicity = 1

                         Standard orientation:
 ---------------------------------------------------------------------
 Center     Atomic      Atomic             Coordinates (Angstroms)
 Number     Number       Type             X           Y           Z
 ---------------------------------------------------------------------
      1         12           0       -7.125331    0.642479    0.124443
      2          6           0       -4.900078   -1.971548    0.536761
      3          6           0       -4.838045    2.756464    1.119558
      4          6           0       -9.359536    3.111681   -0.368118
      5          6           0       -9.533701   -1.710713   -0.905028
      6          7           0       -5.069729    0.469038    0.691657
      7          6           0       -4.361981   -0.761559    0.823667
      8          6           0       -2.868421   -0.385667    1.207943
      9          6           0       -3.062831    1.097991    1.754011
     10          6           0       -4.325703    1.438740    1.158993
     11          6           0       -3.089567    1.019264    3.228084
     12          6           0       -1.858917   -0.527812    0.071871
     13          6           0       -0.459324   -0.378565    0.570165
     14          6           0        0.570835   -0.694489   -0.577978
     15          8           0        0.135181   -1.039853   -1.669131
     16          8           0        1.806358   -0.460398   -0.196842
     17          7           0       -7.088200    2.609435    0.341935
     18          6           0       -6.039094    3.375463    0.884718
     19          6           0       -6.329084    4.772569    0.909928
     20          6           0       -7.660979    4.790064    0.348358
     21          6           0       -8.105801    3.474036    0.086469
     22          6           0       -5.420629    5.847986    1.171442
     23          6           0       -8.430814    5.999248    0.164679
     24          6           0       -8.236752    7.247902    0.721208
     25          7           0       -9.070011    0.668881   -0.530974
     26          6           0       -9.847495    1.832029   -0.623542
     27          6           0      -11.202539    1.476629   -1.081410
     28          6           0      -11.172315    0.128933   -1.302714
     29          6           0       -9.863374   -0.346857   -0.921563
     30          6           0      -12.205150    2.496382   -1.342965
     31          6           0      -12.208766   -0.708802   -1.793259
     32          6           0      -12.029733   -1.134957   -3.242866
     33          7           0       -7.211537   -1.405593   -0.156370
     34          6           0       -8.226722   -2.217180   -0.539232
     35          6           0       -7.762127   -3.547951   -0.530057
     36          6           0       -6.463594   -3.538078   -0.145172
     37          6           0       -6.117256   -2.147023    0.013498
     38          6           0       -8.735557   -4.803888   -0.666420
     39          6           0       -5.247774   -4.300514    0.166769
     40          8           0       -5.160304   -5.563521    0.002511
     41          6           0       -4.176677   -3.229030    0.585732
     42          6           0       -3.590007   -3.704129    1.870468
     43          8           0       -3.878930   -3.186698    2.999288
     44          8           0       -2.742414   -4.769176    1.807922
     45          6           0       -2.218772   -5.141867    3.078513
     46          6           0        2.753158   -0.495759   -1.297144
     47          6           0        4.121400   -0.379428   -0.693367
     48          6           0        5.109054    0.245768   -1.151793
     49          6           0        5.022122    1.168203   -2.416092
     50          6           0        6.452195    0.362298   -0.414878
     51          6           0        7.629813   -0.207420   -1.140354
     52          6           0        8.929432   -0.173818   -0.218131
     53          6           0       10.150783   -0.604896   -0.921771
     54          6           0       10.138211   -2.084279   -1.375545
     55          6           0       11.358319   -0.399356    0.017075
     56          6           0       12.773923   -0.515084   -0.644322
     57          6           0       13.915650   -0.134254    0.224551
     58          6           0       15.279857   -0.292007   -0.504564
     59          6           0       15.584857   -1.759486   -0.924508
     60          6           0       16.372919    0.125172    0.522617
     61          6           0       17.745125    0.402911   -0.129701
     62          6           0       18.792737    1.224780    0.863015
     63          6           0       20.158607    1.506549    0.200584
     64          6           0       20.079584    2.539827   -0.917168
     65          6           0       21.093408    2.058066    1.315360
     66          1           0       -4.221690    3.627648    1.700248
     67          1           0       -9.853626    3.949744   -0.501588
     68          1           0      -10.548390   -2.197702   -1.088523
     69          1           0       -2.649495   -1.001244    2.088679
     70          1           0       -2.216296    1.623519    1.332560
     71          1           0       -2.187906    0.627347    3.698236
     72          1           0       -3.364453    2.104066    3.571921
     73          1           0       -4.096590    0.507153    3.485646
     74          1           0       -2.041016   -1.496731   -0.465283
     75          1           0       -2.102323    0.157822   -0.608629
     76          1           0       -0.386714    0.695142    0.978674
     77          1           0       -0.368185   -1.216748    1.450866
     78          1           0       -5.457428    6.720447    0.488824
     79          1           0       -5.691610    6.343735    2.129497
     80          1           0       -4.376447    5.518173    0.876630
     81          1           0       -9.319345    5.641714   -0.383088
     82          1           0       -9.037984    8.083475    0.545827
     83          1           0       -7.403774    7.347500    1.291864
     84          1           0      -11.707566    3.442381   -1.688758
     85          1           0      -13.232222    2.355076   -1.963104
     86          1           0      -12.570225    2.956140   -0.155630
     87          1           0      -12.026613   -1.704633   -1.094487
     88          1           0      -13.253884   -0.356009   -1.726174
     89          1           0      -13.010255   -1.501377   -3.760631
     90          1           0      -11.940287   -0.147085   -3.933946
     91          1           0      -11.164659   -1.810738   -3.533962
     92          1           0       -9.569165   -4.776835   -1.581696
     93          1           0       -8.145970   -5.674050   -0.860836
     94          1           0       -9.375870   -4.855459    0.166857
     95          1           0       -3.430928   -3.520630   -0.218015
     96          1           0       -1.860200   -4.349120    3.710976
     97          1           0       -2.949717   -5.721355    3.738695
     98          1           0       -1.335834   -5.832235    2.671392
     99          1           0        2.555771   -1.449345   -1.610881
    100          1           0        2.533110    0.255142   -2.134725
    101          1           0        4.151312   -1.052791    0.166368
    102          1           0        3.987088    1.317962   -2.875219
    103          1           0        5.407890    2.186368   -2.354137
    104          1           0        5.609629    0.565437   -3.065031
    105          1           0        6.555598    1.405531   -0.195038
    106          1           0        6.392818    0.005070    0.604533
    107          1           0        7.526400   -1.164572   -1.411644
    108          1           0        7.642155    0.340803   -2.070909
    109          1           0        9.069707    0.868017   -0.094496
    110          1           0        8.627433   -0.702591    0.689545
    111          1           0       10.159732    0.066623   -1.894747
    112          1           0        9.280164   -2.234851   -1.978872
    113          1           0       11.121963   -2.152568   -1.785599
    114          1           0       10.215971   -2.749671   -0.412028
    115          1           0       11.299188    0.662532    0.445194
    116          1           0       11.283228   -0.887852    0.887170
    117          1           0       13.034120   -1.341827   -1.122772
    118          1           0       12.898344    0.061857   -1.470080
    119          1           0       13.581860    0.782727    0.537967
    120          1           0       13.960415   -0.754816    1.200865
    121          1           0       15.431346    0.400819   -1.219753
    122          1           0       15.590131   -2.331327    0.115662
    123          1           0       14.860681   -2.024764   -1.512569
    124          1           0       16.578407   -1.755084   -1.334314
    125          1           0       15.982023    0.963823    1.060228
    126          1           0       16.397722   -0.659201    1.142734
    127          1           0       17.946670   -0.625885   -0.340958
    128          1           0       17.729900    0.902347   -1.005782
    129          1           0       18.492796    2.236907    1.182205
    130          1           0       18.812768    0.614862    1.659054
    131          1           0       20.560237    0.508826   -0.161667
    132          1           0       19.665208    3.633915   -0.482976
    133          1           0       21.060938    2.779486   -1.220459
    134          1           0       19.397061    2.182838   -1.879299
    135          1           0       21.253097    1.286638    2.255100
    136          1           0       22.320589    2.259509    1.080658
    137          1           0       20.727145    2.899847    1.818339
 ---------------------------------------------------------------------

 SCF Done:  E(RCAM-B3LYP) =  -2933.48635986     A.U. after   16 cycles

 Excitation energies and oscillator strengths:

 Excited State   1:      Singlet-A      2.0058 eV  618.13 nm  f=0.2518  <S**2>=0.000
     240 -> 243        0.23391
     241 -> 242        0.66415
 This state for optimization and/or second-order correction.
 Total Energy, E(TD-HF/TD-DFT) =  -2933.41264878
 Copying the excited state density for this state as the 1-particle RhoCI density.

 The electronic state is 1-A.
 Alpha  occ. eigenvalues --  -46.79622 -19.23274 -19.22827 -19.16866 -19.16065
 Alpha  occ. eigenvalues --  -19.15812 -14.38074 -14.35097 -14.35054 -14.34357
 Alpha  occ. eigenvalues --  -10.35028 -10.34956 -10.30856 -10.27523 -10.27331
 Alpha  occ. eigenvalues --  -10.26305 -10.26078 -10.25244 -10.25237 -10.24923
 Alpha  occ. eigenvalues --  -10.24923 -10.24900 -10.24518 -10.24368 -10.24123
 Alpha  occ. eigenvalues --  -10.23458 -10.23439 -10.23414 -10.22965 -10.22948
 Alpha  occ. eigenvalues --  -10.22891 -10.22782 -10.22757 -10.22651 -10.22647
 Alpha  occ. eigenvalues --  -10.22609 -10.22578 -10.22559 -10.22451 -10.22429
 Alpha  occ. eigenvalues --  -10.22380 -10.22334 -10.22323 -10.22314 -10.22218
 Alpha  occ. eigenvalues --  -10.22213 -10.22101 -10.21809 -10.21340 -10.21220
 Alpha  occ. eigenvalues --  -10.21217 -10.20800 -10.20765 -10.20676 -10.20448
 Alpha  occ. eigenvalues --  -10.20430 -10.20368 -10.20353 -10.20282 -10.20134
 Alpha  occ. eigenvalues --  -10.20082 -10.19918 -10.19851 -10.18527 -10.18394
 Alpha  occ. eigenvalues --   -3.08279  -1.83222  -1.82764  -1.82673  -1.14551
 Alpha  occ. eigenvalues --   -1.12544  -1.04888  -1.02713  -1.01563  -1.00230
 Alpha  occ. eigenvalues --   -0.99304  -0.98244  -0.97301  -0.89653  -0.87081
 Alpha  occ. eigenvalues --   -0.86147  -0.85491  -0.85105  -0.84849  -0.84233
 Alpha  occ. eigenvalues --   -0.84024  -0.83212  -0.82834  -0.81829  -0.81497
 Alpha  occ. eigenvalues --   -0.80940  -0.79658  -0.79187  -0.78665  -0.78027
 Alpha  occ. eigenvalues --   -0.76897  -0.76623  -0.75600  -0.75420  -0.73431
 Alpha  occ. eigenvalues --   -0.72773  -0.72560  -0.71920  -0.71547  -0.71206
 Alpha  occ. eigenvalues --   -0.70820  -0.70377  -0.69849  -0.69307  -0.68558
 Alpha  occ. eigenvalues --   -0.67556  -0.66490  -0.65623  -0.64882  -0.64402
 Alpha  occ. eigenvalues --   -0.63921  -0.63311  -0.62328  -0.61577  -0.61355
 Alpha  occ. eigenvalues --   -0.60333  -0.60139  -0.59921  -0.58539  -0.58508
 Alpha  occ. eigenvalues --   -0.58219  -0.56991  -0.56721  -0.56086  -0.55704
 Alpha  occ. eigenvalues --   -0.55164  -0.54293  -0.54088  -0.53851  -0.53517
 Alpha  occ. eigenvalues --   -0.51877  -0.51660  -0.51568  -0.51484  -0.51035
 Alpha  occ. eigenvalues --   -0.50952  -0.50510  -0.50449  -0.50052  -0.49770
 Alpha  occ. eigenvalues --   -0.49716  -0.49395  -0.49064  -0.48908  -0.48616
 Alpha  occ. eigenvalues --   -0.47929  -0.47807  -0.47646  -0.47165  -0.46991
 Alpha  occ. eigenvalues --   -0.46774  -0.46700  -0.46510  -0.46075  -0.46009
 Alpha  occ. eigenvalues --   -0.45849  -0.45535  -0.45269  -0.44844  -0.44736
 Alpha  occ. eigenvalues --   -0.44470  -0.44415  -0.44127  -0.43577  -0.43470
 Alpha  occ. eigenvalues --   -0.43272  -0.43076  -0.42812  -0.42523  -0.42326
 Alpha  occ. eigenvalues --   -0.42229  -0.42162  -0.41990  -0.41793  -0.41707
 Alpha  occ. eigenvalues --   -0.41296  -0.41204  -0.41053  -0.40655  -0.40569
 Alpha  occ. eigenvalues --   -0.40534  -0.40345  -0.40209  -0.39924  -0.39793
 Alpha  occ. eigenvalues --   -0.39649  -0.39468  -0.39326  -0.39070  -0.38992
 Alpha  occ. eigenvalues --   -0.38680  -0.38609  -0.38425  -0.38304  -0.38215
 Alpha  occ. eigenvalues --   -0.38108  -0.37785  -0.37456  -0.37378  -0.37312
 Alpha  occ. eigenvalues --   -0.37222  -0.36917  -0.36891  -0.36417  -0.36293
 Alpha  occ. eigenvalues --   -0.35554  -0.35261  -0.35240  -0.34843  -0.34661
 Alpha  occ. eigenvalues --   -0.34460  -0.34339  -0.34255  -0.33936  -0.33866
 Alpha  occ. eigenvalues --   -0.33686  -0.33637  -0.33315  -0.33092  -0.32918
 Alpha  occ. eigenvalues --   -0.32565  -0.32244  -0.32207  -0.30727  -0.30529
 Alpha  occ. eigenvalues --   -0.30341  -0.29661  -0.29423  -0.28683  -0.28595
 Alpha  occ. eigenvalues --   -0.27112  -0.26355  -0.25571  -0.24282  -0.21713
 Alpha  occ. eigenvalues --   -0.20108
 Alpha virt. eigenvalues --   -0.07355  -0.03990  -0.00868   0.01551   0.02986
 Alpha virt. eigenvalues --    0.03632   0.04672   0.04963   0.05353   0.06040
 Alpha virt. eigenvalues --    0.06175   0.08742   0.08889   0.09808   0.10054

 Mulliken charges:
               1
     1  Mg   0.807030
     2  C    0.148161
     3  C   -0.218671
     4  C   -0.127318
     5  C   -0.146158
     6  N   -0.603719
     7  C    0.250099
     8  C   -0.167400
     9  C   -0.136434
    10  C    0.367762
    11  C   -0.302645
    12  C   -0.139896
    13  C   -0.267076
    14  C    0.614382
    15  O   -0.474759
    16  O   -0.450918
    17  N   -0.745315
    18  C    0.290467
    19  C    0.077255
    20  C   -0.031371
    21  C    0.355864
    22  C   -0.415378
    23  C   -0.049438
    24  C   -0.247047
    25  N   -0.706460
    26  C    0.284699
    27  C    0.105746
    28  C    0.057757
    29  C    0.329252
    30  C   -0.387226
    31  C   -0.268998
    32  C   -0.300385
    33  N   -0.710002
    34  C    0.289909
    35  C   -0.059134
    36  C    0.094949
    37  C    0.251417
    38  C   -0.364047
    39  C    0.336307
    40  O   -0.488280
    41  C   -0.344969
    42  C    0.635726
    43  O   -0.510333
    44  O   -0.433011
    45  C   -0.082248
    46  C    0.008937
    47  C   -0.132057
    48  C    0.117946
    49  C   -0.369520
    50  C   -0.230665
    51  C   -0.193358
    52  C   -0.164459
    53  C   -0.060074
    54  C   -0.300331
    55  C   -0.176128
    56  C   -0.185989
    57  C   -0.165814
    58  C   -0.089997
    59  C   -0.297378
    60  C   -0.183191
    61  C   -0.201396
    62  C   -0.155021
    63  C   -0.053059
    64  C   -0.280396
    65  C   -0.300955
    66  H    0.051812
    67  H    0.036096
    68  H    0.075472
    69  H    0.112154
    70  H    0.099460
    71  H    0.123477
    72  H    0.092369
    73  H    0.125986
    74  H    0.114830
    75  H    0.118858
    76  H    0.116760
    77  H    0.107696
    78  H    0.133407
    79  H    0.133007
    80  H    0.121689
    81  H    0.068652
    82  H    0.105136
    83  H    0.086196
    84  H    0.129351
    85  H    0.111982
    86  H    0.073153
    87  H    0.087200
    88  H    0.111440
    89  H    0.095465
    90  H    0.086608
    91  H    0.119636
    92  H    0.080565
    93  H    0.144976
    94  H    0.139696
    95  H    0.175132
    96  H    0.138634
    97  H    0.128765
    98  H    0.106213
    99  H    0.138597
   100  H    0.114288
   101  H    0.088215
   102  H    0.100575
   103  H    0.120027
   104  H    0.134506
   105  H    0.107721
   106  H    0.093558
   107  H    0.108037
   108  H    0.090091
   109  H    0.099111
   110  H    0.090903
   111  H    0.065677
   112  H    0.105917
   113  H    0.112732
   114  H    0.083923
   115  H    0.068733
   116  H    0.104415
   117  H    0.091323
   118  H    0.096296
   119  H    0.096022
   120  H    0.062588
   121  H    0.091267
   122  H    0.085830
   123  H    0.113193
   124  H    0.108329
   125  H    0.085167
   126  H    0.093705
   127  H    0.093680
   128  H    0.097022
   129  H    0.085090
   130  H    0.102948
   131  H    0.087799
   132  H    0.069473
   133  H    0.118888
   134  H    0.081095
   135  H    0.072141
   136  H    0.066999
   137  H    0.117003
 Sum of Mulliken charges =  -0.00000

 Dipole moment (field-independent basis, Debye):
    X=              3.1186    Y=              5.4503    Z=              0.0297  Tot=              6.2795
 Quadrupole moment (field-independent basis, Debye-Ang):
   XX=           -349.0735   YY=           -404.1182   ZZ=           -397.1338
   XY=            -26.3382   XZ=              7.2369   YZ=             -3.3240

 Normal termination of Gaussian 16 at Wed Sep  4 23:30:33 2019.
