 Gaussian 09, Revision D.01,
 Gaussian 09:  ES64L-G09RevD.01 24-Apr-2013

 -------------------------------------
 # td=(NStates=1) CAM-B3LYP/6-31G(d,p)
 -------------------------------------

 --
 TD
 --
 Symbolic Z-matrix:
 Charge =  0 Multiplicity = 1

                         Standard orientation:
 ---------------------------------------------------------------------
 Center     Atomic      Atomic             Coordinates (Angstroms)
 Number     Number       Type             X           Y           Z
 ---------------------------------------------------------------------
      1         12           0       -7.064818    0.569331    0.106246
      2          6           0       -4.800959   -1.937292    0.538002
      3          6           0       -4.846759    2.899714    1.178734
      4          6           0       -9.359805    3.055485   -0.432642
      5          6           0       -9.559351   -1.786381   -0.782161
      6          7           0       -5.173801    0.513444    0.711717
      7          6           0       -4.352406   -0.676566    0.697058
      8          6           0       -2.887513   -0.430369    1.051162
      9          6           0       -3.041584    1.063042    1.702875
     10          6           0       -4.378084    1.588450    1.084558
     11          6           0       -2.907493    1.278177    3.093919
     12          6           0       -1.894003   -0.498305   -0.153788
     13          6           0       -0.462968   -0.459178    0.461589
     14          6           0        0.560036   -0.624323   -0.752273
     15          8           0        0.282125   -0.943110   -1.872722
     16          8           0        1.843917   -0.465064   -0.335438
     17          7           0       -7.086060    2.612789    0.248009
     18          6           0       -6.105865    3.409703    0.692408
     19          6           0       -6.439234    4.853128    0.769002
     20          6           0       -7.723949    4.909808    0.350901
     21          6           0       -8.110646    3.509326    0.097469
     22          6           0       -5.604059    5.955636    1.167308
     23          6           0       -8.650882    6.014502    0.148080
     24          6           0       -8.689661    7.234955    0.661181
     25          7           0       -9.076305    0.541406   -0.421409
     26          6           0       -9.781714    1.724847   -0.669487
     27          6           0      -11.111782    1.421509   -1.096806
     28          6           0      -11.159113   -0.010359   -1.252591
     29          6           0       -9.878538   -0.517385   -0.784945
     30          6           0      -12.134267    2.423293   -1.410973
     31          6           0      -12.353869   -0.804614   -1.770559
     32          6           0      -12.260785   -1.342838   -3.245414
     33          7           0       -7.200102   -1.393459   -0.017013
     34          6           0       -8.268030   -2.260079   -0.357069
     35          6           0       -7.764452   -3.616111   -0.364754
     36          6           0       -6.516824   -3.522756   -0.005837
     37          6           0       -6.189222   -2.175381    0.185536
     38          6           0       -8.678442   -4.802549   -0.692886
     39          6           0       -5.300831   -4.372548    0.252927
     40          8           0       -4.985752   -5.512871    0.078654
     41          6           0       -4.187417   -3.261496    0.621246
     42          6           0       -3.477559   -3.569560    1.900004
     43          8           0       -3.623301   -3.015202    2.978061
     44          8           0       -2.713495   -4.701015    1.783360
     45          6           0       -2.023526   -5.226865    2.921999
     46          6           0        2.869877   -0.609457   -1.294309
     47          6           0        4.156734   -0.509715   -0.573168
     48          6           0        5.116615    0.301008   -0.982680
     49          6           0        5.108903    1.280047   -2.154120
     50          6           0        6.390469    0.405406   -0.099325
     51          6           0        7.601103   -0.188070   -0.895983
     52          6           0        8.923407   -0.122011   -0.163631
     53          6           0       10.127864   -0.630490   -0.863989
     54          6           0       10.022426   -2.131456   -1.182618
     55          6           0       11.353285   -0.395494    0.070471
     56          6           0       12.664551   -0.669811   -0.632983
     57          6           0       13.912391   -0.171574    0.168563
     58          6           0       15.233645   -0.305629   -0.503108
     59          6           0       15.624402   -1.726759   -0.880048
     60          6           0       16.439330    0.396486    0.416083
     61          6           0       17.680973    0.613405   -0.214573
     62          6           0       18.769886    1.299038    0.768451
     63          6           0       20.217782    1.443397    0.223014
     64          6           0       20.286207    2.378318   -1.097710
     65          6           0       21.134235    1.968208    1.252229
     66          1           0       -3.824954    3.572815    1.474073
     67          1           0      -10.010640    3.816064   -0.353963
     68          1           0      -10.498078   -2.429973   -1.003125
     69          1           0       -2.562512   -1.006045    1.784378
     70          1           0       -2.303215    1.797513    1.228878
     71          1           0       -1.835691    0.972798    3.451092
     72          1           0       -2.986473    2.257680    3.374194
     73          1           0       -3.503564    0.570097    3.685432
     74          1           0       -2.117840   -1.355469   -0.787507
     75          1           0       -2.094432    0.519030   -0.802350
     76          1           0       -0.076079    0.555714    1.130255
     77          1           0       -0.212451   -1.431536    1.084804
     78          1           0       -5.875806    6.878571    0.875939
     79          1           0       -5.576591    5.781936    2.325123
     80          1           0       -4.481906    5.941453    0.812793
     81          1           0       -9.252320    6.084643   -0.784668
     82          1           0       -9.324862    8.211566    0.375192
     83          1           0       -8.133259    7.498338    1.641966
     84          1           0      -11.991091    2.916791   -2.509149
     85          1           0      -13.282072    2.100121   -1.474643
     86          1           0      -12.163629    2.994352   -0.512379
     87          1           0      -12.531507   -1.670513   -1.144211
     88          1           0      -13.377451   -0.171668   -1.699412
     89          1           0      -13.145435   -1.993346   -3.440538
     90          1           0      -12.587459   -0.532707   -4.120078
     91          1           0      -11.267893   -1.877786   -3.389405
     92          1           0       -9.170423   -4.671434   -1.608011
     93          1           0       -8.011529   -5.817178   -0.599922
     94          1           0       -9.580486   -4.999959   -0.145337
     95          1           0       -3.265200   -3.295444   -0.235245
     96          1           0       -1.347917   -4.378361    3.120884
     97          1           0       -2.866722   -5.391755    3.723635
     98          1           0       -1.669700   -6.279448    2.636590
     99          1           0        2.706377   -1.692666   -1.575374
    100          1           0        2.888637    0.345708   -2.003740
    101          1           0        4.321605   -1.036725    0.362684
    102          1           0        4.130840    1.443758   -2.544336
    103          1           0        5.513663    2.180248   -1.789223
    104          1           0        5.675192    0.769516   -2.996708
    105          1           0        6.672510    1.468442    0.176300
    106          1           0        6.074183   -0.153123    0.831610
    107          1           0        7.298646   -1.112072   -1.187263
    108          1           0        7.578102    0.545846   -1.957348
    109          1           0        8.966766    0.841002    0.408707
    110          1           0        8.542356   -0.880076    0.665574
    111          1           0       10.212560   -0.035821   -1.745597
    112          1           0        9.234771   -2.269126   -1.957297
    113          1           0       10.918119   -2.540375   -1.653820
    114          1           0        9.623953   -2.717191   -0.103260
    115          1           0       11.259102    0.703570    0.485269
    116          1           0       11.330324   -0.923325    0.989182
    117          1           0       12.777479   -1.697460   -0.966455
    118          1           0       12.781728   -0.207955   -1.613793
    119          1           0       13.521676    0.947138    0.509866
    120          1           0       13.747273   -0.908181    0.975597
    121          1           0       15.354247    0.241096   -1.487346
    122          1           0       15.744382   -2.179554    0.134983
    123          1           0       14.880889   -2.301613   -1.436544
    124          1           0       16.578178   -1.840765   -1.349836
    125          1           0       16.124403    1.437874    0.722322
    126          1           0       16.300628   -0.212214    1.402973
    127          1           0       18.092997   -0.373288   -0.479077
    128          1           0       17.601489    1.145929   -1.197941
    129          1           0       18.488651    2.464883    0.905382
    130          1           0       18.784689    1.034799    1.861194
    131          1           0       20.669831    0.450110   -0.037285
    132          1           0       19.801101    3.172466   -0.649072
    133          1           0       21.233605    2.404009   -1.488834
    134          1           0       19.728013    1.866466   -1.954201
    135          1           0       21.130451    1.242351    2.187489
    136          1           0       22.112476    2.040707    0.904033
    137          1           0       20.875882    3.086839    1.570464
 ---------------------------------------------------------------------

 SCF Done:  E(RCAM-B3LYP) =  -2932.66546172     A.U. after   16 cycles

 Excitation energies and oscillator strengths:

 Excited State   1:      Singlet-A      2.0742 eV  597.75 nm  f=0.2544  <S**2>=0.000
     240 -> 243        0.21871
     241 -> 242        0.65835
 This state for optimization and/or second-order correction.
 Total Energy, E(TD-HF/TD-KS) =  -2932.58923637
 Copying the excited state density for this state as the 1-particle RhoCI density.

 The electronic state is 1-A.
 Alpha  occ. eigenvalues --  -46.83030 -19.25125 -19.24566 -19.21224 -19.20845
 Alpha  occ. eigenvalues --  -19.20338 -14.41311 -14.40390 -14.39251 -14.38821
 Alpha  occ. eigenvalues --  -10.38945 -10.38827 -10.35909 -10.32140 -10.32103
 Alpha  occ. eigenvalues --  -10.31482 -10.31124 -10.30800 -10.30019 -10.29994
 Alpha  occ. eigenvalues --  -10.29330 -10.29124 -10.28656 -10.28434 -10.28392
 Alpha  occ. eigenvalues --  -10.28008 -10.27995 -10.27971 -10.27944 -10.27908
 Alpha  occ. eigenvalues --  -10.27821 -10.27670 -10.27450 -10.27343 -10.27234
 Alpha  occ. eigenvalues --  -10.27129 -10.27109 -10.26958 -10.26921 -10.26821
 Alpha  occ. eigenvalues --  -10.26700 -10.26654 -10.26645 -10.26568 -10.26544
 Alpha  occ. eigenvalues --  -10.26320 -10.26222 -10.26211 -10.26081 -10.26024
 Alpha  occ. eigenvalues --  -10.26013 -10.25967 -10.25948 -10.25858 -10.25827
 Alpha  occ. eigenvalues --  -10.25585 -10.25444 -10.25421 -10.25138 -10.24953
 Alpha  occ. eigenvalues --  -10.24847 -10.24423 -10.24370 -10.24329 -10.23976
 Alpha  occ. eigenvalues --   -3.12399  -1.87082  -1.86674  -1.86578  -1.18124
 Alpha  occ. eigenvalues --   -1.16674  -1.12479  -1.09606  -1.07964  -1.05246
 Alpha  occ. eigenvalues --   -1.04975  -1.01604  -1.00877  -0.92267  -0.91468
 Alpha  occ. eigenvalues --   -0.90790  -0.90449  -0.89576  -0.89121  -0.88975
 Alpha  occ. eigenvalues --   -0.88128  -0.88074  -0.87104  -0.86938  -0.86017
 Alpha  occ. eigenvalues --   -0.85507  -0.84414  -0.83747  -0.83170  -0.82448
 Alpha  occ. eigenvalues --   -0.81638  -0.80903  -0.80291  -0.79974  -0.78750
 Alpha  occ. eigenvalues --   -0.78086  -0.76519  -0.76312  -0.75748  -0.75451
 Alpha  occ. eigenvalues --   -0.74779  -0.74595  -0.73918  -0.73249  -0.72553
 Alpha  occ. eigenvalues --   -0.70689  -0.69864  -0.68760  -0.68474  -0.67783
 Alpha  occ. eigenvalues --   -0.66869  -0.66032  -0.65027  -0.64600  -0.64324
 Alpha  occ. eigenvalues --   -0.63359  -0.62815  -0.62276  -0.61539  -0.61396
 Alpha  occ. eigenvalues --   -0.61086  -0.60086  -0.60026  -0.59688  -0.58976
 Alpha  occ. eigenvalues --   -0.58363  -0.57946  -0.57396  -0.57003  -0.56456
 Alpha  occ. eigenvalues --   -0.55507  -0.55014  -0.54998  -0.54672  -0.54535
 Alpha  occ. eigenvalues --   -0.54374  -0.53917  -0.53666  -0.53319  -0.53116
 Alpha  occ. eigenvalues --   -0.52798  -0.52457  -0.52240  -0.52156  -0.51595
 Alpha  occ. eigenvalues --   -0.51443  -0.51312  -0.51254  -0.50835  -0.50307
 Alpha  occ. eigenvalues --   -0.50209  -0.50190  -0.49978  -0.49822  -0.49488
 Alpha  occ. eigenvalues --   -0.49362  -0.49172  -0.48948  -0.48803  -0.48466
 Alpha  occ. eigenvalues --   -0.48216  -0.47876  -0.47763  -0.47479  -0.47094
 Alpha  occ. eigenvalues --   -0.47057  -0.46524  -0.46408  -0.46114  -0.46018
 Alpha  occ. eigenvalues --   -0.45807  -0.45403  -0.45345  -0.45016  -0.44901
 Alpha  occ. eigenvalues --   -0.44749  -0.44619  -0.44451  -0.44314  -0.43880
 Alpha  occ. eigenvalues --   -0.43797  -0.43579  -0.43285  -0.43220  -0.43102
 Alpha  occ. eigenvalues --   -0.43045  -0.42579  -0.42437  -0.42194  -0.42083
 Alpha  occ. eigenvalues --   -0.42037  -0.41649  -0.41234  -0.41195  -0.40886
 Alpha  occ. eigenvalues --   -0.40713  -0.40520  -0.40313  -0.40232  -0.39976
 Alpha  occ. eigenvalues --   -0.39500  -0.39478  -0.39403  -0.39184  -0.38970
 Alpha  occ. eigenvalues --   -0.38713  -0.38452  -0.38070  -0.37835  -0.37739
 Alpha  occ. eigenvalues --   -0.37507  -0.37151  -0.36966  -0.36554  -0.36453
 Alpha  occ. eigenvalues --   -0.36044  -0.35866  -0.35759  -0.35486  -0.35043
 Alpha  occ. eigenvalues --   -0.34968  -0.34813  -0.34750  -0.33526  -0.33172
 Alpha  occ. eigenvalues --   -0.33063  -0.32288  -0.31861  -0.31035  -0.30452
 Alpha  occ. eigenvalues --   -0.30032  -0.29868  -0.29074  -0.27177  -0.23253
 Alpha  occ. eigenvalues --   -0.21339
 Alpha virt. eigenvalues --   -0.06511  -0.02567   0.02293   0.03742   0.05718
 Alpha virt. eigenvalues --    0.06224   0.06457   0.06963   0.07166   0.07177
 Alpha virt. eigenvalues --    0.08034   0.10197   0.10606   0.11086   0.11789

 Mulliken charges:
               1
     1  Mg   0.809873
     2  C    0.168809
     3  C   -0.221174
     4  C   -0.163328
     5  C   -0.162272
     6  N   -0.647585
     7  C    0.252168
     8  C   -0.135317
     9  C   -0.137404
    10  C    0.327083
    11  C   -0.296623
    12  C   -0.153447
    13  C   -0.255884
    14  C    0.591120
    15  O   -0.455932
    16  O   -0.482035
    17  N   -0.651849
    18  C    0.297052
    19  C    0.043506
    20  C    0.055232
    21  C    0.245102
    22  C   -0.369409
    23  C   -0.088559
    24  C   -0.257703
    25  N   -0.704268
    26  C    0.309432
    27  C    0.020292
    28  C    0.017700
    29  C    0.338211
    30  C   -0.368930
    31  C   -0.250134
    32  C   -0.298529
    33  N   -0.724023
    34  C    0.190668
    35  C    0.021092
    36  C   -0.000728
    37  C    0.305222
    38  C   -0.374404
    39  C    0.398583
    40  O   -0.421766
    41  C   -0.362532
    42  C    0.607565
    43  O   -0.481403
    44  O   -0.466538
    45  C   -0.068635
    46  C    0.030716
    47  C   -0.124991
    48  C    0.097870
    49  C   -0.352952
    50  C   -0.228431
    51  C   -0.157517
    52  C   -0.164853
    53  C   -0.043113
    54  C   -0.298177
    55  C   -0.165777
    56  C   -0.204426
    57  C   -0.157896
    58  C   -0.072529
    59  C   -0.314512
    60  C   -0.162110
    61  C   -0.173464
    62  C   -0.168812
    63  C   -0.075956
    64  C   -0.301822
    65  C   -0.288448
    66  H    0.068803
    67  H    0.081267
    68  H    0.102036
    69  H    0.118483
    70  H    0.082041
    71  H    0.087203
    72  H    0.120385
    73  H    0.130449
    74  H    0.136297
    75  H    0.099139
    76  H    0.120354
    77  H    0.129906
    78  H    0.133967
    79  H    0.123203
    80  H    0.107007
    81  H    0.109944
    82  H    0.108785
    83  H    0.090634
    84  H    0.112681
    85  H    0.095253
    86  H    0.131373
    87  H    0.113445
    88  H    0.092095
    89  H    0.105834
    90  H    0.086674
    91  H    0.111650
    92  H    0.127242
    93  H    0.120632
    94  H    0.128260
    95  H    0.134403
    96  H    0.127832
    97  H    0.121995
    98  H    0.133037
    99  H    0.120955
   100  H    0.103119
   101  H    0.091130
   102  H    0.109699
   103  H    0.126535
   104  H    0.128474
   105  H    0.091652
   106  H    0.089309
   107  H    0.114899
   108  H    0.034843
   109  H    0.091523
   110  H    0.070593
   111  H    0.099822
   112  H    0.102811
   113  H    0.111531
   114  H    0.071653
   115  H    0.068739
   116  H    0.101522
   117  H    0.095193
   118  H    0.086277
   119  H    0.075560
   120  H    0.092904
   121  H    0.073405
   122  H    0.092588
   123  H    0.105363
   124  H    0.110192
   125  H    0.083018
   126  H    0.080327
   127  H    0.092586
   128  H    0.103302
   129  H    0.057648
   130  H    0.097621
   131  H    0.078392
   132  H    0.114046
   133  H    0.110618
   134  H    0.089224
   135  H    0.085336
   136  H    0.110242
   137  H    0.073944
 Sum of Mulliken charges =   0.00000

 Dipole moment (field-independent basis, Debye):
    X=              1.2224    Y=              4.7010    Z=              0.0845  Tot=              4.8580
 Quadrupole moment (field-independent basis, Debye-Ang):
   XX=           -336.2369   YY=           -384.1961   ZZ=           -401.8707
   XY=            -29.0473   XZ=              4.1320   YZ=             -1.3860

 Normal termination of Gaussian 09 at Tue Jul  2 20:53:31 2019.
