 Gaussian 09, Revision D.01,
 Gaussian 09:  ES64L-G09RevD.01 24-Apr-2013

 -------------------------------------
 # td=(NStates=1) CAM-B3LYP/6-31G(d,p)
 -------------------------------------

 --
 TD
 --
 Symbolic Z-matrix:
 Charge =  0 Multiplicity = 1

                         Standard orientation:
 ---------------------------------------------------------------------
 Center     Atomic      Atomic             Coordinates (Angstroms)
 Number     Number       Type             X           Y           Z
 ---------------------------------------------------------------------
      1         12           0       -7.076987    0.600216    0.057439
      2          6           0       -4.817082   -1.939260    0.427406
      3          6           0       -4.790931    2.814514    1.198450
      4          6           0       -9.345540    3.104360   -0.371371
      5          6           0       -9.468680   -1.744091   -0.957803
      6          7           0       -5.129432    0.448553    0.701289
      7          6           0       -4.321006   -0.674453    0.777179
      8          6           0       -2.808674   -0.423935    1.369642
      9          6           0       -2.972129    1.072415    1.743207
     10          6           0       -4.381551    1.576821    1.154277
     11          6           0       -2.946179    1.267809    3.240345
     12          6           0       -1.888143   -0.708552    0.190559
     13          6           0       -0.518849   -0.550036    0.553110
     14          6           0        0.497591   -0.659071   -0.599415
     15          8           0        0.255306   -0.964149   -1.777859
     16          8           0        1.728486   -0.469440   -0.079488
     17          7           0       -7.074886    2.613375    0.390956
     18          6           0       -6.055793    3.365663    0.729593
     19          6           0       -6.308628    4.717002    0.742633
     20          6           0       -7.702146    4.785655    0.372320
     21          6           0       -8.121310    3.524888    0.192012
     22          6           0       -5.440832    5.766102    1.167496
     23          6           0       -8.534750    5.928203    0.112523
     24          6           0       -8.461632    7.175363    0.669367
     25          7           0       -9.030502    0.666944   -0.564783
     26          6           0       -9.805846    1.785092   -0.623926
     27          6           0      -11.111705    1.438460   -1.172632
     28          6           0      -11.122729    0.072042   -1.295301
     29          6           0       -9.894740   -0.429341   -0.913224
     30          6           0      -12.229038    2.417301   -1.387351
     31          6           0      -12.348099   -0.740685   -1.662593
     32          6           0      -12.514601   -1.044310   -3.070653
     33          7           0       -7.157007   -1.364196   -0.238977
     34          6           0       -8.227598   -2.229562   -0.602658
     35          6           0       -7.696858   -3.583986   -0.574648
     36          6           0       -6.408265   -3.548089   -0.150422
     37          6           0       -6.133760   -2.247686    0.047606
     38          6           0       -8.534437   -4.740368   -0.911977
     39          6           0       -5.264178   -4.373817    0.222736
     40          8           0       -5.166928   -5.548529    0.303919
     41          6           0       -4.138383   -3.298284    0.545120
     42          6           0       -3.547112   -3.661657    1.860023
     43          8           0       -3.772725   -3.193186    2.963252
     44          8           0       -2.671824   -4.630952    1.693481
     45          6           0       -2.157055   -5.062247    2.991020
     46          6           0        2.722533   -0.718774   -1.129835
     47          6           0        4.044510   -0.336899   -0.537988
     48          6           0        5.045768    0.351510   -1.069620
     49          6           0        4.900021    1.150507   -2.308387
     50          6           0        6.391796    0.555418   -0.230379
     51          6           0        7.579999   -0.216704   -0.844559
     52          6           0        8.794444   -0.058538   -0.071909
     53          6           0       10.150086   -0.600421   -0.698386
     54          6           0       10.028731   -2.077333   -1.309915
     55          6           0       11.367253   -0.257660    0.093565
     56          6           0       12.750839   -0.560710   -0.696819
     57          6           0       13.912832   -0.096265    0.144431
     58          6           0       15.255807   -0.084136   -0.455469
     59          6           0       15.594939   -1.515987   -0.912449
     60          6           0       16.271798    0.536906    0.423807
     61          6           0       17.871653    0.518086   -0.127776
     62          6           0       18.789040    1.350661    0.673008
     63          6           0       20.254065    1.269546    0.172391
     64          6           0       20.379549    2.011105   -1.166055
     65          6           0       21.154730    1.811515    1.139869
     66          1           0       -4.077653    3.639489    1.358966
     67          1           0       -9.937878    3.866858   -0.664116
     68          1           0      -10.019797   -2.374900   -1.583222
     69          1           0       -2.816492   -1.019991    2.316983
     70          1           0       -2.153127    1.569737    1.189960
     71          1           0       -2.137138    0.839456    3.728955
     72          1           0       -3.090730    2.267266    3.631179
     73          1           0       -3.683873    0.641503    3.720669
     74          1           0       -2.330151   -1.753777   -0.129761
     75          1           0       -2.054649   -0.062816   -0.756205
     76          1           0       -0.327746    0.417972    0.891779
     77          1           0       -0.284432   -1.433037    1.342584
     78          1           0       -5.416134    6.781131    0.576141
     79          1           0       -5.541108    6.000325    2.223690
     80          1           0       -4.394828    5.296329    1.097057
     81          1           0       -9.412160    5.893041   -0.438416
     82          1           0       -8.850481    8.104287    0.451543
     83          1           0       -7.673095    7.432188    1.416023
     84          1           0      -11.837700    3.488424   -2.001727
     85          1           0      -13.035732    1.971478   -2.159619
     86          1           0      -12.721783    2.998217   -0.557171
     87          1           0      -12.323130   -1.685591   -1.072628
     88          1           0      -13.378397   -0.323826   -1.300380
     89          1           0      -13.332491   -1.711141   -3.325990
     90          1           0      -12.595772   -0.095843   -3.737527
     91          1           0      -11.628344   -1.546954   -3.447279
     92          1           0       -8.952259   -4.662125   -2.030348
     93          1           0       -7.886721   -5.661491   -0.960399
     94          1           0       -9.527745   -4.744581   -0.375073
     95          1           0       -3.385450   -3.497728   -0.377169
     96          1           0       -1.621694   -4.422778    3.435902
     97          1           0       -3.036562   -5.623585    3.604326
     98          1           0       -1.513829   -5.946373    2.677394
     99          1           0        2.563278   -1.693856   -1.534858
    100          1           0        2.464736    0.051789   -2.074648
    101          1           0        4.064949   -0.873907    0.423006
    102          1           0        3.991970    1.013631   -3.017180
    103          1           0        4.823763    2.265318   -2.110306
    104          1           0        6.082165    0.949637   -2.999481
    105          1           0        6.552643    1.507769    0.063396
    106          1           0        6.205019    0.152369    0.708501
    107          1           0        7.234932   -1.415159   -1.108098
    108          1           0        7.666821    0.197493   -1.880879
    109          1           0        8.874931    1.001715    0.177075
    110          1           0        8.557345   -0.443298    0.853190
    111          1           0       10.222820    0.062845   -1.744527
    112          1           0        9.294776   -2.285793   -2.086655
    113          1           0       11.070275   -2.516453   -1.809837
    114          1           0       10.069744   -2.740336   -0.486127
    115          1           0       11.582494    0.780554    0.473910
    116          1           0       11.258090   -0.724632    0.838872
    117          1           0       12.613360   -1.667225   -0.862529
    118          1           0       12.647005    0.102677   -1.500111
    119          1           0       13.809907    0.885555    0.411530
    120          1           0       14.115362   -0.657586    1.128473
    121          1           0       15.276126    0.688077   -1.275059
    122          1           0       15.533769   -2.143283   -0.011174
    123          1           0       14.852270   -1.917022   -1.443495
    124          1           0       16.542407   -1.503107   -1.322396
    125          1           0       15.954289    1.447565    0.748907
    126          1           0       16.344706   -0.047618    1.195682
    127          1           0       18.119538   -0.629958   -0.171821
    128          1           0       17.810107    0.988511   -1.167238
    129          1           0       18.312871    2.219101    0.798104
    130          1           0       18.584050    0.921835    1.793245
    131          1           0       20.467697    0.052571   -0.145993
    132          1           0       19.834887    2.833723   -1.040779
    133          1           0       21.581428    2.391507   -1.270966
    134          1           0       19.890659    1.575278   -1.908404
    135          1           0       21.062090    1.350990    2.233751
    136          1           0       22.267170    1.797862    0.969295
    137          1           0       21.028383    2.969896    1.273333
 ---------------------------------------------------------------------

 SCF Done:  E(RCAM-B3LYP) =  -2932.56923688     A.U. after   17 cycles

 Excitation energies and oscillator strengths:

 Excited State   1:      Singlet-A      1.9879 eV  623.69 nm  f=0.2821  <S**2>=0.000
     240 -> 243       -0.22110
     241 -> 242        0.66218
 This state for optimization and/or second-order correction.
 Total Energy, E(TD-HF/TD-KS) =  -2932.49618267
 Copying the excited state density for this state as the 1-particle RhoCI density.

 The electronic state is 1-A.
 Alpha  occ. eigenvalues --  -46.82805 -19.27168 -19.26743 -19.21898 -19.21337
 Alpha  occ. eigenvalues --  -19.20484 -14.41407 -14.39300 -14.38764 -14.38495
 Alpha  occ. eigenvalues --  -10.39499 -10.38888 -10.36097 -10.32533 -10.31626
 Alpha  occ. eigenvalues --  -10.31284 -10.29957 -10.29330 -10.29259 -10.29159
 Alpha  occ. eigenvalues --  -10.29081 -10.28894 -10.28882 -10.28741 -10.28642
 Alpha  occ. eigenvalues --  -10.28392 -10.28184 -10.28164 -10.28156 -10.27974
 Alpha  occ. eigenvalues --  -10.27818 -10.27731 -10.27654 -10.27578 -10.27503
 Alpha  occ. eigenvalues --  -10.27308 -10.27053 -10.26850 -10.26829 -10.26683
 Alpha  occ. eigenvalues --  -10.26665 -10.26479 -10.26405 -10.26349 -10.26304
 Alpha  occ. eigenvalues --  -10.26054 -10.26031 -10.25764 -10.25750 -10.25635
 Alpha  occ. eigenvalues --  -10.25581 -10.25287 -10.25260 -10.25097 -10.25008
 Alpha  occ. eigenvalues --  -10.24959 -10.24799 -10.24712 -10.24367 -10.24193
 Alpha  occ. eigenvalues --  -10.23965 -10.23930 -10.23375 -10.22800 -10.22191
 Alpha  occ. eigenvalues --   -3.12047  -1.86743  -1.86282  -1.86251  -1.19518
 Alpha  occ. eigenvalues --   -1.18196  -1.14273  -1.08594  -1.08432  -1.04752
 Alpha  occ. eigenvalues --   -1.03691  -1.02069  -1.00725  -0.92993  -0.91763
 Alpha  occ. eigenvalues --   -0.91325  -0.90914  -0.90145  -0.89816  -0.89157
 Alpha  occ. eigenvalues --   -0.89076  -0.88301  -0.87958  -0.87324  -0.86507
 Alpha  occ. eigenvalues --   -0.85915  -0.84525  -0.83977  -0.83270  -0.83183
 Alpha  occ. eigenvalues --   -0.82308  -0.81717  -0.80741  -0.80043  -0.78546
 Alpha  occ. eigenvalues --   -0.77979  -0.77290  -0.76944  -0.76594  -0.76163
 Alpha  occ. eigenvalues --   -0.76101  -0.75942  -0.74280  -0.73119  -0.72432
 Alpha  occ. eigenvalues --   -0.71405  -0.70253  -0.69553  -0.69103  -0.68418
 Alpha  occ. eigenvalues --   -0.67873  -0.66440  -0.65510  -0.65319  -0.64769
 Alpha  occ. eigenvalues --   -0.64416  -0.63619  -0.63044  -0.62993  -0.62260
 Alpha  occ. eigenvalues --   -0.62111  -0.61177  -0.60653  -0.60317  -0.59337
 Alpha  occ. eigenvalues --   -0.58696  -0.58281  -0.58199  -0.57576  -0.57040
 Alpha  occ. eigenvalues --   -0.56442  -0.56163  -0.56125  -0.55340  -0.54531
 Alpha  occ. eigenvalues --   -0.54437  -0.54284  -0.54083  -0.53840  -0.53718
 Alpha  occ. eigenvalues --   -0.52999  -0.52917  -0.52181  -0.51969  -0.51876
 Alpha  occ. eigenvalues --   -0.51706  -0.51475  -0.51422  -0.51340  -0.51132
 Alpha  occ. eigenvalues --   -0.50797  -0.50716  -0.50337  -0.50154  -0.50048
 Alpha  occ. eigenvalues --   -0.49699  -0.49217  -0.49018  -0.48779  -0.48489
 Alpha  occ. eigenvalues --   -0.48280  -0.47997  -0.47935  -0.47501  -0.47305
 Alpha  occ. eigenvalues --   -0.46838  -0.46626  -0.46454  -0.46204  -0.45969
 Alpha  occ. eigenvalues --   -0.45905  -0.45764  -0.45604  -0.45302  -0.45184
 Alpha  occ. eigenvalues --   -0.45050  -0.44781  -0.44668  -0.44520  -0.44349
 Alpha  occ. eigenvalues --   -0.44239  -0.43880  -0.43730  -0.43624  -0.43547
 Alpha  occ. eigenvalues --   -0.43446  -0.43285  -0.42914  -0.42418  -0.42099
 Alpha  occ. eigenvalues --   -0.41889  -0.41647  -0.41420  -0.41263  -0.41176
 Alpha  occ. eigenvalues --   -0.41128  -0.40954  -0.40900  -0.40766  -0.40701
 Alpha  occ. eigenvalues --   -0.40529  -0.39630  -0.39463  -0.39450  -0.39193
 Alpha  occ. eigenvalues --   -0.39009  -0.38345  -0.38262  -0.37914  -0.37628
 Alpha  occ. eigenvalues --   -0.37309  -0.37031  -0.36858  -0.36610  -0.36469
 Alpha  occ. eigenvalues --   -0.36220  -0.36056  -0.35700  -0.35667  -0.35481
 Alpha  occ. eigenvalues --   -0.35377  -0.34911  -0.34588  -0.33917  -0.33686
 Alpha  occ. eigenvalues --   -0.33145  -0.33071  -0.32309  -0.31591  -0.30998
 Alpha  occ. eigenvalues --   -0.30170  -0.29816  -0.28067  -0.26430  -0.23397
 Alpha  occ. eigenvalues --   -0.21872
 Alpha virt. eigenvalues --   -0.07455  -0.03438   0.02046   0.04280   0.05193
 Alpha virt. eigenvalues --    0.05732   0.06000   0.06615   0.07204   0.07433
 Alpha virt. eigenvalues --    0.08516   0.10401   0.10439   0.11442   0.11672

 Mulliken charges:
               1
     1  Mg   0.798211
     2  C    0.038831
     3  C   -0.196280
     4  C   -0.126172
     5  C   -0.188491
     6  N   -0.641128
     7  C    0.273028
     8  C   -0.144711
     9  C   -0.120572
    10  C    0.338762
    11  C   -0.324712
    12  C   -0.169381
    13  C   -0.240052
    14  C    0.601058
    15  O   -0.488950
    16  O   -0.471755
    17  N   -0.699886
    18  C    0.320463
    19  C    0.051088
    20  C    0.026582
    21  C    0.261252
    22  C   -0.387882
    23  C   -0.093657
    24  C   -0.259970
    25  N   -0.680074
    26  C    0.290945
    27  C    0.052537
    28  C    0.035375
    29  C    0.278115
    30  C   -0.375610
    31  C   -0.236218
    32  C   -0.299330
    33  N   -0.728176
    34  C    0.291535
    35  C   -0.002137
    36  C    0.080767
    37  C    0.288348
    38  C   -0.397387
    39  C    0.372008
    40  O   -0.421957
    41  C   -0.360176
    42  C    0.643429
    43  O   -0.503806
    44  O   -0.436935
    45  C   -0.071674
    46  C    0.012609
    47  C   -0.127885
    48  C    0.121474
    49  C   -0.341646
    50  C   -0.228237
    51  C   -0.159129
    52  C   -0.172837
    53  C   -0.051549
    54  C   -0.325665
    55  C   -0.171354
    56  C   -0.178251
    57  C   -0.160372
    58  C   -0.075948
    59  C   -0.306245
    60  C   -0.182887
    61  C   -0.193140
    62  C   -0.154272
    63  C   -0.020193
    64  C   -0.296214
    65  C   -0.302537
    66  H    0.072867
    67  H    0.078247
    68  H    0.101505
    69  H    0.146828
    70  H    0.091318
    71  H    0.111608
    72  H    0.112167
    73  H    0.123873
    74  H    0.106106
    75  H    0.120162
    76  H    0.143164
    77  H    0.122474
    78  H    0.114191
    79  H    0.133816
    80  H    0.096387
    81  H    0.095603
    82  H    0.112940
    83  H    0.086953
    84  H    0.069136
    85  H    0.106709
    86  H    0.134934
    87  H    0.101429
    88  H    0.096048
    89  H    0.107241
    90  H    0.095711
    91  H    0.103978
    92  H    0.105949
    93  H    0.143603
    94  H    0.137373
    95  H    0.161960
    96  H    0.139889
    97  H    0.124716
    98  H    0.111908
    99  H    0.146714
   100  H    0.094510
   101  H    0.095461
   102  H    0.115741
   103  H    0.123635
   104  H    0.057892
   105  H    0.111456
   106  H    0.107633
   107  H    0.064641
   108  H    0.088941
   109  H    0.096396
   110  H    0.099097
   111  H    0.044853
   112  H    0.124863
   113  H    0.072865
   114  H    0.112928
   115  H    0.083151
   116  H    0.100660
   117  H    0.099211
   118  H    0.109406
   119  H    0.087386
   120  H    0.070851
   121  H    0.063436
   122  H    0.084869
   123  H    0.111808
   124  H    0.107615
   125  H    0.086190
   126  H    0.098727
   127  H    0.089574
   128  H    0.077600
   129  H    0.108385
   130  H    0.059775
   131  H    0.055406
   132  H    0.114146
   133  H    0.075566
   134  H    0.115014
   135  H    0.087281
   136  H    0.098609
   137  H    0.085942
 Sum of Mulliken charges =   0.00000

 Dipole moment (field-independent basis, Debye):
    X=              1.0484    Y=              3.0976    Z=              0.5716  Tot=              3.3197
 Quadrupole moment (field-independent basis, Debye-Ang):
   XX=           -363.9548   YY=           -386.4517   ZZ=           -400.4766
   XY=             -4.0452   XZ=             21.9050   YZ=              0.4370

 Normal termination of Gaussian 09 at Wed Jul  3 06:34:42 2019.
