 Gaussian 16, Revision A.03,
 Gaussian 16:  ES64L-G16RevA.03 25-Dec-2016

 ----------------------------------------------------------------------
 # td=(NStates=1) iop(3/107=0140000000,3/108=0140000000) CAM-B3LYP/6-31
 G(d,p)
 ----------------------------------------------------------------------

 --
 TD
 --
 Symbolic Z-matrix:
 Charge =  0 Multiplicity = 1

                         Standard orientation:
 ---------------------------------------------------------------------
 Center     Atomic      Atomic             Coordinates (Angstroms)
 Number     Number       Type             X           Y           Z
 ---------------------------------------------------------------------
      1         12           0       -7.140217    0.583186    0.142451
      2          6           0       -4.845973   -2.006901    0.665931
      3          6           0       -4.725533    2.871236    1.126374
      4          6           0       -9.384689    3.152165   -0.447225
      5          6           0       -9.449518   -1.667196   -0.930179
      6          7           0       -5.136773    0.525824    0.770071
      7          6           0       -4.373282   -0.672322    0.874330
      8          6           0       -2.942603   -0.348196    1.239848
      9          6           0       -3.019793    1.135626    1.616998
     10          6           0       -4.352620    1.552785    1.217436
     11          6           0       -2.966042    1.217694    3.172216
     12          6           0       -1.944295   -0.566045    0.088796
     13          6           0       -0.533097   -0.489949    0.582455
     14          6           0        0.501545   -0.634600   -0.553852
     15          8           0        0.181819   -0.949882   -1.744477
     16          8           0        1.828115   -0.560847   -0.111081
     17          7           0       -7.056927    2.612836    0.289733
     18          6           0       -5.983938    3.376827    0.805735
     19          6           0       -6.350089    4.744114    0.833764
     20          6           0       -7.795369    4.810816    0.485491
     21          6           0       -8.100316    3.351732    0.010712
     22          6           0       -5.452818    5.848203    1.096530
     23          6           0       -8.548721    5.989773    0.223623
     24          6           0       -8.365607    7.232624    0.770952
     25          7           0       -8.975756    0.684468   -0.622260
     26          6           0       -9.717413    1.863004   -0.827160
     27          6           0      -11.093406    1.519723   -1.241512
     28          6           0      -11.159283    0.130046   -1.341722
     29          6           0       -9.813191   -0.348599   -0.915881
     30          6           0      -12.202878    2.508760   -1.571277
     31          6           0      -12.255973   -0.765014   -1.719318
     32          6           0      -12.166249   -1.260135   -3.222292
     33          7           0       -7.243744   -1.339646   -0.003505
     34          6           0       -8.273563   -2.252794   -0.423883
     35          6           0       -7.814019   -3.638177   -0.384917
     36          6           0       -6.542034   -3.606812    0.018739
     37          6           0       -6.172580   -2.162792    0.221437
     38          6           0       -8.705897   -4.831889   -0.762475
     39          6           0       -5.273693   -4.394821    0.208076
     40          8           0       -5.129645   -5.629799    0.086379
     41          6           0       -4.262203   -3.336410    0.531255
     42          6           0       -3.556819   -3.638786    1.824330
     43          8           0       -3.696452   -3.026549    2.925334
     44          8           0       -2.759655   -4.750672    1.768036
     45          6           0       -2.251564   -5.370682    3.003938
     46          6           0        2.780144   -0.644520   -1.165187
     47          6           0        4.162293   -0.381297   -0.529682
     48          6           0        5.184350    0.369594   -0.965536
     49          6           0        5.073088    1.266650   -2.252077
     50          6           0        6.495507    0.427494   -0.258498
     51          6           0        7.638275   -0.152665   -1.034982
     52          6           0        8.957742   -0.008978   -0.260204
     53          6           0       10.148308   -0.571935   -1.031550
     54          6           0        9.998353   -2.015889   -1.330184
     55          6           0       11.455745   -0.291483   -0.184036
     56          6           0       12.823196   -0.640692   -0.720444
     57          6           0       13.958255   -0.106876    0.119513
     58          6           0       15.274028   -0.214568   -0.523197
     59          6           0       15.596996   -1.669733   -0.969700
     60          6           0       16.423174    0.287211    0.460716
     61          6           0       17.734683    0.613043   -0.283384
     62          6           0       18.736871    1.200619    0.747197
     63          6           0       20.135657    1.375937    0.348842
     64          6           0       20.250803    2.206547   -0.952332
     65          6           0       20.981746    1.987476    1.404116
     66          1           0       -4.121770    3.769911    1.450923
     67          1           0      -10.196870    3.796171   -0.552696
     68          1           0      -10.099047   -2.319568   -1.516584
     69          1           0       -2.614861   -0.985024    2.137072
     70          1           0       -2.046224    1.596484    1.405915
     71          1           0       -1.787258    1.374849    3.546692
     72          1           0       -3.461009    2.219743    3.554434
     73          1           0       -3.534150    0.506377    3.712753
     74          1           0       -2.049190   -1.553350   -0.591802
     75          1           0       -2.159114    0.314601   -0.680911
     76          1           0       -0.392890    0.417922    1.105855
     77          1           0       -0.333256   -1.439451    1.313071
     78          1           0       -5.708885    6.667728    0.567064
     79          1           0       -5.451831    6.219724    2.245704
     80          1           0       -4.340373    5.558902    1.045185
     81          1           0       -9.628876    5.761682   -0.374157
     82          1           0       -8.979009    8.168004    0.505084
     83          1           0       -7.558394    7.410452    1.355263
     84          1           0      -12.049864    2.942793   -2.426898
     85          1           0      -13.332460    2.147806   -1.540136
     86          1           0      -12.266840    3.337451   -0.718487
     87          1           0      -12.345332   -1.889472   -1.135058
     88          1           0      -13.414344   -0.341996   -1.597949
     89          1           0      -13.254717   -1.516262   -3.565543
     90          1           0      -12.014208   -0.257674   -3.856190
     91          1           0      -11.216741   -1.937770   -3.408095
     92          1           0       -8.829012   -4.959130   -1.855655
     93          1           0       -8.246327   -5.723349   -0.250243
     94          1           0       -9.792808   -4.706340   -0.418723
     95          1           0       -3.347950   -3.328841   -0.018065
     96          1           0       -1.386224   -4.578933    3.177081
     97          1           0       -3.077375   -5.360705    3.695488
     98          1           0       -1.957604   -6.305915    2.845625
     99          1           0        2.696782   -1.860541   -1.768618
    100          1           0        2.430125   -0.004634   -2.021065
    101          1           0        4.382929   -1.154026    0.234487
    102          1           0        4.129961    1.499788   -2.665815
    103          1           0        5.422659    2.224990   -1.839175
    104          1           0        5.604128    0.901097   -3.024113
    105          1           0        6.633116    1.438716    0.035881
    106          1           0        6.352959   -0.353171    0.564287
    107          1           0        7.354023   -1.212442   -1.229525
    108          1           0        7.717116    0.393542   -1.882914
    109          1           0        9.116306    1.027685    0.039183
    110          1           0        8.854265   -0.460307    0.817835
    111          1           0       10.181247   -0.023701   -1.974710
    112          1           0        9.096759   -2.307702   -2.026168
    113          1           0       10.733781   -2.560584   -1.882410
    114          1           0       10.008259   -2.485109   -0.431944
    115          1           0       11.505432    0.868091    0.008371
    116          1           0       11.182977   -0.698319    0.891850
    117          1           0       12.768238   -1.897505   -0.786910
    118          1           0       13.028571   -0.219820   -1.596651
    119          1           0       13.606981    0.886038    0.237095
    120          1           0       13.923885   -0.685951    0.926235
    121          1           0       15.243759    0.478556   -1.176957
    122          1           0       15.365913   -2.217320   -0.017787
    123          1           0       14.952586   -2.047543   -1.785851
    124          1           0       16.487681   -1.748728   -1.454251
    125          1           0       15.920898    1.203981    0.983574
    126          1           0       16.585810   -0.518180    1.194265
    127          1           0       18.209841   -0.132040   -0.707773
    128          1           0       17.458001    1.146480   -1.078856
    129          1           0       18.265717    2.119981    1.314650
    130          1           0       18.747271    0.506907    1.749369
    131          1           0       20.349097    0.465426    0.172736
    132          1           0       19.966118    3.245585   -0.842802
    133          1           0       21.242467    2.043027   -1.179635
    134          1           0       19.533530    1.708695   -1.846028
    135          1           0       20.753987    1.365934    2.447095
    136          1           0       22.177139    1.835626    1.309946
    137          1           0       20.691896    3.086391    1.615892
 ---------------------------------------------------------------------

 SCF Done:  E(RCAM-B3LYP) =  -2933.43054008     A.U. after   16 cycles

 Excitation energies and oscillator strengths:

 Excited State   1:      Singlet-A      1.8949 eV  654.29 nm  f=0.2836  <S**2>=0.000
     240 -> 243       -0.21058
     241 -> 242        0.66822
 This state for optimization and/or second-order correction.
 Total Energy, E(TD-HF/TD-DFT) =  -2933.36090228
 Copying the excited state density for this state as the 1-particle RhoCI density.

 The electronic state is 1-A.
 Alpha  occ. eigenvalues --  -46.78422 -19.22952 -19.21504 -19.17581 -19.16900
 Alpha  occ. eigenvalues --  -19.16438 -14.38442 -14.35733 -14.35284 -14.35261
 Alpha  occ. eigenvalues --  -10.35833 -10.35145 -10.31733 -10.29504 -10.27378
 Alpha  occ. eigenvalues --  -10.27225 -10.26505 -10.25442 -10.25396 -10.25108
 Alpha  occ. eigenvalues --  -10.25086 -10.25026 -10.24955 -10.24950 -10.24694
 Alpha  occ. eigenvalues --  -10.24588 -10.24150 -10.24121 -10.24038 -10.23639
 Alpha  occ. eigenvalues --  -10.23366 -10.23294 -10.23210 -10.23108 -10.22991
 Alpha  occ. eigenvalues --  -10.22921 -10.22844 -10.22806 -10.22774 -10.22645
 Alpha  occ. eigenvalues --  -10.22550 -10.22400 -10.22390 -10.22226 -10.22188
 Alpha  occ. eigenvalues --  -10.22066 -10.22002 -10.21772 -10.21763 -10.21671
 Alpha  occ. eigenvalues --  -10.21545 -10.21466 -10.21418 -10.21340 -10.21059
 Alpha  occ. eigenvalues --  -10.20567 -10.20545 -10.20476 -10.20342 -10.19766
 Alpha  occ. eigenvalues --  -10.19578 -10.19375 -10.19362 -10.18945 -10.18262
 Alpha  occ. eigenvalues --   -3.07446  -1.82353  -1.81952  -1.81861  -1.11647
 Alpha  occ. eigenvalues --   -1.11046  -1.04869  -1.02719  -1.01679  -0.98953
 Alpha  occ. eigenvalues --   -0.97868  -0.97512  -0.96372  -0.89136  -0.86761
 Alpha  occ. eigenvalues --   -0.86273  -0.85615  -0.85385  -0.84784  -0.83897
 Alpha  occ. eigenvalues --   -0.83259  -0.83030  -0.82747  -0.82162  -0.81323
 Alpha  occ. eigenvalues --   -0.80432  -0.79900  -0.78915  -0.78561  -0.77456
 Alpha  occ. eigenvalues --   -0.77003  -0.76379  -0.75831  -0.75125  -0.73246
 Alpha  occ. eigenvalues --   -0.73046  -0.72164  -0.71973  -0.71755  -0.71021
 Alpha  occ. eigenvalues --   -0.70621  -0.70205  -0.69482  -0.68897  -0.68394
 Alpha  occ. eigenvalues --   -0.67240  -0.65958  -0.64931  -0.64422  -0.63739
 Alpha  occ. eigenvalues --   -0.62985  -0.62340  -0.61018  -0.60948  -0.60458
 Alpha  occ. eigenvalues --   -0.60220  -0.59836  -0.59200  -0.58800  -0.58284
 Alpha  occ. eigenvalues --   -0.57913  -0.57125  -0.56557  -0.55500  -0.55450
 Alpha  occ. eigenvalues --   -0.54877  -0.53972  -0.53226  -0.53136  -0.52725
 Alpha  occ. eigenvalues --   -0.52526  -0.52174  -0.51900  -0.51361  -0.51056
 Alpha  occ. eigenvalues --   -0.50680  -0.50399  -0.49975  -0.49744  -0.49485
 Alpha  occ. eigenvalues --   -0.49410  -0.48925  -0.48658  -0.48028  -0.47957
 Alpha  occ. eigenvalues --   -0.47623  -0.47423  -0.47269  -0.47128  -0.46916
 Alpha  occ. eigenvalues --   -0.46866  -0.46505  -0.46400  -0.46147  -0.46040
 Alpha  occ. eigenvalues --   -0.45840  -0.45611  -0.45360  -0.45154  -0.45079
 Alpha  occ. eigenvalues --   -0.44781  -0.44690  -0.44196  -0.43943  -0.43856
 Alpha  occ. eigenvalues --   -0.43582  -0.43186  -0.42905  -0.42830  -0.42519
 Alpha  occ. eigenvalues --   -0.42380  -0.42329  -0.41969  -0.41672  -0.41339
 Alpha  occ. eigenvalues --   -0.41303  -0.40996  -0.40845  -0.40788  -0.40598
 Alpha  occ. eigenvalues --   -0.40542  -0.40098  -0.39853  -0.39680  -0.39566
 Alpha  occ. eigenvalues --   -0.39403  -0.39246  -0.39102  -0.38981  -0.38841
 Alpha  occ. eigenvalues --   -0.38633  -0.38309  -0.38119  -0.37817  -0.37598
 Alpha  occ. eigenvalues --   -0.37380  -0.37206  -0.37131  -0.36924  -0.36818
 Alpha  occ. eigenvalues --   -0.36694  -0.36529  -0.36255  -0.36222  -0.35963
 Alpha  occ. eigenvalues --   -0.35859  -0.35736  -0.35270  -0.35053  -0.34730
 Alpha  occ. eigenvalues --   -0.34554  -0.34387  -0.34095  -0.33882  -0.33661
 Alpha  occ. eigenvalues --   -0.33340  -0.33201  -0.33123  -0.32742  -0.32235
 Alpha  occ. eigenvalues --   -0.32142  -0.31992  -0.31821  -0.30630  -0.30424
 Alpha  occ. eigenvalues --   -0.30005  -0.29807  -0.29457  -0.29058  -0.27779
 Alpha  occ. eigenvalues --   -0.27577  -0.27027  -0.25924  -0.23735  -0.21755
 Alpha  occ. eigenvalues --   -0.19538
 Alpha virt. eigenvalues --   -0.07353  -0.04207  -0.01208   0.01296   0.01635
 Alpha virt. eigenvalues --    0.03069   0.04234   0.04373   0.05002   0.05642
 Alpha virt. eigenvalues --    0.06186   0.07883   0.08689   0.09468   0.09866

 Mulliken charges:
               1
     1  Mg   0.809513
     2  C    0.163320
     3  C   -0.167546
     4  C   -0.095472
     5  C   -0.184889
     6  N   -0.624400
     7  C    0.280791
     8  C   -0.158694
     9  C   -0.146795
    10  C    0.362996
    11  C   -0.316029
    12  C   -0.166120
    13  C   -0.243307
    14  C    0.600367
    15  O   -0.475436
    16  O   -0.457501
    17  N   -0.715655
    18  C    0.311183
    19  C    0.036807
    20  C   -0.022425
    21  C    0.339304
    22  C   -0.388447
    23  C   -0.072417
    24  C   -0.257404
    25  N   -0.694572
    26  C    0.268345
    27  C   -0.003339
    28  C    0.106663
    29  C    0.304335
    30  C   -0.377994
    31  C   -0.264779
    32  C   -0.296239
    33  N   -0.727955
    34  C    0.249824
    35  C    0.019065
    36  C    0.018588
    37  C    0.245075
    38  C   -0.377410
    39  C    0.408362
    40  O   -0.472032
    41  C   -0.333513
    42  C    0.594221
    43  O   -0.489624
    44  O   -0.475834
    45  C   -0.063684
    46  C    0.030470
    47  C   -0.135003
    48  C    0.111273
    49  C   -0.364012
    50  C   -0.231856
    51  C   -0.164899
    52  C   -0.168120
    53  C   -0.050572
    54  C   -0.304150
    55  C   -0.175203
    56  C   -0.158133
    57  C   -0.168182
    58  C   -0.059534
    59  C   -0.304005
    60  C   -0.182667
    61  C   -0.162231
    62  C   -0.163927
    63  C   -0.024704
    64  C   -0.295141
    65  C   -0.295592
    66  H    0.073830
    67  H    0.084602
    68  H    0.080594
    69  H    0.130892
    70  H    0.107541
    71  H    0.076123
    72  H    0.091258
    73  H    0.146309
    74  H    0.108851
    75  H    0.104781
    76  H    0.133567
    77  H    0.126857
    78  H    0.135720
    79  H    0.099729
    80  H    0.105243
    81  H    0.063041
    82  H    0.100372
    83  H    0.100565
    84  H    0.148512
    85  H    0.106329
    86  H    0.099099
    87  H    0.080235
    88  H    0.084303
    89  H    0.105337
    90  H    0.090222
    91  H    0.110682
    92  H    0.132890
    93  H    0.142056
    94  H    0.115641
    95  H    0.173816
    96  H    0.119047
    97  H    0.143488
    98  H    0.143164
    99  H    0.065705
   100  H    0.123919
   101  H    0.085226
   102  H    0.115661
   103  H    0.105808
   104  H    0.135199
   105  H    0.105090
   106  H    0.093983
   107  H    0.102483
   108  H    0.102881
   109  H    0.092210
   110  H    0.068559
   111  H    0.081498
   112  H    0.083056
   113  H    0.105896
   114  H    0.109184
   115  H    0.060864
   116  H    0.073129
   117  H    0.056035
   118  H    0.098586
   119  H    0.087894
   120  H    0.095610
   121  H    0.076426
   122  H    0.100958
   123  H    0.097566
   124  H    0.106032
   125  H    0.076467
   126  H    0.086133
   127  H    0.100964
   128  H    0.101957
   129  H    0.063508
   130  H    0.053946
   131  H    0.100741
   132  H    0.108360
   133  H    0.111810
   134  H    0.061747
   135  H    0.069638
   136  H    0.085642
   137  H    0.101876
 Sum of Mulliken charges =  -0.00000

 Dipole moment (field-independent basis, Debye):
    X=              2.2669    Y=              3.0255    Z=             -0.1058  Tot=              3.7820
 Quadrupole moment (field-independent basis, Debye-Ang):
   XX=           -342.2184   YY=           -393.5011   ZZ=           -400.1225
   XY=            -13.9856   XZ=              2.8406   YZ=             -5.5570

 Normal termination of Gaussian 16 at Fri Sep  6 19:09:43 2019.
