 Gaussian 09, Revision D.01,
 Gaussian 09:  ES64L-G09RevD.01 24-Apr-2013

 -------------------------------------
 # td=(NStates=1) CAM-B3LYP/6-31G(d,p)
 -------------------------------------

 --
 TD
 --
 Symbolic Z-matrix:
 Charge =  0 Multiplicity = 1

                         Standard orientation:
 ---------------------------------------------------------------------
 Center     Atomic      Atomic             Coordinates (Angstroms)
 Number     Number       Type             X           Y           Z
 ---------------------------------------------------------------------
      1         12           0       -7.185253    0.541383    0.268695
      2          6           0       -4.883559   -1.977197    0.563443
      3          6           0       -4.694292    2.805854    1.018370
      4          6           0       -9.383615    3.209194   -0.305534
      5          6           0       -9.552078   -1.623794   -0.963102
      6          7           0       -5.081299    0.423036    0.760145
      7          6           0       -4.331428   -0.701711    0.911023
      8          6           0       -2.934847   -0.402615    1.209264
      9          6           0       -3.003066    1.141965    1.624013
     10          6           0       -4.332142    1.487052    1.053371
     11          6           0       -2.936707    1.289098    3.123417
     12          6           0       -1.970226   -0.623966    0.015305
     13          6           0       -0.461589   -0.515971    0.465303
     14          6           0        0.489787   -0.822752   -0.640793
     15          8           0        0.248542   -1.118052   -1.800052
     16          8           0        1.779919   -0.689476   -0.189645
     17          7           0       -7.126632    2.605390    0.367630
     18          6           0       -6.030767    3.362414    0.742493
     19          6           0       -6.418780    4.838509    0.725536
     20          6           0       -7.735478    4.815718    0.375324
     21          6           0       -8.163077    3.475194    0.107209
     22          6           0       -5.508014    5.847962    1.137800
     23          6           0       -8.571915    6.011300    0.269642
     24          6           0       -8.399509    7.167980    0.909028
     25          7           0       -9.074750    0.750169   -0.589591
     26          6           0       -9.882038    1.870053   -0.611641
     27          6           0      -11.121149    1.535965   -1.202587
     28          6           0      -11.236782    0.201293   -1.353978
     29          6           0       -9.979921   -0.283537   -0.945739
     30          6           0      -12.330778    2.519689   -1.495635
     31          6           0      -12.285964   -0.720061   -1.876664
     32          6           0      -12.357413   -0.906422   -3.371870
     33          7           0       -7.261385   -1.392804   -0.095928
     34          6           0       -8.323063   -2.143476   -0.471717
     35          6           0       -7.803616   -3.592632   -0.507376
     36          6           0       -6.503915   -3.623559   -0.125660
     37          6           0       -6.217114   -2.194042    0.109169
     38          6           0       -8.796074   -4.719265   -0.832495
     39          6           0       -5.321955   -4.392320    0.161603
     40          8           0       -5.226258   -5.622067    0.251993
     41          6           0       -4.200918   -3.336759    0.513575
     42          6           0       -3.490398   -3.783003    1.917682
     43          8           0       -3.657437   -3.201594    2.989582
     44          8           0       -2.687514   -4.822041    1.678820
     45          6           0       -2.029445   -5.291243    2.826878
     46          6           0        2.833226   -0.845181   -1.142748
     47          6           0        4.109432   -0.556466   -0.445676
     48          6           0        5.052570    0.289487   -0.888252
     49          6           0        5.074470    1.117585   -2.049254
     50          6           0        6.280353    0.445669   -0.006722
     51          6           0        7.581731   -0.049517   -0.807090
     52          6           0        8.943260   -0.136469    0.018648
     53          6           0       10.273678   -0.665007   -0.686290
     54          6           0       10.051239   -2.087846   -1.081206
     55          6           0       11.495612   -0.328676    0.162952
     56          6           0       12.817634   -0.468453   -0.691115
     57          6           0       14.002855   -0.117511    0.216517
     58          6           0       15.368652   -0.149650   -0.474586
     59          6           0       15.635696   -1.556338   -1.055758
     60          6           0       16.374657    0.475746    0.424138
     61          6           0       17.775173    0.561066   -0.353268
     62          6           0       18.778444    1.343176    0.526220
     63          6           0       20.192626    1.356183    0.085287
     64          6           0       20.380466    2.292785   -1.194343
     65          6           0       21.159915    1.939551    1.211932
     66          1           0       -3.895881    3.673029    1.139192
     67          1           0      -10.209035    4.011341   -0.416223
     68          1           0      -10.378205   -2.279405   -1.342786
     69          1           0       -2.580810   -0.895326    2.101265
     70          1           0       -2.172743    1.719669    1.154716
     71          1           0       -1.903954    0.951803    3.506208
     72          1           0       -3.186978    2.285903    3.470775
     73          1           0       -3.612733    0.564249    3.757782
     74          1           0       -2.035266   -1.582050   -0.441671
     75          1           0       -2.060468    0.244297   -0.661757
     76          1           0       -0.183598    0.366157    1.063396
     77          1           0       -0.213553   -1.363473    1.307564
     78          1           0       -5.692770    6.813887    0.620059
     79          1           0       -5.373006    6.203375    2.178129
     80          1           0       -4.514735    5.612996    0.959087
     81          1           0       -9.375892    5.875320   -0.503538
     82          1           0       -8.980951    8.196998    0.603447
     83          1           0       -7.520894    7.464620    1.564404
     84          1           0      -12.257295    3.063458   -2.433466
     85          1           0      -13.362207    1.802257   -1.658962
     86          1           0      -12.677192    3.163264   -0.781047
     87          1           0      -12.110469   -1.736850   -1.437033
     88          1           0      -13.231347   -0.380538   -1.496338
     89          1           0      -13.074396   -1.595042   -3.760747
     90          1           0      -12.453618   -0.033812   -3.791340
     91          1           0      -11.492995   -1.365881   -3.722547
     92          1           0       -9.364606   -4.671288   -1.836418
     93          1           0       -8.184716   -5.714796   -1.093030
     94          1           0       -9.451480   -4.898888    0.255572
     95          1           0       -3.500493   -3.406227   -0.183796
     96          1           0       -1.559904   -4.469753    3.311590
     97          1           0       -2.643322   -5.699641    3.557560
     98          1           0       -1.234376   -6.124018    2.374062
     99          1           0        2.633698   -1.841137   -1.717442
    100          1           0        2.488115    0.089731   -1.886222
    101          1           0        4.317732   -1.057145    0.451928
    102          1           0        4.042150    1.493680   -2.427896
    103          1           0        5.716732    2.199115   -1.914908
    104          1           0        5.475934    0.193620   -2.936953
    105          1           0        6.545100    1.502652    0.412687
    106          1           0        6.054115   -0.308430    0.835402
    107          1           0        7.334619   -0.876345   -1.113082
    108          1           0        7.892259    0.522542   -1.607325
    109          1           0        9.034900    0.900141    0.406684
    110          1           0        8.702398   -0.887847    0.888987
    111          1           0       10.247545   -0.019765   -1.575756
    112          1           0        9.168643   -2.302014   -1.739035
    113          1           0       10.863188   -2.401872   -1.763072
    114          1           0       10.069190   -2.673151   -0.237293
    115          1           0       11.387660    0.768078    0.447117
    116          1           0       11.563604   -0.849399    1.165234
    117          1           0       12.924303   -1.429659   -1.154825
    118          1           0       12.859438    0.302432   -1.509265
    119          1           0       13.723156    0.948620    0.468676
    120          1           0       14.100219   -0.717580    1.110503
    121          1           0       15.060635    0.387778   -1.260011
    122          1           0       15.907683   -2.283842   -0.231632
    123          1           0       14.796405   -1.859258   -1.730353
    124          1           0       16.563789   -1.855339   -1.592275
    125          1           0       16.085467    1.626125    0.651409
    126          1           0       16.548443    0.155434    1.470184
    127          1           0       18.247607   -0.572346   -0.621351
    128          1           0       17.546411    0.944636   -1.360770
    129          1           0       18.494992    2.310913    0.628195
    130          1           0       18.939326    1.035284    1.453808
    131          1           0       20.488594    0.249682   -0.282296
    132          1           0       20.321825    3.454529   -0.771407
    133          1           0       21.573409    2.231903   -1.519013
    134          1           0       19.789005    1.955461   -1.937350
    135          1           0       21.161070    1.370295    2.084223
    136          1           0       22.300591    2.134731    0.807321
    137          1           0       21.014334    3.080547    1.413076
 ---------------------------------------------------------------------

 SCF Done:  E(RCAM-B3LYP) =  -2932.66715240     A.U. after   18 cycles

 Excitation energies and oscillator strengths:

 Excited State   1:      Singlet-A      2.1395 eV  579.50 nm  f=0.2058  <S**2>=0.000
     240 -> 242       -0.11058
     240 -> 243        0.27329
     241 -> 242        0.62801
     241 -> 243        0.10466
 This state for optimization and/or second-order correction.
 Total Energy, E(TD-HF/TD-KS) =  -2932.58852666
 Copying the excited state density for this state as the 1-particle RhoCI density.

 The electronic state is 1-A.
 Alpha  occ. eigenvalues --  -46.84649 -19.27667 -19.25184 -19.21724 -19.21262
 Alpha  occ. eigenvalues --  -19.20529 -14.41696 -14.40029 -14.39940 -14.38868
 Alpha  occ. eigenvalues --  -10.40304 -10.39395 -10.35539 -10.33112 -10.31722
 Alpha  occ. eigenvalues --  -10.31440 -10.31134 -10.30483 -10.29913 -10.29661
 Alpha  occ. eigenvalues --  -10.29633 -10.29379 -10.29195 -10.28995 -10.28535
 Alpha  occ. eigenvalues --  -10.28443 -10.28314 -10.27961 -10.27908 -10.27805
 Alpha  occ. eigenvalues --  -10.27655 -10.27596 -10.27536 -10.27506 -10.27500
 Alpha  occ. eigenvalues --  -10.27440 -10.27312 -10.27174 -10.27075 -10.26969
 Alpha  occ. eigenvalues --  -10.26968 -10.26952 -10.26835 -10.26715 -10.26576
 Alpha  occ. eigenvalues --  -10.26487 -10.26310 -10.26119 -10.26118 -10.26013
 Alpha  occ. eigenvalues --  -10.25898 -10.25890 -10.25795 -10.25652 -10.25572
 Alpha  occ. eigenvalues --  -10.25460 -10.25357 -10.25176 -10.25078 -10.24761
 Alpha  occ. eigenvalues --  -10.24504 -10.24054 -10.23341 -10.22666 -10.22659
 Alpha  occ. eigenvalues --   -3.13664  -1.88363  -1.87876  -1.87869  -1.19605
 Alpha  occ. eigenvalues --   -1.17454  -1.10019  -1.09559  -1.08822  -1.05535
 Alpha  occ. eigenvalues --   -1.04277  -1.03165  -1.01606  -0.92267  -0.91699
 Alpha  occ. eigenvalues --   -0.90980  -0.90156  -0.89700  -0.89344  -0.89335
 Alpha  occ. eigenvalues --   -0.88461  -0.88242  -0.87306  -0.86307  -0.85926
 Alpha  occ. eigenvalues --   -0.84885  -0.84088  -0.83281  -0.83030  -0.82573
 Alpha  occ. eigenvalues --   -0.81594  -0.80894  -0.79903  -0.79617  -0.78335
 Alpha  occ. eigenvalues --   -0.77772  -0.77552  -0.76205  -0.75562  -0.75367
 Alpha  occ. eigenvalues --   -0.74921  -0.74413  -0.74232  -0.73129  -0.71966
 Alpha  occ. eigenvalues --   -0.71374  -0.70858  -0.70430  -0.68966  -0.68639
 Alpha  occ. eigenvalues --   -0.66989  -0.66738  -0.65648  -0.65288  -0.64801
 Alpha  occ. eigenvalues --   -0.64640  -0.64181  -0.62520  -0.62441  -0.61737
 Alpha  occ. eigenvalues --   -0.61524  -0.61092  -0.60467  -0.59409  -0.59027
 Alpha  occ. eigenvalues --   -0.58375  -0.58095  -0.57677  -0.57242  -0.56571
 Alpha  occ. eigenvalues --   -0.56314  -0.55774  -0.55562  -0.55245  -0.54977
 Alpha  occ. eigenvalues --   -0.54707  -0.54369  -0.54140  -0.53654  -0.53406
 Alpha  occ. eigenvalues --   -0.53079  -0.52683  -0.52384  -0.51988  -0.51579
 Alpha  occ. eigenvalues --   -0.51404  -0.51330  -0.50891  -0.50763  -0.50436
 Alpha  occ. eigenvalues --   -0.50319  -0.50253  -0.50009  -0.49800  -0.49437
 Alpha  occ. eigenvalues --   -0.49243  -0.49123  -0.48779  -0.48596  -0.48389
 Alpha  occ. eigenvalues --   -0.48098  -0.47823  -0.47510  -0.47360  -0.46937
 Alpha  occ. eigenvalues --   -0.46850  -0.46685  -0.46429  -0.46242  -0.45805
 Alpha  occ. eigenvalues --   -0.45636  -0.45401  -0.45192  -0.45168  -0.44883
 Alpha  occ. eigenvalues --   -0.44686  -0.44558  -0.44223  -0.43966  -0.43833
 Alpha  occ. eigenvalues --   -0.43658  -0.43421  -0.43241  -0.43129  -0.42859
 Alpha  occ. eigenvalues --   -0.42716  -0.42637  -0.42545  -0.42354  -0.42147
 Alpha  occ. eigenvalues --   -0.41908  -0.41859  -0.41555  -0.41233  -0.41043
 Alpha  occ. eigenvalues --   -0.40923  -0.40640  -0.40343  -0.40297  -0.40268
 Alpha  occ. eigenvalues --   -0.40087  -0.39776  -0.39559  -0.39234  -0.38982
 Alpha  occ. eigenvalues --   -0.38890  -0.38794  -0.38509  -0.38398  -0.38002
 Alpha  occ. eigenvalues --   -0.37830  -0.37218  -0.37178  -0.36791  -0.36538
 Alpha  occ. eigenvalues --   -0.36494  -0.36367  -0.36162  -0.35900  -0.35725
 Alpha  occ. eigenvalues --   -0.35665  -0.35129  -0.34683  -0.34140  -0.34048
 Alpha  occ. eigenvalues --   -0.33648  -0.32698  -0.32240  -0.30897  -0.30490
 Alpha  occ. eigenvalues --   -0.30303  -0.29286  -0.28471  -0.27817  -0.23292
 Alpha  occ. eigenvalues --   -0.20916
 Alpha virt. eigenvalues --   -0.05549  -0.03431   0.00921   0.04059   0.04819
 Alpha virt. eigenvalues --    0.04891   0.05615   0.06101   0.07358   0.07534
 Alpha virt. eigenvalues --    0.08207   0.10023   0.10578   0.11333   0.11624

 Mulliken charges:
               1
     1  Mg   0.838755
     2  C    0.043398
     3  C   -0.225990
     4  C   -0.191560
     5  C   -0.167462
     6  N   -0.639202
     7  C    0.330775
     8  C   -0.176668
     9  C   -0.149776
    10  C    0.384378
    11  C   -0.310979
    12  C   -0.158805
    13  C   -0.283951
    14  C    0.621190
    15  O   -0.480394
    16  O   -0.490166
    17  N   -0.721439
    18  C    0.282303
    19  C    0.055641
    20  C   -0.000202
    21  C    0.383108
    22  C   -0.405354
    23  C   -0.052099
    24  C   -0.261955
    25  N   -0.671899
    26  C    0.264038
    27  C   -0.023825
    28  C    0.094936
    29  C    0.245877
    30  C   -0.374912
    31  C   -0.252394
    32  C   -0.301934
    33  N   -0.731044
    34  C    0.276734
    35  C   -0.055559
    36  C    0.118137
    37  C    0.263322
    38  C   -0.362850
    39  C    0.350371
    40  O   -0.463586
    41  C   -0.307162
    42  C    0.603448
    43  O   -0.479894
    44  O   -0.412238
    45  C   -0.088271
    46  C    0.021400
    47  C   -0.131416
    48  C    0.164429
    49  C   -0.337924
    50  C   -0.233389
    51  C   -0.170516
    52  C   -0.188340
    53  C   -0.058234
    54  C   -0.307277
    55  C   -0.170012
    56  C   -0.196536
    57  C   -0.180401
    58  C   -0.036886
    59  C   -0.321058
    60  C   -0.175777
    61  C   -0.174885
    62  C   -0.133709
    63  C   -0.067900
    64  C   -0.281361
    65  C   -0.316910
    66  H    0.079093
    67  H    0.105285
    68  H    0.092386
    69  H    0.127576
    70  H    0.104339
    71  H    0.099165
    72  H    0.118223
    73  H    0.117215
    74  H    0.131603
    75  H    0.124444
    76  H    0.143775
    77  H    0.116807
    78  H    0.119045
    79  H    0.126919
    80  H    0.118143
    81  H    0.096836
    82  H    0.088600
    83  H    0.106355
    84  H    0.123286
    85  H    0.070056
    86  H    0.130674
    87  H    0.096464
    88  H    0.107441
    89  H    0.103539
    90  H    0.121237
    91  H    0.111218
    92  H    0.121829
    93  H    0.121275
    94  H    0.112547
    95  H    0.159175
    96  H    0.129307
    97  H    0.143642
    98  H    0.106820
    99  H    0.126428
   100  H    0.090637
   101  H    0.095813
   102  H    0.114892
   103  H    0.098867
   104  H    0.094875
   105  H    0.091869
   106  H    0.088028
   107  H    0.102305
   108  H    0.100518
   109  H    0.078532
   110  H    0.062843
   111  H    0.081329
   112  H    0.101677
   113  H    0.095216
   114  H    0.113649
   115  H    0.088875
   116  H    0.093901
   117  H    0.105019
   118  H    0.087744
   119  H    0.083334
   120  H    0.088991
   121  H    0.095123
   122  H    0.091111
   123  H    0.100804
   124  H    0.099533
   125  H    0.071816
   126  H    0.100161
   127  H    0.056575
   128  H    0.102657
   129  H    0.098821
   130  H    0.096753
   131  H    0.066850
   132  H    0.075485
   133  H    0.069613
   134  H    0.112912
   135  H    0.112412
   136  H    0.078599
   137  H    0.092970
 Sum of Mulliken charges =   0.00000

 Dipole moment (field-independent basis, Debye):
    X=              2.1029    Y=              4.1740    Z=              0.9754  Tot=              4.7745
 Quadrupole moment (field-independent basis, Debye-Ang):
   XX=           -376.4528   YY=           -391.5361   ZZ=           -398.2436
   XY=            -19.4436   XZ=             12.7995   YZ=              1.7417

 Normal termination of Gaussian 09 at Sun Jul  7 04:26:35 2019.
