 Gaussian 16, Revision A.03,
 Gaussian 16:  ES64L-G16RevA.03 25-Dec-2016

 ----------------------------------------------------------------------
 # td=(NStates=1) iop(3/107=0140000000,3/108=0140000000) CAM-B3LYP/6-31
 G(d,p)
 ----------------------------------------------------------------------

 --
 TD
 --
 Symbolic Z-matrix:
 Charge =  0 Multiplicity = 1

                         Standard orientation:
 ---------------------------------------------------------------------
 Center     Atomic      Atomic             Coordinates (Angstroms)
 Number     Number       Type             X           Y           Z
 ---------------------------------------------------------------------
      1         12           0       -7.135634    0.639893    0.088138
      2          6           0       -4.806180   -1.995683    0.432454
      3          6           0       -4.803962    2.763120    1.301485
      4          6           0       -9.341347    3.017368   -0.437166
      5          6           0       -9.528700   -1.692886   -0.926198
      6          7           0       -5.149035    0.396142    0.692804
      7          6           0       -4.391099   -0.756353    0.805477
      8          6           0       -2.876168   -0.450442    1.208895
      9          6           0       -3.099683    1.014211    1.774153
     10          6           0       -4.431149    1.444350    1.299293
     11          6           0       -2.991748    1.192037    3.336920
     12          6           0       -1.925564   -0.540647    0.046424
     13          6           0       -0.466698   -0.323730    0.509085
     14          6           0        0.513056   -0.680761   -0.559589
     15          8           0        0.182159   -1.066021   -1.640466
     16          8           0        1.727243   -0.442401   -0.189622
     17          7           0       -7.102547    2.658371    0.413721
     18          6           0       -6.090652    3.445195    1.010903
     19          6           0       -6.305662    4.762766    0.994900
     20          6           0       -7.671009    4.819399    0.476299
     21          6           0       -8.110183    3.445470    0.117916
     22          6           0       -5.444868    5.891692    1.396480
     23          6           0       -8.501152    6.027879    0.101358
     24          6           0       -8.287886    7.205080    0.651507
     25          7           0       -9.148965    0.681860   -0.634833
     26          6           0       -9.798956    1.764417   -0.698500
     27          6           0      -11.174491    1.539172   -1.199405
     28          6           0      -11.218503    0.177438   -1.375994
     29          6           0       -9.962852   -0.389473   -0.986750
     30          6           0      -12.216493    2.543628   -1.529323
     31          6           0      -12.394221   -0.630408   -1.968986
     32          6           0      -12.144526   -1.029831   -3.525325
     33          7           0       -7.176929   -1.438339   -0.178931
     34          6           0       -8.236184   -2.190302   -0.608113
     35          6           0       -7.877237   -3.613660   -0.584133
     36          6           0       -6.569981   -3.644464   -0.249557
     37          6           0       -6.151566   -2.190601    0.098605
     38          6           0       -8.747906   -4.771499   -0.771768
     39          6           0       -5.289219   -4.369446    0.224861
     40          8           0       -5.255006   -5.676904    0.327164
     41          6           0       -4.245636   -3.410750    0.509002
     42          6           0       -3.526267   -3.726869    1.845310
     43          8           0       -3.790834   -3.079143    2.881422
     44          8           0       -2.828037   -4.827296    1.697774
     45          6           0       -2.389209   -5.366099    2.885132
     46          6           0        2.805510   -0.574804   -1.210239
     47          6           0        4.068144   -0.358334   -0.520937
     48          6           0        5.059456    0.419792   -0.835905
     49          6           0        5.171859    1.455609   -1.978837
     50          6           0        6.339925    0.315917   -0.014027
     51          6           0        7.676856   -0.041301   -0.883210
     52          6           0        8.943878   -0.040323   -0.057702
     53          6           0       10.209725   -0.415818   -0.799978
     54          6           0       10.026628   -1.883530   -1.344988
     55          6           0       11.457835   -0.307115    0.156974
     56          6           0       12.750731   -0.604731   -0.522871
     57          6           0       14.036993   -0.101937    0.286428
     58          6           0       15.295503   -0.306020   -0.474293
     59          6           0       15.551466   -1.928481   -0.756682
     60          6           0       16.415936    0.346923    0.404015
     61          6           0       17.871077    0.492142   -0.202397
     62          6           0       18.823788    1.289127    0.540328
     63          6           0       20.244837    1.381496    0.015886
     64          6           0       20.295732    2.062153   -1.322130
     65          6           0       21.275767    1.964002    0.951887
     66          1           0       -4.027065    3.333010    1.745493
     67          1           0       -9.997025    3.674017   -0.544303
     68          1           0      -10.262755   -2.560395   -1.224439
     69          1           0       -2.816170   -1.087628    1.993671
     70          1           0       -2.383771    1.609851    1.458140
     71          1           0       -1.959925    0.925007    3.695408
     72          1           0       -3.161023    2.131378    3.687810
     73          1           0       -3.657047    0.493983    3.879167
     74          1           0       -2.168161   -1.507514   -0.430415
     75          1           0       -2.129856    0.259659   -0.697110
     76          1           0       -0.206544    0.685435    0.850706
     77          1           0       -0.204662   -1.040244    1.278085
     78          1           0       -5.613853    6.635722    0.785605
     79          1           0       -5.536137    6.261736    2.381490
     80          1           0       -4.224624    5.607823    1.139392
     81          1           0       -9.268704    5.859152   -0.627899
     82          1           0       -8.769362    8.283872    0.323970
     83          1           0       -7.538244    7.348576    1.420391
     84          1           0      -11.984672    3.250834   -2.152588
     85          1           0      -13.088382    1.999940   -1.870432
     86          1           0      -12.581951    3.039788   -0.733317
     87          1           0      -12.684092   -1.516282   -1.133249
     88          1           0      -13.301631    0.068941   -2.121268
     89          1           0      -12.769309   -1.594933   -4.020138
     90          1           0      -11.670469   -0.259738   -4.277569
     91          1           0      -11.259781   -1.630482   -3.568116
     92          1           0       -9.106434   -4.842643   -1.807148
     93          1           0       -8.145793   -5.632382   -0.581895
     94          1           0       -9.719923   -4.444515   -0.185135
     95          1           0       -3.525936   -3.310927   -0.250083
     96          1           0       -1.342968   -4.708631    3.185631
     97          1           0       -3.263026   -5.353755    3.712107
     98          1           0       -2.096334   -6.487715    2.728335
     99          1           0        2.593035   -1.690998   -1.701083
    100          1           0        2.613329   -0.045378   -2.148209
    101          1           0        4.104434   -1.052936    0.305568
    102          1           0        4.210797    1.275415   -2.630746
    103          1           0        5.326429    2.477708   -1.597067
    104          1           0        6.269425    1.121787   -2.724150
    105          1           0        6.521551    1.364425    0.432665
    106          1           0        6.180315   -0.385729    0.849335
    107          1           0        7.665170   -0.967416   -1.198891
    108          1           0        7.784045    0.855118   -1.636863
    109          1           0        9.141165    0.974153    0.478628
    110          1           0        8.894381   -0.757221    0.733706
    111          1           0       10.352705    0.360358   -1.606933
    112          1           0        9.266288   -2.116864   -1.934530
    113          1           0       11.064256   -2.163321   -1.860279
    114          1           0       10.114082   -2.440621   -0.426881
    115          1           0       11.601712    0.585102    0.570367
    116          1           0       11.299515   -1.044263    0.976501
    117          1           0       12.878521   -1.781734   -0.696638
    118          1           0       12.719036   -0.047131   -1.666176
    119          1           0       14.086781    0.952769    0.379709
    120          1           0       14.036159   -0.608007    1.325326
    121          1           0       15.287248    0.375449   -1.488044
    122          1           0       15.537511   -2.255543    0.388791
    123          1           0       14.852118   -2.162088   -1.457280
    124          1           0       16.526217   -2.007985   -1.177977
    125          1           0       16.133158    1.373892    0.741756
    126          1           0       16.645635   -0.143037    1.289055
    127          1           0       18.361068   -0.538541   -0.234318
    128          1           0       17.968227    0.824043   -1.169937
    129          1           0       18.385247    2.289748    0.916904
    130          1           0       18.816330    0.756328    1.457620
    131          1           0       20.334050    0.323379   -0.316578
    132          1           0       19.629263    3.045495   -1.143963
    133          1           0       21.310860    2.048886   -1.595192
    134          1           0       19.793043    1.560741   -2.140663
    135          1           0       21.218072    1.557552    2.186298
    136          1           0       22.373118    1.754127    0.695684
    137          1           0       21.050577    3.146040    0.845188
 ---------------------------------------------------------------------

 SCF Done:  E(RCAM-B3LYP) =  -2933.41317715     A.U. after   16 cycles

 Excitation energies and oscillator strengths:

 Excited State   1:      Singlet-A      1.9271 eV  643.36 nm  f=0.3316  <S**2>=0.000
     240 -> 242       -0.10834
     240 -> 243        0.17950
     241 -> 242        0.66940
 This state for optimization and/or second-order correction.
 Total Energy, E(TD-HF/TD-DFT) =  -2933.34235597
 Copying the excited state density for this state as the 1-particle RhoCI density.

 The electronic state is 1-A.
 Alpha  occ. eigenvalues --  -46.80261 -19.24759 -19.22197 -19.17708 -19.15638
 Alpha  occ. eigenvalues --  -19.15337 -14.36907 -14.35000 -14.34487 -14.34190
 Alpha  occ. eigenvalues --  -10.36019 -10.33071 -10.31227 -10.30213 -10.28782
 Alpha  occ. eigenvalues --  -10.25887 -10.25321 -10.25014 -10.24982 -10.24973
 Alpha  occ. eigenvalues --  -10.24520 -10.24507 -10.24357 -10.24251 -10.24014
 Alpha  occ. eigenvalues --  -10.23763 -10.23614 -10.23577 -10.23306 -10.23282
 Alpha  occ. eigenvalues --  -10.23182 -10.23138 -10.23066 -10.23064 -10.22649
 Alpha  occ. eigenvalues --  -10.22609 -10.22379 -10.22300 -10.22052 -10.22040
 Alpha  occ. eigenvalues --  -10.21904 -10.21777 -10.21776 -10.21764 -10.21746
 Alpha  occ. eigenvalues --  -10.21722 -10.21632 -10.21493 -10.21466 -10.21444
 Alpha  occ. eigenvalues --  -10.21310 -10.21238 -10.20863 -10.20820 -10.20777
 Alpha  occ. eigenvalues --  -10.20651 -10.20555 -10.20441 -10.20436 -10.20428
 Alpha  occ. eigenvalues --  -10.20369 -10.20129 -10.19720 -10.19555 -10.19272
 Alpha  occ. eigenvalues --   -3.08667  -1.83634  -1.83132  -1.83056  -1.16693
 Alpha  occ. eigenvalues --   -1.14415  -1.04768  -1.04534  -1.01028  -1.00070
 Alpha  occ. eigenvalues --   -0.98840  -0.98017  -0.96385  -0.88096  -0.86510
 Alpha  occ. eigenvalues --   -0.85951  -0.85326  -0.84567  -0.84393  -0.83541
 Alpha  occ. eigenvalues --   -0.83315  -0.83012  -0.82828  -0.82316  -0.80992
 Alpha  occ. eigenvalues --   -0.80470  -0.79601  -0.78917  -0.78408  -0.77583
 Alpha  occ. eigenvalues --   -0.77360  -0.76850  -0.75208  -0.74731  -0.73907
 Alpha  occ. eigenvalues --   -0.73513  -0.72643  -0.71977  -0.71403  -0.71240
 Alpha  occ. eigenvalues --   -0.70893  -0.70463  -0.69958  -0.69310  -0.68654
 Alpha  occ. eigenvalues --   -0.67193  -0.66509  -0.65956  -0.64755  -0.63651
 Alpha  occ. eigenvalues --   -0.62440  -0.61857  -0.60974  -0.60486  -0.60026
 Alpha  occ. eigenvalues --   -0.59958  -0.59543  -0.58806  -0.58615  -0.58136
 Alpha  occ. eigenvalues --   -0.56998  -0.56814  -0.56723  -0.56311  -0.55420
 Alpha  occ. eigenvalues --   -0.54807  -0.54560  -0.53870  -0.53194  -0.52832
 Alpha  occ. eigenvalues --   -0.52482  -0.51968  -0.51794  -0.51598  -0.51137
 Alpha  occ. eigenvalues --   -0.50909  -0.50822  -0.50522  -0.50401  -0.50078
 Alpha  occ. eigenvalues --   -0.49567  -0.48980  -0.48181  -0.48113  -0.47805
 Alpha  occ. eigenvalues --   -0.47719  -0.47431  -0.47397  -0.47066  -0.46975
 Alpha  occ. eigenvalues --   -0.46624  -0.46454  -0.46202  -0.46095  -0.45994
 Alpha  occ. eigenvalues --   -0.45870  -0.45303  -0.45202  -0.44943  -0.44606
 Alpha  occ. eigenvalues --   -0.44389  -0.44080  -0.43985  -0.43871  -0.43578
 Alpha  occ. eigenvalues --   -0.43469  -0.43102  -0.42984  -0.42704  -0.42675
 Alpha  occ. eigenvalues --   -0.42535  -0.42296  -0.42114  -0.42044  -0.41462
 Alpha  occ. eigenvalues --   -0.41344  -0.41144  -0.41068  -0.40915  -0.40799
 Alpha  occ. eigenvalues --   -0.40420  -0.40306  -0.40136  -0.39871  -0.39820
 Alpha  occ. eigenvalues --   -0.39660  -0.39488  -0.39384  -0.38804  -0.38672
 Alpha  occ. eigenvalues --   -0.38545  -0.38434  -0.38339  -0.38156  -0.38051
 Alpha  occ. eigenvalues --   -0.37500  -0.37404  -0.37156  -0.36717  -0.36631
 Alpha  occ. eigenvalues --   -0.36569  -0.36489  -0.36369  -0.35953  -0.35825
 Alpha  occ. eigenvalues --   -0.35502  -0.35065  -0.34906  -0.34606  -0.34484
 Alpha  occ. eigenvalues --   -0.34369  -0.34225  -0.33893  -0.33775  -0.33468
 Alpha  occ. eigenvalues --   -0.33249  -0.33152  -0.32977  -0.32773  -0.32400
 Alpha  occ. eigenvalues --   -0.32201  -0.31919  -0.31664  -0.31404  -0.30818
 Alpha  occ. eigenvalues --   -0.29975  -0.29573  -0.29368  -0.28723  -0.27577
 Alpha  occ. eigenvalues --   -0.27020  -0.26036  -0.25803  -0.24346  -0.21213
 Alpha  occ. eigenvalues --   -0.19546
 Alpha virt. eigenvalues --   -0.07394  -0.03271  -0.00330   0.02480   0.03066
 Alpha virt. eigenvalues --    0.03314   0.04986   0.05564   0.06048   0.06252
 Alpha virt. eigenvalues --    0.06859   0.08365   0.09442   0.09709   0.10119

 Mulliken charges:
               1
     1  Mg   0.804611
     2  C    0.058537
     3  C   -0.199179
     4  C   -0.100813
     5  C   -0.196502
     6  N   -0.638118
     7  C    0.249365
     8  C   -0.128810
     9  C   -0.150402
    10  C    0.359933
    11  C   -0.328359
    12  C   -0.155567
    13  C   -0.270797
    14  C    0.596426
    15  O   -0.480133
    16  O   -0.452894
    17  N   -0.720223
    18  C    0.258012
    19  C    0.084769
    20  C   -0.081814
    21  C    0.354694
    22  C   -0.366380
    23  C   -0.042195
    24  C   -0.254480
    25  N   -0.706891
    26  C    0.354490
    27  C    0.019272
    28  C    0.016263
    29  C    0.305199
    30  C   -0.372183
    31  C   -0.239958
    32  C   -0.329354
    33  N   -0.708571
    34  C    0.290535
    35  C    0.004605
    36  C   -0.002693
    37  C    0.264676
    38  C   -0.375651
    39  C    0.383201
    40  O   -0.511670
    41  C   -0.261754
    42  C    0.607298
    43  O   -0.479405
    44  O   -0.363930
    45  C   -0.087506
    46  C   -0.017787
    47  C   -0.113029
    48  C    0.152557
    49  C   -0.337839
    50  C   -0.233549
    51  C   -0.154238
    52  C   -0.166235
    53  C   -0.067937
    54  C   -0.317315
    55  C   -0.155509
    56  C   -0.170320
    57  C   -0.153249
    58  C   -0.072382
    59  C   -0.309951
    60  C   -0.178177
    61  C   -0.192227
    62  C   -0.160967
    63  C   -0.046377
    64  C   -0.301713
    65  C   -0.280388
    66  H    0.061435
    67  H    0.027002
    68  H    0.085062
    69  H    0.124178
    70  H    0.099484
    71  H    0.093622
    72  H    0.119844
    73  H    0.122743
    74  H    0.113596
    75  H    0.119533
    76  H    0.136129
    77  H    0.133447
    78  H    0.140389
    79  H    0.134435
    80  H    0.073938
    81  H    0.092214
    82  H    0.082529
    83  H    0.097348
    84  H    0.131864
    85  H    0.108622
    86  H    0.130510
    87  H    0.087945
    88  H    0.102604
    89  H    0.121425
    90  H    0.098982
    91  H    0.110446
    92  H    0.127507
    93  H    0.153978
    94  H    0.114106
    95  H    0.179019
    96  H    0.092615
    97  H    0.134877
    98  H    0.127504
    99  H    0.108571
   100  H    0.128690
   101  H    0.094683
   102  H    0.101944
   103  H    0.134298
   104  H    0.077736
   105  H    0.089859
   106  H    0.093354
   107  H    0.109038
   108  H    0.085857
   109  H    0.066248
   110  H    0.085970
   111  H    0.072266
   112  H    0.119126
   113  H    0.085860
   114  H    0.107465
   115  H    0.103333
   116  H    0.083810
   117  H    0.082411
   118  H    0.052783
   119  H    0.098944
   120  H    0.082007
   121  H    0.063983
   122  H    0.092447
   123  H    0.124812
   124  H    0.111869
   125  H    0.084390
   126  H    0.098086
   127  H    0.075762
   128  H    0.090874
   129  H    0.061783
   130  H    0.088545
   131  H    0.078716
   132  H    0.080683
   133  H    0.107720
   134  H    0.107015
   135  H    0.066143
   136  H    0.104917
   137  H    0.090046
 Sum of Mulliken charges =  -0.00000

 Dipole moment (field-independent basis, Debye):
    X=              3.3520    Y=              3.2782    Z=              0.1479  Tot=              4.6909
 Quadrupole moment (field-independent basis, Debye-Ang):
   XX=           -351.9693   YY=           -397.7143   ZZ=           -397.0141
   XY=            -23.1829   XZ=             12.6322   YZ=             -3.1012

 Normal termination of Gaussian 16 at Fri Sep  6 10:01:29 2019.
