 Gaussian 16, Revision A.03,
 Gaussian 16:  ES64L-G16RevA.03 25-Dec-2016

 ----------------------------------------------------------------------
 # td=(NStates=1) iop(3/107=0140000000,3/108=0140000000) CAM-B3LYP/6-31
 G(d,p)
 ----------------------------------------------------------------------

 --
 TD
 --
 Symbolic Z-matrix:
 Charge =  0 Multiplicity = 1

                         Standard orientation:
 ---------------------------------------------------------------------
 Center     Atomic      Atomic             Coordinates (Angstroms)
 Number     Number       Type             X           Y           Z
 ---------------------------------------------------------------------
      1         12           0       -7.130621    0.538663    0.041858
      2          6           0       -4.752597   -1.918387    0.549240
      3          6           0       -4.753366    2.824635    1.103728
      4          6           0       -9.322814    3.126191   -0.403372
      5          6           0       -9.480822   -1.723816   -0.926576
      6          7           0       -5.117603    0.489503    0.779369
      7          6           0       -4.336076   -0.638208    0.748400
      8          6           0       -2.925660   -0.453674    1.246574
      9          6           0       -2.966605    1.128267    1.647214
     10          6           0       -4.322522    1.528778    1.178151
     11          6           0       -3.059685    1.238206    3.187290
     12          6           0       -1.891857   -0.656730    0.128428
     13          6           0       -0.445273   -0.523938    0.672728
     14          6           0        0.590660   -0.780344   -0.513583
     15          8           0        0.319905   -1.191667   -1.621358
     16          8           0        1.882131   -0.553522   -0.124638
     17          7           0       -7.070398    2.648839    0.393321
     18          6           0       -5.939273    3.402794    0.723950
     19          6           0       -6.410400    4.861807    0.783161
     20          6           0       -7.665483    4.866306    0.311094
     21          6           0       -8.069159    3.479256    0.091748
     22          6           0       -5.402288    5.955437    1.127258
     23          6           0       -8.504005    6.048461    0.087421
     24          6           0       -8.599432    7.273815    0.801310
     25          7           0       -9.066557    0.699662   -0.514226
     26          6           0       -9.854347    1.813654   -0.533932
     27          6           0      -11.185267    1.510538   -1.116021
     28          6           0      -11.135065    0.122697   -1.319903
     29          6           0       -9.889222   -0.377708   -0.949609
     30          6           0      -12.346040    2.470253   -1.335363
     31          6           0      -12.270533   -0.704541   -1.805277
     32          6           0      -12.193327   -1.070122   -3.315069
     33          7           0       -7.190089   -1.342683   -0.202173
     34          6           0       -8.204175   -2.243359   -0.604215
     35          6           0       -7.809260   -3.597066   -0.587137
     36          6           0       -6.516914   -3.545812   -0.245081
     37          6           0       -6.143460   -2.166705    0.066501
     38          6           0       -8.690328   -4.851968   -0.934254
     39          6           0       -5.343711   -4.408120    0.157796
     40          8           0       -5.154342   -5.579202    0.185123
     41          6           0       -4.209699   -3.369404    0.496878
     42          6           0       -3.643323   -3.637171    1.741844
     43          8           0       -3.897092   -3.260404    2.927770
     44          8           0       -2.724119   -4.837795    1.751536
     45          6           0       -2.308035   -5.314381    3.059130
     46          6           0        2.843261   -0.622088   -1.140875
     47          6           0        4.101278   -0.429821   -0.419172
     48          6           0        5.074945    0.385406   -0.849206
     49          6           0        5.012183    1.290715   -2.076559
     50          6           0        6.371298    0.246783   -0.015599
     51          6           0        7.560044   -0.177178   -0.850749
     52          6           0        8.890709   -0.147011   -0.112983
     53          6           0       10.167663   -0.556914   -0.821642
     54          6           0       10.059349   -2.044694   -1.263127
     55          6           0       11.287620   -0.302624    0.038062
     56          6           0       12.705835   -0.371958   -0.688503
     57          6           0       13.921946   -0.061069    0.195323
     58          6           0       15.267827   -0.092650   -0.516581
     59          6           0       15.627745   -1.343613   -1.204067
     60          6           0       16.343059    0.443582    0.435744
     61          6           0       17.748920    0.570390   -0.246729
     62          6           0       18.829814    1.113942    0.720120
     63          6           0       20.229388    1.306957    0.204989
     64          6           0       20.381872    2.130334   -1.094376
     65          6           0       21.249412    1.777807    1.236060
     66          1           0       -4.157466    3.625245    1.220146
     67          1           0       -9.847526    3.882797   -0.673902
     68          1           0      -10.213899   -2.443257   -1.162480
     69          1           0       -2.686894   -1.072450    1.947743
     70          1           0       -2.173599    1.679574    1.188845
     71          1           0       -2.195542    0.836281    3.788431
     72          1           0       -3.517446    2.173134    3.416705
     73          1           0       -3.793900    0.628612    3.580760
     74          1           0       -2.015017   -1.606073   -0.385899
     75          1           0       -2.077866    0.106262   -0.620274
     76          1           0       -0.304285    0.361552    1.083620
     77          1           0       -0.203590   -1.265578    1.424460
     78          1           0       -5.519942    6.894063    0.491143
     79          1           0       -5.701007    6.273561    2.241727
     80          1           0       -4.401758    5.323640    0.943183
     81          1           0       -9.208467    5.826158   -0.648266
     82          1           0       -9.494847    7.995722    0.942387
     83          1           0       -7.878227    7.519838    1.409956
     84          1           0      -12.121112    2.917991   -2.295557
     85          1           0      -13.278985    1.885312   -1.699590
     86          1           0      -12.376918    3.331701   -0.581939
     87          1           0      -12.352266   -1.720137   -1.151159
     88          1           0      -13.310743   -0.226401   -1.678040
     89          1           0      -13.105584   -1.491759   -3.885356
     90          1           0      -11.878485   -0.081971   -3.716384
     91          1           0      -11.227372   -1.650182   -3.414051
     92          1           0       -8.962902   -4.818596   -1.894066
     93          1           0       -8.076706   -5.752027   -0.751006
     94          1           0       -9.494697   -4.783327   -0.213653
     95          1           0       -3.445095   -3.420904   -0.296845
     96          1           0       -1.622508   -4.613934    3.663161
     97          1           0       -3.126180   -5.486850    3.704042
     98          1           0       -1.627014   -6.139373    2.863085
     99          1           0        2.822395   -1.503616   -1.324759
    100          1           0        2.485737   -0.073000   -2.018051
    101          1           0        4.128344   -0.982660    0.450456
    102          1           0        4.039553    1.442805   -2.374660
    103          1           0        5.603679    2.253047   -1.670692
    104          1           0        5.617241    0.823015   -2.851423
    105          1           0        6.716119    1.310803    0.277140
    106          1           0        5.927567   -0.456895    0.809353
    107          1           0        7.454942   -1.047748   -1.289276
    108          1           0        7.669520    0.449533   -1.811746
    109          1           0        8.862861    1.062829    0.078315
    110          1           0        8.953208   -0.596678    0.879996
    111          1           0       10.079295    0.256112   -1.635295
    112          1           0        9.156175   -2.344624   -1.903339
    113          1           0       10.823958   -2.454072   -1.819370
    114          1           0       10.047254   -2.513316   -0.222906
    115          1           0       11.159359    0.765865    0.512662
    116          1           0       11.420302   -0.947243    1.026610
    117          1           0       12.902320   -1.342422   -1.254768
    118          1           0       12.624136    0.323010   -1.587941
    119          1           0       13.679032    0.980941    0.489632
    120          1           0       14.056905   -0.675193    0.976051
    121          1           0       15.118751    0.724815   -1.321352
    122          1           0       16.059351   -2.147933   -0.296069
    123          1           0       14.715972   -1.726743   -1.730935
    124          1           0       16.400734   -1.239474   -2.005582
    125          1           0       16.205421    1.506423    0.869166
    126          1           0       16.619259   -0.021140    1.235983
    127          1           0       18.099469   -0.438839   -0.511703
    128          1           0       17.605030    1.139839   -1.327608
    129          1           0       18.449092    2.185037    0.798336
    130          1           0       18.587738    0.568977    1.514056
    131          1           0       20.618845    0.132732   -0.019929
    132          1           0       20.121654    3.175112   -0.809591
    133          1           0       21.633594    2.087918   -1.324324
    134          1           0       19.565221    1.710221   -1.753768
    135          1           0       21.070231    1.233014    2.223252
    136          1           0       22.289295    1.509417    0.736722
    137          1           0       21.227578    2.915415    1.399135
 ---------------------------------------------------------------------

 SCF Done:  E(RCAM-B3LYP) =  -2933.44836909     A.U. after   16 cycles

 Excitation energies and oscillator strengths:

 Excited State   1:      Singlet-A      2.1048 eV  589.05 nm  f=0.2097  <S**2>=0.000
     240 -> 243       -0.24583
     241 -> 242        0.65607
 This state for optimization and/or second-order correction.
 Total Energy, E(TD-HF/TD-DFT) =  -2933.37101867
 Copying the excited state density for this state as the 1-particle RhoCI density.

 The electronic state is 1-A.
 Alpha  occ. eigenvalues --  -46.79622 -19.21074 -19.18763 -19.17701 -19.17051
 Alpha  occ. eigenvalues --  -19.16825 -14.38145 -14.35847 -14.35230 -14.35186
 Alpha  occ. eigenvalues --  -10.34708 -10.34503 -10.31962 -10.27077 -10.26205
 Alpha  occ. eigenvalues --  -10.26075 -10.25446 -10.25275 -10.25192 -10.25005
 Alpha  occ. eigenvalues --  -10.24941 -10.24899 -10.24758 -10.24392 -10.24182
 Alpha  occ. eigenvalues --  -10.23904 -10.23839 -10.23686 -10.23620 -10.23495
 Alpha  occ. eigenvalues --  -10.23419 -10.23253 -10.23234 -10.22850 -10.22748
 Alpha  occ. eigenvalues --  -10.22734 -10.22717 -10.22706 -10.22555 -10.22484
 Alpha  occ. eigenvalues --  -10.22365 -10.22358 -10.22268 -10.22259 -10.22101
 Alpha  occ. eigenvalues --  -10.22075 -10.21966 -10.21904 -10.21894 -10.21761
 Alpha  occ. eigenvalues --  -10.21757 -10.21747 -10.21650 -10.21623 -10.21504
 Alpha  occ. eigenvalues --  -10.21444 -10.21330 -10.21003 -10.20870 -10.20737
 Alpha  occ. eigenvalues --  -10.20508 -10.20152 -10.20150 -10.20056 -10.19743
 Alpha  occ. eigenvalues --   -3.08419  -1.83337  -1.82905  -1.82837  -1.13268
 Alpha  occ. eigenvalues --   -1.09128  -1.07132  -1.04722  -0.99675  -0.99392
 Alpha  occ. eigenvalues --   -0.98545  -0.98266  -0.96726  -0.88052  -0.86626
 Alpha  occ. eigenvalues --   -0.85870  -0.85388  -0.84998  -0.84893  -0.83970
 Alpha  occ. eigenvalues --   -0.83602  -0.83510  -0.83110  -0.82420  -0.81503
 Alpha  occ. eigenvalues --   -0.80767  -0.79554  -0.78819  -0.78369  -0.77393
 Alpha  occ. eigenvalues --   -0.77365  -0.76779  -0.75847  -0.75273  -0.74122
 Alpha  occ. eigenvalues --   -0.73355  -0.72362  -0.72018  -0.71373  -0.70994
 Alpha  occ. eigenvalues --   -0.70656  -0.70102  -0.69473  -0.69159  -0.68558
 Alpha  occ. eigenvalues --   -0.67899  -0.66428  -0.65071  -0.64688  -0.64375
 Alpha  occ. eigenvalues --   -0.63888  -0.62999  -0.61867  -0.61070  -0.60699
 Alpha  occ. eigenvalues --   -0.60471  -0.60202  -0.58568  -0.58067  -0.57598
 Alpha  occ. eigenvalues --   -0.57054  -0.56480  -0.56347  -0.55979  -0.55674
 Alpha  occ. eigenvalues --   -0.55027  -0.54696  -0.53896  -0.53456  -0.53133
 Alpha  occ. eigenvalues --   -0.52704  -0.52154  -0.51838  -0.51476  -0.51165
 Alpha  occ. eigenvalues --   -0.50955  -0.50636  -0.50442  -0.49987  -0.49020
 Alpha  occ. eigenvalues --   -0.48769  -0.48451  -0.48265  -0.48041  -0.47862
 Alpha  occ. eigenvalues --   -0.47756  -0.47538  -0.47345  -0.47079  -0.46962
 Alpha  occ. eigenvalues --   -0.46781  -0.46550  -0.46420  -0.46204  -0.46013
 Alpha  occ. eigenvalues --   -0.45927  -0.45845  -0.45749  -0.45449  -0.44928
 Alpha  occ. eigenvalues --   -0.44871  -0.44542  -0.44206  -0.44001  -0.43851
 Alpha  occ. eigenvalues --   -0.43509  -0.43393  -0.43237  -0.42986  -0.42795
 Alpha  occ. eigenvalues --   -0.42682  -0.42588  -0.42425  -0.42238  -0.42131
 Alpha  occ. eigenvalues --   -0.41817  -0.41733  -0.41379  -0.40961  -0.40821
 Alpha  occ. eigenvalues --   -0.40681  -0.40520  -0.40186  -0.40015  -0.39940
 Alpha  occ. eigenvalues --   -0.39719  -0.39500  -0.39427  -0.38949  -0.38932
 Alpha  occ. eigenvalues --   -0.38822  -0.38724  -0.38630  -0.38489  -0.38386
 Alpha  occ. eigenvalues --   -0.38011  -0.37940  -0.37839  -0.37393  -0.37311
 Alpha  occ. eigenvalues --   -0.37126  -0.37046  -0.36756  -0.36633  -0.36166
 Alpha  occ. eigenvalues --   -0.36090  -0.35354  -0.35133  -0.34814  -0.34592
 Alpha  occ. eigenvalues --   -0.34118  -0.34017  -0.33960  -0.33891  -0.33589
 Alpha  occ. eigenvalues --   -0.33259  -0.33254  -0.32964  -0.32572  -0.32317
 Alpha  occ. eigenvalues --   -0.32191  -0.31037  -0.30976  -0.30660  -0.30353
 Alpha  occ. eigenvalues --   -0.29868  -0.29715  -0.29386  -0.28756  -0.28414
 Alpha  occ. eigenvalues --   -0.28044  -0.26670  -0.25470  -0.25029  -0.22068
 Alpha  occ. eigenvalues --   -0.20450
 Alpha virt. eigenvalues --   -0.07029  -0.04351  -0.00537   0.00573   0.01732
 Alpha virt. eigenvalues --    0.04309   0.04545   0.04628   0.05308   0.05381
 Alpha virt. eigenvalues --    0.06137   0.08580   0.08961   0.09106   0.09240

 Mulliken charges:
               1
     1  Mg   0.832122
     2  C    0.096352
     3  C   -0.156324
     4  C   -0.120008
     5  C   -0.169906
     6  N   -0.623265
     7  C    0.295118
     8  C   -0.133687
     9  C   -0.141460
    10  C    0.333123
    11  C   -0.323772
    12  C   -0.184264
    13  C   -0.260816
    14  C    0.579512
    15  O   -0.464225
    16  O   -0.481939
    17  N   -0.694486
    18  C    0.252482
    19  C    0.017423
    20  C    0.016870
    21  C    0.349107
    22  C   -0.356378
    23  C   -0.092135
    24  C   -0.240659
    25  N   -0.686837
    26  C    0.270091
    27  C    0.021994
    28  C    0.046216
    29  C    0.304387
    30  C   -0.383237
    31  C   -0.255323
    32  C   -0.304084
    33  N   -0.754739
    34  C    0.251701
    35  C    0.024101
    36  C   -0.029395
    37  C    0.261692
    38  C   -0.357553
    39  C    0.400928
    40  O   -0.417586
    41  C   -0.323848
    42  C    0.626305
    43  O   -0.486784
    44  O   -0.505050
    45  C   -0.058247
    46  C    0.063150
    47  C   -0.154660
    48  C    0.116112
    49  C   -0.346293
    50  C   -0.205729
    51  C   -0.171894
    52  C   -0.164838
    53  C   -0.044841
    54  C   -0.302941
    55  C   -0.160826
    56  C   -0.194287
    57  C   -0.153709
    58  C   -0.046923
    59  C   -0.288720
    60  C   -0.166817
    61  C   -0.203014
    62  C   -0.147913
    63  C   -0.036167
    64  C   -0.289961
    65  C   -0.288855
    66  H    0.039073
    67  H    0.040414
    68  H    0.082013
    69  H    0.111645
    70  H    0.107252
    71  H    0.107413
    72  H    0.113732
    73  H    0.141874
    74  H    0.116369
    75  H    0.110410
    76  H    0.135417
    77  H    0.140584
    78  H    0.128551
    79  H    0.121021
    80  H    0.109615
    81  H    0.087211
    82  H    0.112477
    83  H    0.098814
    84  H    0.134338
    85  H    0.112638
    86  H    0.126590
    87  H    0.079209
    88  H    0.094114
    89  H    0.106445
    90  H    0.106731
    91  H    0.103639
    92  H    0.142089
    93  H    0.143088
    94  H    0.132887
    95  H    0.180356
    96  H    0.087060
    97  H    0.131668
    98  H    0.115805
    99  H    0.113304
   100  H    0.112801
   101  H    0.094826
   102  H    0.120512
   103  H    0.097845
   104  H    0.129786
   105  H    0.079171
   106  H    0.093110
   107  H    0.105608
   108  H    0.076708
   109  H    0.054193
   110  H    0.088754
   111  H    0.076693
   112  H    0.094275
   113  H    0.116164
   114  H    0.095573
   115  H    0.080975
   116  H    0.075279
   117  H    0.082414
   118  H    0.080929
   119  H    0.094672
   120  H    0.096868
   121  H    0.072402
   122  H    0.059088
   123  H    0.099613
   124  H    0.115509
   125  H    0.077547
   126  H    0.098914
   127  H    0.092299
   128  H    0.056730
   129  H    0.076991
   130  H    0.097139
   131  H    0.037622
   132  H    0.102749
   133  H    0.081334
   134  H    0.111431
   135  H    0.095386
   136  H    0.088660
   137  H    0.091192
 Sum of Mulliken charges =  -0.00000

 Dipole moment (field-independent basis, Debye):
    X=             -0.1901    Y=              4.8563    Z=             -0.9009  Tot=              4.9428
 Quadrupole moment (field-independent basis, Debye-Ang):
   XX=           -362.1452   YY=           -398.5752   ZZ=           -397.6885
   XY=            -25.0320   XZ=             18.1240   YZ=              3.5712

 Normal termination of Gaussian 16 at Sat Sep 14 23:26:36 2019.
