 Gaussian 09, Revision D.01,
 Gaussian 09:  ES64L-G09RevD.01 24-Apr-2013

 -------------------------------------
 # td=(NStates=1) CAM-B3LYP/6-31G(d,p)
 -------------------------------------

 --
 TD
 --
 Symbolic Z-matrix:
 Charge =  0 Multiplicity = 1

                         Standard orientation:
 ---------------------------------------------------------------------
 Center     Atomic      Atomic             Coordinates (Angstroms)
 Number     Number       Type             X           Y           Z
 ---------------------------------------------------------------------
      1         12           0       -7.140322    0.520488    0.012190
      2          6           0       -4.833717   -1.866590    0.522311
      3          6           0       -4.902232    2.887881    1.095936
      4          6           0       -9.466647    3.016868   -0.367239
      5          6           0       -9.514198   -1.839153   -0.943898
      6          7           0       -5.040700    0.468982    0.718928
      7          6           0       -4.316360   -0.642785    0.778666
      8          6           0       -2.917086   -0.261663    1.213192
      9          6           0       -3.010435    1.198694    1.679525
     10          6           0       -4.394179    1.579924    1.046268
     11          6           0       -2.960810    1.347140    3.129569
     12          6           0       -1.907207   -0.570371    0.110745
     13          6           0       -0.415479   -0.321675    0.527522
     14          6           0        0.576389   -0.537293   -0.596692
     15          8           0        0.295207   -0.899268   -1.714335
     16          8           0        1.809394   -0.266354   -0.213492
     17          7           0       -7.172286    2.652925    0.293231
     18          6           0       -6.147941    3.381164    0.653821
     19          6           0       -6.471296    4.837981    0.737211
     20          6           0       -7.786849    4.863054    0.387326
     21          6           0       -8.249867    3.457545    0.068513
     22          6           0       -5.571733    5.961200    1.126717
     23          6           0       -8.662252    5.919545    0.228327
     24          6           0       -8.634361    7.129920    0.841648
     25          7           0       -9.141757    0.554737   -0.501489
     26          6           0       -9.883044    1.636260   -0.650611
     27          6           0      -11.182638    1.318373   -1.155776
     28          6           0      -11.276865   -0.041157   -1.341888
     29          6           0       -9.981630   -0.572487   -0.797731
     30          6           0      -12.290815    2.372844   -1.467280
     31          6           0      -12.337085   -0.864823   -1.768465
     32          6           0      -12.350935   -1.186894   -3.203234
     33          7           0       -7.214122   -1.430485   -0.131458
     34          6           0       -8.250432   -2.287150   -0.626847
     35          6           0       -7.794758   -3.675787   -0.435657
     36          6           0       -6.436533   -3.579049   -0.094859
     37          6           0       -6.117530   -2.199568    0.107920
     38          6           0       -8.551739   -4.918014   -0.828316
     39          6           0       -5.217414   -4.427510    0.228385
     40          8           0       -4.992654   -5.551333    0.190981
     41          6           0       -4.115743   -3.276777    0.580674
     42          6           0       -3.520759   -3.610241    2.001913
     43          8           0       -3.773822   -3.086828    3.039433
     44          8           0       -2.757428   -4.656418    1.819496
     45          6           0       -2.047084   -5.107819    3.052748
     46          6           0        2.857782   -0.534208   -1.222201
     47          6           0        4.205790   -0.357114   -0.573105
     48          6           0        5.183466    0.530453   -0.880803
     49          6           0        5.143337    1.463856   -2.094592
     50          6           0        6.452061    0.547995   -0.111867
     51          6           0        7.599734   -0.268860   -0.898396
     52          6           0        8.940697   -0.195208   -0.153749
     53          6           0       10.198305   -0.762586   -0.861605
     54          6           0       10.057603   -2.161317   -1.074331
     55          6           0       11.526471   -0.507247   -0.125366
     56          6           0       12.789286   -0.588501   -0.744083
     57          6           0       13.937306   -0.170395    0.177906
     58          6           0       15.321823   -0.159706   -0.545587
     59          6           0       15.750965   -1.621382   -0.893928
     60          6           0       16.371031    0.430237    0.390797
     61          6           0       17.760423    0.545239   -0.157290
     62          6           0       18.730220    1.263185    0.739759
     63          6           0       20.219553    1.410277    0.191206
     64          6           0       20.183704    2.082395   -1.192089
     65          6           0       21.160640    1.930696    1.212865
     66          1           0       -4.144696    3.554907    1.417547
     67          1           0      -10.203986    3.792748   -0.499256
     68          1           0      -10.197784   -2.511216   -1.388283
     69          1           0       -2.719666   -0.886967    1.923391
     70          1           0       -2.159263    1.785289    1.057458
     71          1           0       -1.777044    1.171806    3.408897
     72          1           0       -3.222404    2.392291    3.231310
     73          1           0       -3.785886    0.763974    3.557762
     74          1           0       -1.930338   -1.654530   -0.146255
     75          1           0       -2.256220    0.018981   -0.739576
     76          1           0       -0.320447    0.727041    0.749081
     77          1           0       -0.049764   -0.874483    1.422294
     78          1           0       -5.975249    6.862093    0.593334
     79          1           0       -5.521785    6.053867    2.252663
     80          1           0       -4.506875    5.895837    0.756887
     81          1           0       -9.596624    5.778843   -0.683220
     82          1           0       -9.288396    8.101015    0.773962
     83          1           0       -7.816623    7.127949    1.604573
     84          1           0      -11.995092    2.931897   -2.357877
     85          1           0      -13.266119    1.809803   -1.837360
     86          1           0      -12.575275    3.071663   -0.700723
     87          1           0      -12.405822   -1.722004   -1.217407
     88          1           0      -13.435087   -0.465414   -1.427228
     89          1           0      -13.135450   -1.788149   -3.656331
     90          1           0      -12.180150   -0.377192   -3.861017
     91          1           0      -11.460164   -1.810122   -3.259410
     92          1           0       -8.935864   -4.903274   -1.952186
     93          1           0       -7.951348   -5.980200   -0.668926
     94          1           0       -9.568490   -4.927920   -0.325433
     95          1           0       -3.294598   -3.445774   -0.131344
     96          1           0       -1.075234   -4.413090    3.305081
     97          1           0       -2.780630   -5.325310    3.889635
     98          1           0       -1.435534   -6.020088    2.814260
     99          1           0        2.848285   -1.467639   -1.753425
    100          1           0        2.614841    0.396962   -1.921447
    101          1           0        4.477238   -0.922306    0.335114
    102          1           0        4.004698    1.474316   -2.469844
    103          1           0        5.625941    2.472756   -1.814224
    104          1           0        5.842120    1.196654   -3.078829
    105          1           0        6.780767    1.641244    0.329553
    106          1           0        6.166546   -0.016401    0.824125
    107          1           0        7.353553   -1.365873   -1.237844
    108          1           0        7.664939    0.311509   -1.846939
    109          1           0        9.139997    0.899135   -0.071910
    110          1           0        8.712303   -0.749386    0.696007
    111          1           0       10.389632   -0.186240   -1.927274
    112          1           0        8.847929   -2.231652   -1.463909
    113          1           0       10.827341   -2.556740   -1.673067
    114          1           0       10.250835   -2.843515   -0.171812
    115          1           0       11.494202    0.518057    0.263259
    116          1           0       11.524953   -0.998923    0.883166
    117          1           0       12.899864   -1.787058   -1.008902
    118          1           0       12.774089    0.119607   -1.675884
    119          1           0       13.644055    0.829828    0.596993
    120          1           0       14.056724   -0.768042    1.047030
    121          1           0       15.139230    0.216130   -1.415077
    122          1           0       15.790393   -2.212903    0.027359
    123          1           0       14.995063   -1.896855   -1.226634
    124          1           0       16.811795   -1.816288   -1.152833
    125          1           0       16.120584    1.356024    0.955200
    126          1           0       16.299030   -0.423239    1.260831
    127          1           0       18.092600   -0.487426   -0.507476
    128          1           0       17.793216    1.123901   -1.108436
    129          1           0       18.375889    2.271938    1.051286
    130          1           0       18.698337    0.819810    1.692983
    131          1           0       20.490881    0.333306    0.236616
    132          1           0       19.671011    3.153309   -1.201656
    133          1           0       21.149617    2.394151   -1.535442
    134          1           0       19.764277    1.466494   -2.114305
    135          1           0       21.219228    1.479867    2.194668
    136          1           0       22.083364    2.156890    0.965211
    137          1           0       20.859290    3.080568    1.190128
 ---------------------------------------------------------------------

 SCF Done:  E(RCAM-B3LYP) =  -2932.65277081     A.U. after   17 cycles

 Excitation energies and oscillator strengths:

 Excited State   1:      Singlet-A      2.2512 eV  550.75 nm  f=0.1978  <S**2>=0.000
     240 -> 242       -0.23960
     240 -> 243        0.23812
     241 -> 242        0.57170
     241 -> 243        0.22354
 This state for optimization and/or second-order correction.
 Total Energy, E(TD-HF/TD-KS) =  -2932.57004098
 Copying the excited state density for this state as the 1-particle RhoCI density.

 The electronic state is 1-A.
 Alpha  occ. eigenvalues --  -46.84892 -19.26684 -19.26394 -19.21090 -19.20220
 Alpha  occ. eigenvalues --  -19.19917 -14.40909 -14.39681 -14.39453 -14.38896
 Alpha  occ. eigenvalues --  -10.38436 -10.38298 -10.35087 -10.33503 -10.33393
 Alpha  occ. eigenvalues --  -10.30753 -10.30499 -10.29716 -10.29490 -10.29266
 Alpha  occ. eigenvalues --  -10.28886 -10.28636 -10.28468 -10.28373 -10.28239
 Alpha  occ. eigenvalues --  -10.28231 -10.28155 -10.28135 -10.28029 -10.27935
 Alpha  occ. eigenvalues --  -10.27808 -10.27720 -10.27666 -10.27630 -10.27459
 Alpha  occ. eigenvalues --  -10.27384 -10.27340 -10.26849 -10.26848 -10.26844
 Alpha  occ. eigenvalues --  -10.26679 -10.26602 -10.26568 -10.26506 -10.26504
 Alpha  occ. eigenvalues --  -10.26415 -10.26353 -10.26093 -10.26024 -10.25910
 Alpha  occ. eigenvalues --  -10.25696 -10.25645 -10.25257 -10.25209 -10.25148
 Alpha  occ. eigenvalues --  -10.25050 -10.24874 -10.24808 -10.24772 -10.24413
 Alpha  occ. eigenvalues --  -10.24185 -10.24182 -10.24128 -10.23898 -10.21920
 Alpha  occ. eigenvalues --   -3.13797  -1.88512  -1.88025  -1.87966  -1.18879
 Alpha  occ. eigenvalues --   -1.18687  -1.15205  -1.09526  -1.08671  -1.05400
 Alpha  occ. eigenvalues --   -1.04649  -1.02651  -1.01369  -0.92181  -0.91158
 Alpha  occ. eigenvalues --   -0.91031  -0.90497  -0.90267  -0.90069  -0.90052
 Alpha  occ. eigenvalues --   -0.88706  -0.88017  -0.87436  -0.86445  -0.86073
 Alpha  occ. eigenvalues --   -0.85517  -0.84307  -0.83391  -0.83204  -0.82722
 Alpha  occ. eigenvalues --   -0.82391  -0.81052  -0.80802  -0.79941  -0.78258
 Alpha  occ. eigenvalues --   -0.77771  -0.76978  -0.76553  -0.76048  -0.75530
 Alpha  occ. eigenvalues --   -0.75129  -0.74512  -0.74469  -0.72998  -0.71917
 Alpha  occ. eigenvalues --   -0.71536  -0.70375  -0.70204  -0.68975  -0.67946
 Alpha  occ. eigenvalues --   -0.66866  -0.66637  -0.65176  -0.65103  -0.64805
 Alpha  occ. eigenvalues --   -0.64021  -0.63751  -0.63229  -0.62938  -0.61910
 Alpha  occ. eigenvalues --   -0.61661  -0.60630  -0.59629  -0.58936  -0.58741
 Alpha  occ. eigenvalues --   -0.58481  -0.57756  -0.56947  -0.56897  -0.56171
 Alpha  occ. eigenvalues --   -0.55865  -0.55721  -0.55569  -0.55382  -0.55131
 Alpha  occ. eigenvalues --   -0.54675  -0.54667  -0.54126  -0.53731  -0.53596
 Alpha  occ. eigenvalues --   -0.53346  -0.53011  -0.52372  -0.51826  -0.51760
 Alpha  occ. eigenvalues --   -0.51566  -0.51017  -0.50824  -0.50694  -0.50594
 Alpha  occ. eigenvalues --   -0.50422  -0.50349  -0.49978  -0.49761  -0.49678
 Alpha  occ. eigenvalues --   -0.49427  -0.49261  -0.49224  -0.48953  -0.48642
 Alpha  occ. eigenvalues --   -0.48310  -0.48112  -0.47403  -0.47191  -0.47052
 Alpha  occ. eigenvalues --   -0.46789  -0.46694  -0.46543  -0.46077  -0.45933
 Alpha  occ. eigenvalues --   -0.45896  -0.45668  -0.45592  -0.45375  -0.45185
 Alpha  occ. eigenvalues --   -0.44971  -0.44850  -0.44466  -0.44319  -0.43980
 Alpha  occ. eigenvalues --   -0.43873  -0.43736  -0.43647  -0.43484  -0.43256
 Alpha  occ. eigenvalues --   -0.43223  -0.42888  -0.42683  -0.42478  -0.42039
 Alpha  occ. eigenvalues --   -0.41922  -0.41901  -0.41686  -0.41521  -0.41476
 Alpha  occ. eigenvalues --   -0.41375  -0.41056  -0.40688  -0.40525  -0.40457
 Alpha  occ. eigenvalues --   -0.40265  -0.40077  -0.39735  -0.39641  -0.39113
 Alpha  occ. eigenvalues --   -0.39019  -0.38590  -0.38117  -0.37968  -0.37921
 Alpha  occ. eigenvalues --   -0.37588  -0.37339  -0.37030  -0.36668  -0.36643
 Alpha  occ. eigenvalues --   -0.36337  -0.35954  -0.35725  -0.35651  -0.35591
 Alpha  occ. eigenvalues --   -0.34867  -0.34678  -0.33805  -0.33393  -0.33199
 Alpha  occ. eigenvalues --   -0.33143  -0.32675  -0.32242  -0.30956  -0.29855
 Alpha  occ. eigenvalues --   -0.29417  -0.29007  -0.28074  -0.27852  -0.23125
 Alpha  occ. eigenvalues --   -0.21125
 Alpha virt. eigenvalues --   -0.05464  -0.03029   0.02221   0.04485   0.04906
 Alpha virt. eigenvalues --    0.05453   0.07080   0.07449   0.07758   0.08327
 Alpha virt. eigenvalues --    0.08435   0.10543   0.10735   0.10962   0.11397

 Mulliken charges:
               1
     1  Mg   0.832494
     2  C    0.086596
     3  C   -0.196644
     4  C   -0.184243
     5  C   -0.158320
     6  N   -0.636186
     7  C    0.302976
     8  C   -0.122876
     9  C   -0.154370
    10  C    0.307797
    11  C   -0.274800
    12  C   -0.172674
    13  C   -0.276209
    14  C    0.603893
    15  O   -0.483024
    16  O   -0.472228
    17  N   -0.698809
    18  C    0.321417
    19  C    0.050871
    20  C    0.038350
    21  C    0.330626
    22  C   -0.386746
    23  C   -0.091305
    24  C   -0.272116
    25  N   -0.691314
    26  C    0.345475
    27  C    0.001769
    28  C    0.065847
    29  C    0.232026
    30  C   -0.374640
    31  C   -0.266021
    32  C   -0.308134
    33  N   -0.759957
    34  C    0.246343
    35  C    0.035686
    36  C   -0.040374
    37  C    0.306628
    38  C   -0.379887
    39  C    0.388151
    40  O   -0.391932
    41  C   -0.353565
    42  C    0.610134
    43  O   -0.471293
    44  O   -0.428415
    45  C   -0.092599
    46  C    0.014236
    47  C   -0.134264
    48  C    0.138050
    49  C   -0.341899
    50  C   -0.235272
    51  C   -0.190732
    52  C   -0.159800
    53  C   -0.040153
    54  C   -0.277659
    55  C   -0.173189
    56  C   -0.156686
    57  C   -0.184892
    58  C   -0.065538
    59  C   -0.277957
    60  C   -0.154232
    61  C   -0.165068
    62  C   -0.179505
    63  C   -0.042957
    64  C   -0.322378
    65  C   -0.306581
    66  H    0.071415
    67  H    0.085197
    68  H    0.092853
    69  H    0.109575
    70  H    0.081415
    71  H    0.095278
    72  H    0.109187
    73  H    0.136061
    74  H    0.115953
    75  H    0.115545
    76  H    0.133030
    77  H    0.132267
    78  H    0.129034
    79  H    0.131032
    80  H    0.118841
    81  H    0.066236
    82  H    0.120741
    83  H    0.098946
    84  H    0.123427
    85  H    0.098411
    86  H    0.125750
    87  H    0.121504
    88  H    0.076104
    89  H    0.106461
    90  H    0.118136
    91  H    0.100913
    92  H    0.112817
    93  H    0.130366
    94  H    0.118333
    95  H    0.153121
    96  H    0.105094
    97  H    0.151134
    98  H    0.129379
    99  H    0.152478
   100  H    0.116927
   101  H    0.089840
   102  H    0.093649
   103  H    0.109030
   104  H    0.102211
   105  H    0.090580
   106  H    0.092492
   107  H    0.098678
   108  H    0.098041
   109  H    0.092721
   110  H    0.106970
   111  H    0.053181
   112  H    0.058169
   113  H    0.110795
   114  H    0.089020
   115  H    0.074498
   116  H    0.081033
   117  H    0.065720
   118  H    0.084731
   119  H    0.086715
   120  H    0.098555
   121  H    0.092584
   122  H    0.082943
   123  H    0.080911
   124  H    0.110009
   125  H    0.082151
   126  H    0.057509
   127  H    0.078331
   128  H    0.095341
   129  H    0.079564
   130  H    0.088850
   131  H    0.088764
   132  H    0.090092
   133  H    0.106604
   134  H    0.104423
   135  H    0.110621
   136  H    0.116321
   137  H    0.063476
 Sum of Mulliken charges =   0.00000

 Dipole moment (field-independent basis, Debye):
    X=              2.7666    Y=              4.2277    Z=              0.5531  Tot=              5.0826
 Quadrupole moment (field-independent basis, Debye-Ang):
   XX=           -344.3388   YY=           -385.5614   ZZ=           -399.9027
   XY=            -17.5156   XZ=             16.2187   YZ=             -3.7828

 Normal termination of Gaussian 09 at Fri Jul  5 12:32:35 2019.
