 Gaussian 16, Revision A.03,
 Gaussian 16:  ES64L-G16RevA.03 25-Dec-2016

 ----------------------------------------------------------------------
 # td=(NStates=1) iop(3/107=0140000000,3/108=0140000000) CAM-B3LYP/6-31
 G(d,p)
 ----------------------------------------------------------------------

 --
 TD
 --
 Symbolic Z-matrix:
 Charge =  0 Multiplicity = 1

                         Standard orientation:
 ---------------------------------------------------------------------
 Center     Atomic      Atomic             Coordinates (Angstroms)
 Number     Number       Type             X           Y           Z
 ---------------------------------------------------------------------
      1         12           0       -7.020120    0.658633    0.100850
      2          6           0       -4.836920   -2.014584    0.625308
      3          6           0       -4.696925    2.758454    1.170761
      4          6           0       -9.286680    3.136732   -0.389691
      5          6           0       -9.516210   -1.628327   -1.042643
      6          7           0       -5.085116    0.371739    0.788860
      7          6           0       -4.339975   -0.725494    0.926203
      8          6           0       -2.882884   -0.481543    1.314217
      9          6           0       -2.981237    1.045343    1.778545
     10          6           0       -4.363953    1.410710    1.259564
     11          6           0       -2.984621    1.132793    3.320281
     12          6           0       -1.914932   -0.679723    0.129940
     13          6           0       -0.478406   -0.644444    0.510766
     14          6           0        0.472906   -0.860888   -0.564512
     15          8           0        0.192859   -1.208655   -1.735770
     16          8           0        1.729215   -0.577807   -0.125079
     17          7           0       -6.992789    2.637406    0.293578
     18          6           0       -5.965137    3.383165    0.766795
     19          6           0       -6.253681    4.808870    0.781936
     20          6           0       -7.607156    4.934458    0.344470
     21          6           0       -7.981569    3.528931    0.033796
     22          6           0       -5.322970    5.961546    1.234944
     23          6           0       -8.494225    6.027771    0.093706
     24          6           0       -8.475465    7.246223    0.699936
     25          7           0       -9.037095    0.692272   -0.616285
     26          6           0       -9.760134    1.923642   -0.731835
     27          6           0      -11.144490    1.499688   -1.054008
     28          6           0      -11.258406    0.184568   -1.154118
     29          6           0       -9.922812   -0.292523   -0.923649
     30          6           0      -12.236658    2.499412   -1.417679
     31          6           0      -12.314782   -0.693100   -1.672333
     32          6           0      -12.115007   -1.110503   -3.124594
     33          7           0       -7.077891   -1.331393   -0.112817
     34          6           0       -8.163077   -2.180647   -0.516016
     35          6           0       -7.743113   -3.508059   -0.593980
     36          6           0       -6.409956   -3.529428   -0.241303
     37          6           0       -6.105933   -2.162017    0.118945
     38          6           0       -8.730649   -4.646529   -0.966228
     39          6           0       -5.270433   -4.324384   -0.040423
     40          8           0       -4.973995   -5.612985   -0.062291
     41          6           0       -4.173895   -3.325577    0.463179
     42          6           0       -3.656431   -3.793386    1.846714
     43          8           0       -3.913506   -3.293542    3.008048
     44          8           0       -2.885879   -4.843491    1.680507
     45          6           0       -2.151391   -5.334870    2.902183
     46          6           0        2.777043   -0.562195   -1.278908
     47          6           0        4.084086   -0.471457   -0.564741
     48          6           0        5.105272    0.320253   -1.043501
     49          6           0        5.051465    1.209593   -2.315556
     50          6           0        6.355391    0.396934   -0.190170
     51          6           0        7.613790   -0.063673   -0.950711
     52          6           0        8.818031    0.060383   -0.047341
     53          6           0       10.067923   -0.380093   -0.819639
     54          6           0        9.997686   -1.844023   -1.260733
     55          6           0       11.309517   -0.247392    0.074871
     56          6           0       12.723521   -0.424956   -0.610060
     57          6           0       13.935579   -0.020634    0.377820
     58          6           0       15.281942   -0.266619   -0.396744
     59          6           0       15.497098   -1.711259   -0.761463
     60          6           0       16.386587    0.331983    0.516874
     61          6           0       17.699138    0.468026   -0.196366
     62          6           0       18.663751    1.332059    0.660304
     63          6           0       20.047692    1.246924    0.046954
     64          6           0       20.247169    2.139611   -1.150449
     65          6           0       21.097661    1.860852    1.182733
     66          1           0       -4.217262    3.452055    1.707184
     67          1           0      -10.052085    3.841832   -0.497474
     68          1           0      -10.290397   -2.204595   -1.272285
     69          1           0       -2.460411   -1.054677    2.293336
     70          1           0       -2.262225    1.718590    1.221571
     71          1           0       -2.029885    0.967950    3.609323
     72          1           0       -3.422846    2.193063    3.800296
     73          1           0       -3.542233    0.214745    3.546620
     74          1           0       -1.981803   -1.652409   -0.380374
     75          1           0       -2.104207    0.098584   -0.638548
     76          1           0       -0.108898    0.282749    1.214327
     77          1           0       -0.366445   -1.477089    1.199471
     78          1           0       -5.720915    6.790841    0.715981
     79          1           0       -5.360413    6.052029    2.517263
     80          1           0       -4.290956    5.637903    1.097534
     81          1           0       -9.271812    5.722197   -0.680637
     82          1           0       -9.103850    8.058195    0.532850
     83          1           0       -7.584124    7.328798    1.362713
     84          1           0      -11.971616    3.298846   -2.163424
     85          1           0      -13.052700    1.867837   -1.700023
     86          1           0      -12.734809    2.900671   -0.363843
     87          1           0      -12.322114   -1.669962   -0.951728
     88          1           0      -13.227299   -0.312247   -1.549937
     89          1           0      -12.910256   -1.787506   -3.278112
     90          1           0      -12.208848   -0.272095   -3.720191
     91          1           0      -11.320267   -1.619232   -3.320765
     92          1           0       -9.049625   -4.683670   -2.015153
     93          1           0       -8.117838   -5.611092   -0.767054
     94          1           0       -9.521783   -4.787714   -0.249956
     95          1           0       -3.410422   -3.399769   -0.366432
     96          1           0       -1.751317   -4.574365    3.718756
     97          1           0       -3.005872   -6.166794    3.477833
     98          1           0       -1.576944   -6.065607    2.352454
     99          1           0        2.720565   -1.517694   -1.889181
    100          1           0        2.702190    0.415157   -1.972815
    101          1           0        4.236476   -0.763387    0.424493
    102          1           0        4.212032    1.331173   -2.872483
    103          1           0        5.342056    2.094780   -1.966972
    104          1           0        5.819132    1.102921   -3.050977
    105          1           0        6.522811    1.471502    0.042438
    106          1           0        6.243703   -0.147485    0.734582
    107          1           0        7.438326   -1.163867   -1.223824
    108          1           0        7.799384    0.679657   -1.816496
    109          1           0        9.088586    1.077428    0.441314
    110          1           0        8.881220   -0.720953    0.683870
    111          1           0       10.326912    0.232395   -1.713388
    112          1           0        8.900464   -2.114222   -1.765700
    113          1           0       10.672709   -2.146721   -2.143352
    114          1           0       10.000293   -2.242628   -0.395353
    115          1           0       11.313028    0.737096    0.634051
    116          1           0       11.270951   -0.736694    0.905575
    117          1           0       12.647176   -1.399733   -0.970730
    118          1           0       12.744279    0.102911   -1.406568
    119          1           0       13.834796    0.880642    0.659236
    120          1           0       13.767059   -0.782044    1.095857
    121          1           0       15.263201    0.537574   -1.316616
    122          1           0       15.588230   -2.290945    0.140157
    123          1           0       14.761015   -2.246178   -1.340886
    124          1           0       16.324529   -1.882067   -1.458471
    125          1           0       15.926559    1.462156    0.894382
    126          1           0       16.554824   -0.293685    1.375162
    127          1           0       18.276370   -0.257575   -0.694396
    128          1           0       17.382392    1.245815   -1.173644
    129          1           0       18.263043    2.449283    0.789176
    130          1           0       18.652430    0.856572    1.680156
    131          1           0       20.348892    0.244947   -0.289173
    132          1           0       19.893596    3.216970   -1.227809
    133          1           0       21.289629    2.151484   -1.557481
    134          1           0       19.586899    1.829798   -2.103381
    135          1           0       21.072732    1.101160    2.118704
    136          1           0       22.038463    1.773400    0.899004
    137          1           0       20.888858    2.897486    1.598997
 ---------------------------------------------------------------------

 SCF Done:  E(RCAM-B3LYP) =  -2933.42892663     A.U. after   16 cycles

 Excitation energies and oscillator strengths:

 Excited State   1:      Singlet-A      1.9083 eV  649.72 nm  f=0.3284  <S**2>=0.000
     240 -> 243       -0.21101
     241 -> 242        0.66622
 This state for optimization and/or second-order correction.
 Total Energy, E(TD-HF/TD-DFT) =  -2933.35879914
 Copying the excited state density for this state as the 1-particle RhoCI density.

 The electronic state is 1-A.
 Alpha  occ. eigenvalues --  -46.80113 -19.22335 -19.22011 -19.16111 -19.15171
 Alpha  occ. eigenvalues --  -19.14413 -14.38202 -14.35931 -14.35201 -14.34941
 Alpha  occ. eigenvalues --  -10.34123 -10.33999 -10.29508 -10.29496 -10.28979
 Alpha  occ. eigenvalues --  -10.26508 -10.26123 -10.25713 -10.25710 -10.25644
 Alpha  occ. eigenvalues --  -10.24622 -10.24540 -10.24131 -10.23891 -10.23775
 Alpha  occ. eigenvalues --  -10.23609 -10.23588 -10.23545 -10.23509 -10.23495
 Alpha  occ. eigenvalues --  -10.23437 -10.23396 -10.23119 -10.23072 -10.22811
 Alpha  occ. eigenvalues --  -10.22697 -10.22549 -10.22438 -10.22438 -10.22297
 Alpha  occ. eigenvalues --  -10.22280 -10.22083 -10.22076 -10.22071 -10.22026
 Alpha  occ. eigenvalues --  -10.21832 -10.21723 -10.21496 -10.21495 -10.21455
 Alpha  occ. eigenvalues --  -10.21261 -10.21162 -10.21135 -10.21134 -10.21116
 Alpha  occ. eigenvalues --  -10.20904 -10.20800 -10.20524 -10.20406 -10.20155
 Alpha  occ. eigenvalues --  -10.19919 -10.19257 -10.18998 -10.18883 -10.18360
 Alpha  occ. eigenvalues --   -3.08795  -1.83728  -1.83255  -1.83225  -1.11695
 Alpha  occ. eigenvalues --   -1.10444  -1.01725  -1.00851  -0.99725  -0.99586
 Alpha  occ. eigenvalues --   -0.98974  -0.98433  -0.96946  -0.87516  -0.86380
 Alpha  occ. eigenvalues --   -0.85519  -0.85101  -0.85003  -0.84461  -0.84237
 Alpha  occ. eigenvalues --   -0.83568  -0.82798  -0.82717  -0.82110  -0.81095
 Alpha  occ. eigenvalues --   -0.79996  -0.79376  -0.78551  -0.77974  -0.77605
 Alpha  occ. eigenvalues --   -0.76767  -0.75991  -0.75764  -0.75516  -0.73737
 Alpha  occ. eigenvalues --   -0.73238  -0.72666  -0.72289  -0.71338  -0.71195
 Alpha  occ. eigenvalues --   -0.70432  -0.69828  -0.69712  -0.69094  -0.68254
 Alpha  occ. eigenvalues --   -0.67804  -0.66506  -0.65907  -0.64626  -0.64162
 Alpha  occ. eigenvalues --   -0.63263  -0.61733  -0.61346  -0.60870  -0.60667
 Alpha  occ. eigenvalues --   -0.59519  -0.59135  -0.58994  -0.58021  -0.57658
 Alpha  occ. eigenvalues --   -0.57396  -0.56477  -0.56281  -0.55601  -0.55214
 Alpha  occ. eigenvalues --   -0.54847  -0.54132  -0.53786  -0.52629  -0.52508
 Alpha  occ. eigenvalues --   -0.51641  -0.51535  -0.51409  -0.51257  -0.50791
 Alpha  occ. eigenvalues --   -0.50244  -0.49569  -0.49445  -0.49161  -0.48969
 Alpha  occ. eigenvalues --   -0.48818  -0.48721  -0.48520  -0.48285  -0.48028
 Alpha  occ. eigenvalues --   -0.47863  -0.47696  -0.47227  -0.46834  -0.46763
 Alpha  occ. eigenvalues --   -0.46546  -0.46244  -0.46006  -0.45721  -0.45473
 Alpha  occ. eigenvalues --   -0.45459  -0.45402  -0.44875  -0.44756  -0.44659
 Alpha  occ. eigenvalues --   -0.44297  -0.44209  -0.43830  -0.43710  -0.43525
 Alpha  occ. eigenvalues --   -0.43461  -0.43207  -0.43076  -0.42809  -0.42721
 Alpha  occ. eigenvalues --   -0.42476  -0.42404  -0.41942  -0.41855  -0.41454
 Alpha  occ. eigenvalues --   -0.41080  -0.40976  -0.40888  -0.40674  -0.40481
 Alpha  occ. eigenvalues --   -0.40454  -0.40190  -0.39719  -0.39627  -0.39535
 Alpha  occ. eigenvalues --   -0.39272  -0.39126  -0.39023  -0.38877  -0.38787
 Alpha  occ. eigenvalues --   -0.38483  -0.38266  -0.38159  -0.38044  -0.38010
 Alpha  occ. eigenvalues --   -0.37891  -0.37392  -0.37304  -0.37078  -0.36899
 Alpha  occ. eigenvalues --   -0.36793  -0.36614  -0.36424  -0.36396  -0.36283
 Alpha  occ. eigenvalues --   -0.36189  -0.35882  -0.35750  -0.35619  -0.35047
 Alpha  occ. eigenvalues --   -0.34968  -0.34407  -0.34371  -0.33681  -0.33610
 Alpha  occ. eigenvalues --   -0.33476  -0.33005  -0.32866  -0.32745  -0.32511
 Alpha  occ. eigenvalues --   -0.32219  -0.30920  -0.30899  -0.30813  -0.29689
 Alpha  occ. eigenvalues --   -0.29406  -0.29217  -0.28560  -0.28521  -0.27282
 Alpha  occ. eigenvalues --   -0.26142  -0.26114  -0.25428  -0.25066  -0.21363
 Alpha  occ. eigenvalues --   -0.20121
 Alpha virt. eigenvalues --   -0.08093  -0.03346  -0.00882   0.01652   0.03009
 Alpha virt. eigenvalues --    0.03517   0.04318   0.04773   0.04985   0.05412
 Alpha virt. eigenvalues --    0.06235   0.08519   0.09099   0.09739   0.09994

 Mulliken charges:
               1
     1  Mg   0.816154
     2  C    0.117697
     3  C   -0.169675
     4  C   -0.168540
     5  C   -0.134290
     6  N   -0.611723
     7  C    0.308082
     8  C   -0.163525
     9  C   -0.153656
    10  C    0.333324
    11  C   -0.298246
    12  C   -0.163618
    13  C   -0.269864
    14  C    0.637471
    15  O   -0.503683
    16  O   -0.493693
    17  N   -0.690841
    18  C    0.279953
    19  C   -0.013188
    20  C    0.049868
    21  C    0.281348
    22  C   -0.348562
    23  C   -0.074562
    24  C   -0.254004
    25  N   -0.674816
    26  C    0.289595
    27  C   -0.008780
    28  C    0.097509
    29  C    0.280082
    30  C   -0.376098
    31  C   -0.256534
    32  C   -0.295958
    33  N   -0.713980
    34  C    0.218568
    35  C    0.011623
    36  C    0.118007
    37  C    0.295912
    38  C   -0.386871
    39  C    0.289123
    40  O   -0.522009
    41  C   -0.346230
    42  C    0.634616
    43  O   -0.526782
    44  O   -0.414552
    45  C   -0.086192
    46  C    0.009646
    47  C   -0.133159
    48  C    0.119344
    49  C   -0.383358
    50  C   -0.236183
    51  C   -0.159281
    52  C   -0.161314
    53  C   -0.077758
    54  C   -0.285725
    55  C   -0.192301
    56  C   -0.195168
    57  C   -0.156046
    58  C   -0.043115
    59  C   -0.324480
    60  C   -0.157413
    61  C   -0.156208
    62  C   -0.140742
    63  C   -0.058758
    64  C   -0.301874
    65  C   -0.312074
    66  H    0.063047
    67  H    0.076473
    68  H    0.064462
    69  H    0.104168
    70  H    0.104802
    71  H    0.120787
    72  H    0.090452
    73  H    0.137456
    74  H    0.125902
    75  H    0.115626
    76  H    0.113791
    77  H    0.144520
    78  H    0.132836
    79  H    0.088120
    80  H    0.125152
    81  H    0.087072
    82  H    0.113030
    83  H    0.095401
    84  H    0.126279
    85  H    0.114865
    86  H    0.095834
    87  H    0.082691
    88  H    0.107761
    89  H    0.107850
    90  H    0.118329
    91  H    0.122568
    92  H    0.128977
    93  H    0.131551
    94  H    0.134851
    95  H    0.162644
    96  H    0.151734
    97  H    0.095376
    98  H    0.146477
    99  H    0.147758
   100  H    0.116302
   101  H    0.092970
   102  H    0.118092
   103  H    0.130900
   104  H    0.122589
   105  H    0.093533
   106  H    0.100722
   107  H    0.104298
   108  H    0.089262
   109  H    0.090081
   110  H    0.091861
   111  H    0.072914
   112  H    0.061017
   113  H    0.105030
   114  H    0.113904
   115  H    0.055465
   116  H    0.090503
   117  H    0.097738
   118  H    0.097541
   119  H    0.092262
   120  H    0.097166
   121  H    0.056511
   122  H    0.106836
   123  H    0.109838
   124  H    0.103030
   125  H    0.060028
   126  H    0.094712
   127  H    0.107802
   128  H    0.042155
   129  H    0.083162
   130  H    0.085228
   131  H    0.096475
   132  H    0.100362
   133  H    0.098706
   134  H    0.068779
   135  H    0.065110
   136  H    0.112170
   137  H    0.103805
 Sum of Mulliken charges =  -0.00000

 Dipole moment (field-independent basis, Debye):
    X=              1.7076    Y=              5.3139    Z=             -0.1248  Tot=              5.5829
 Quadrupole moment (field-independent basis, Debye-Ang):
   XX=           -323.9824   YY=           -401.1125   ZZ=           -396.9247
   XY=            -32.0796   XZ=             16.2337   YZ=             -3.3019

 Normal termination of Gaussian 16 at Sat Sep  7 14:39:11 2019.
