 Gaussian 16, Revision A.03,
 Gaussian 16:  ES64L-G16RevA.03 25-Dec-2016

 ----------------------------------------------------------------------
 # td=(NStates=1) iop(3/107=0140000000,3/108=0140000000) CAM-B3LYP/6-31
 G(d,p)
 ----------------------------------------------------------------------

 --
 TD
 --
 Symbolic Z-matrix:
 Charge =  0 Multiplicity = 1

                         Standard orientation:
 ---------------------------------------------------------------------
 Center     Atomic      Atomic             Coordinates (Angstroms)
 Number     Number       Type             X           Y           Z
 ---------------------------------------------------------------------
      1         12           0       -7.084132    0.575590    0.125075
      2          6           0       -4.920172   -1.942149    0.509925
      3          6           0       -4.744958    2.848343    1.063714
      4          6           0       -9.360286    3.140741   -0.431259
      5          6           0       -9.600522   -1.716044   -0.857153
      6          7           0       -5.035293    0.410476    0.694755
      7          6           0       -4.333491   -0.723654    0.795267
      8          6           0       -2.915492   -0.423474    1.172704
      9          6           0       -2.940055    1.064058    1.704107
     10          6           0       -4.361784    1.527422    1.116676
     11          6           0       -2.913576    1.226655    3.228732
     12          6           0       -1.915186   -0.581958    0.068975
     13          6           0       -0.571464   -0.554935    0.573345
     14          6           0        0.529828   -0.717801   -0.520921
     15          8           0        0.290946   -1.034800   -1.716454
     16          8           0        1.728506   -0.467698   -0.138586
     17          7           0       -7.126249    2.634200    0.297717
     18          6           0       -6.085395    3.456907    0.765329
     19          6           0       -6.361447    4.864919    0.813215
     20          6           0       -7.651207    4.921117    0.265814
     21          6           0       -8.116487    3.531489    0.092701
     22          6           0       -5.421597    5.970779    1.179164
     23          6           0       -8.507180    6.145045    0.166901
     24          6           0       -8.368150    7.266584    0.797662
     25          7           0       -9.108247    0.714640   -0.630768
     26          6           0       -9.945913    1.864068   -0.687741
     27          6           0      -11.249704    1.529618   -1.222647
     28          6           0      -11.238791    0.170810   -1.172835
     29          6           0       -9.928023   -0.351801   -0.810495
     30          6           0      -12.319362    2.522216   -1.481026
     31          6           0      -12.385773   -0.696093   -1.690351
     32          6           0      -12.351821   -1.152920   -3.174341
     33          7           0       -7.263820   -1.402156   -0.164319
     34          6           0       -8.351795   -2.288851   -0.562605
     35          6           0       -7.902526   -3.602100   -0.543935
     36          6           0       -6.509939   -3.627155   -0.068816
     37          6           0       -6.274547   -2.222655    0.056118
     38          6           0       -8.694130   -4.764511   -0.740710
     39          6           0       -5.329003   -4.327532    0.250750
     40          8           0       -5.178736   -5.508410    0.091115
     41          6           0       -4.184155   -3.232747    0.561927
     42          6           0       -3.644202   -3.705589    1.844723
     43          8           0       -3.920250   -3.243319    2.962066
     44          8           0       -2.784835   -4.679788    1.689326
     45          6           0       -2.243065   -5.417893    2.843582
     46          6           0        2.781112   -0.720892   -1.188900
     47          6           0        4.085307   -0.520868   -0.453729
     48          6           0        5.128684    0.273482   -0.944636
     49          6           0        5.087230    1.016203   -2.242102
     50          6           0        6.456804    0.360082   -0.144889
     51          6           0        7.700522   -0.131181   -0.846474
     52          6           0        8.945484   -0.234449   -0.058547
     53          6           0       10.176542   -0.636722   -0.823022
     54          6           0       10.058704   -2.092963   -1.312803
     55          6           0       11.425161   -0.333352    0.069673
     56          6           0       12.826748   -0.514571   -0.642106
     57          6           0       13.941131   -0.235363    0.229189
     58          6           0       15.336794   -0.144323   -0.477071
     59          6           0       15.760973   -1.643544   -0.882359
     60          6           0       16.357521    0.621062    0.450267
     61          6           0       17.838286    0.593356   -0.139903
     62          6           0       18.833816    1.392035    0.703240
     63          6           0       20.360002    1.279066    0.180833
     64          6           0       20.502270    2.158755   -1.250054
     65          6           0       21.187618    2.014292    1.165550
     66          1           0       -3.775774    3.442205    1.365511
     67          1           0       -9.987158    3.937255   -0.835718
     68          1           0      -10.577809   -2.368364   -0.972761
     69          1           0       -2.418222   -1.121601    1.934849
     70          1           0       -2.326262    1.585879    1.183221
     71          1           0       -2.032327    0.771315    3.731741
     72          1           0       -3.031000    2.276629    3.564542
     73          1           0       -3.757606    0.519031    3.796088
     74          1           0       -2.268664   -1.430074   -0.477592
     75          1           0       -2.001614    0.334607   -0.674390
     76          1           0       -0.150691    0.294484    1.205170
     77          1           0       -0.353175   -1.151509    1.177368
     78          1           0       -5.582663    6.826911    0.766350
     79          1           0       -5.380225    6.219797    2.269226
     80          1           0       -4.288421    5.700755    1.023789
     81          1           0       -9.305649    6.002478   -0.488986
     82          1           0       -9.115423    8.046951    0.474862
     83          1           0       -7.499936    7.505138    1.460344
     84          1           0      -11.892132    3.118510   -2.246504
     85          1           0      -13.260838    2.026680   -1.826251
     86          1           0      -12.616931    3.105353   -0.597584
     87          1           0      -12.449869   -1.694451   -1.213250
     88          1           0      -13.266768   -0.177650   -1.567004
     89          1           0      -13.161202   -1.902149   -3.383895
     90          1           0      -12.503718   -0.386117   -3.851285
     91          1           0      -11.272908   -1.409541   -3.770180
     92          1           0       -9.393072   -4.268318   -1.590895
     93          1           0       -7.970772   -5.693630   -1.299806
     94          1           0       -9.353423   -5.056308    0.128707
     95          1           0       -3.321506   -3.425496   -0.043623
     96          1           0       -1.522223   -4.577094    3.324723
     97          1           0       -2.976601   -5.836202    3.289348
     98          1           0       -1.527587   -6.195259    2.526302
     99          1           0        2.636816   -1.710337   -1.423524
    100          1           0        2.286846   -0.230796   -2.080605
    101          1           0        4.152521   -0.902012    0.623429
    102          1           0        4.401496    0.992071   -2.775114
    103          1           0        5.257259    2.058887   -2.096572
    104          1           0        5.756982    0.620147   -2.898800
    105          1           0        6.768330    1.554485    0.164189
    106          1           0        6.432664    0.126266    0.861523
    107          1           0        7.457172   -1.060930   -1.189525
    108          1           0        8.003643    0.166681   -1.838969
    109          1           0        9.002996    0.663219    0.534425
    110          1           0        8.845592   -1.104468    0.745738
    111          1           0       10.076743   -0.014481   -1.852346
    112          1           0        9.467968   -2.249546   -2.042908
    113          1           0       11.107257   -2.585117   -1.470612
    114          1           0        9.659802   -2.749821   -0.519972
    115          1           0       11.286340    0.663661    0.532992
    116          1           0       11.489092   -0.915459    0.840442
    117          1           0       13.026970   -1.413955   -0.866341
    118          1           0       13.007447    0.095950   -1.568308
    119          1           0       13.665497    0.670843    0.843457
    120          1           0       13.851627   -0.862540    1.286010
    121          1           0       15.361901    0.453901   -1.458713
    122          1           0       15.926643   -2.325004   -0.072913
    123          1           0       14.984404   -1.996785   -1.685854
    124          1           0       16.715842   -1.675314   -1.377989
    125          1           0       15.988398    1.727904    0.599087
    126          1           0       16.438284    0.096026    1.365208
    127          1           0       18.212139   -0.472167   -0.180534
    128          1           0       17.815187    0.979560   -1.245886
    129          1           0       18.355022    2.524526    0.761119
    130          1           0       18.788956    1.004919    1.962698
    131          1           0       20.424998    0.155654    0.033943
    132          1           0       20.364215    3.255624   -1.178944
    133          1           0       21.343981    1.942049   -1.920073
    134          1           0       19.615615    1.748049   -1.926639
    135          1           0       21.119040    1.460293    2.078055
    136          1           0       22.185681    2.224607    0.842082
    137          1           0       20.644566    3.122023    1.440057
 ---------------------------------------------------------------------

 SCF Done:  E(RCAM-B3LYP) =  -2933.34313272     A.U. after   15 cycles

 Excitation energies and oscillator strengths:

 Excited State   1:      Singlet-A      2.0344 eV  609.45 nm  f=0.2358  <S**2>=0.000
     240 -> 243        0.25578
     241 -> 242        0.64879
 This state for optimization and/or second-order correction.
 Total Energy, E(TD-HF/TD-DFT) =  -2933.26837071
 Copying the excited state density for this state as the 1-particle RhoCI density.

 The electronic state is 1-A.
 Alpha  occ. eigenvalues --  -46.80889 -19.22133 -19.21091 -19.15069 -19.14630
 Alpha  occ. eigenvalues --  -19.13779 -14.36905 -14.36061 -14.35116 -14.35102
 Alpha  occ. eigenvalues --  -10.33552 -10.32649 -10.29422 -10.27519 -10.27196
 Alpha  occ. eigenvalues --  -10.26747 -10.25969 -10.25624 -10.25428 -10.25058
 Alpha  occ. eigenvalues --  -10.24969 -10.24696 -10.24411 -10.24321 -10.24288
 Alpha  occ. eigenvalues --  -10.23997 -10.23874 -10.23764 -10.23673 -10.23522
 Alpha  occ. eigenvalues --  -10.23323 -10.23259 -10.23255 -10.23171 -10.23017
 Alpha  occ. eigenvalues --  -10.22885 -10.22850 -10.22825 -10.22621 -10.22569
 Alpha  occ. eigenvalues --  -10.22249 -10.22152 -10.22086 -10.22069 -10.22068
 Alpha  occ. eigenvalues --  -10.21983 -10.21954 -10.21916 -10.21897 -10.21863
 Alpha  occ. eigenvalues --  -10.21838 -10.21656 -10.21610 -10.21527 -10.21382
 Alpha  occ. eigenvalues --  -10.21316 -10.20884 -10.20821 -10.20788 -10.20495
 Alpha  occ. eigenvalues --  -10.20318 -10.19792 -10.19605 -10.18848 -10.18442
 Alpha  occ. eigenvalues --   -3.09251  -1.84204  -1.83696  -1.83675  -1.13850
 Alpha  occ. eigenvalues --   -1.12318  -1.06141  -1.01046  -1.00862  -0.99016
 Alpha  occ. eigenvalues --   -0.98291  -0.97953  -0.96790  -0.87024  -0.86628
 Alpha  occ. eigenvalues --   -0.86400  -0.85039  -0.84424  -0.83789  -0.83579
 Alpha  occ. eigenvalues --   -0.83488  -0.82665  -0.82447  -0.82057  -0.81045
 Alpha  occ. eigenvalues --   -0.80338  -0.79849  -0.79224  -0.78595  -0.78167
 Alpha  occ. eigenvalues --   -0.77861  -0.76907  -0.75437  -0.75207  -0.74005
 Alpha  occ. eigenvalues --   -0.73944  -0.72920  -0.72840  -0.71923  -0.71443
 Alpha  occ. eigenvalues --   -0.70940  -0.69824  -0.69419  -0.68685  -0.67988
 Alpha  occ. eigenvalues --   -0.66840  -0.66262  -0.65118  -0.64589  -0.63722
 Alpha  occ. eigenvalues --   -0.63010  -0.62468  -0.61504  -0.60780  -0.60402
 Alpha  occ. eigenvalues --   -0.59721  -0.59608  -0.59225  -0.58243  -0.57607
 Alpha  occ. eigenvalues --   -0.57223  -0.57168  -0.56580  -0.56136  -0.55428
 Alpha  occ. eigenvalues --   -0.54646  -0.54435  -0.53020  -0.52845  -0.52421
 Alpha  occ. eigenvalues --   -0.52207  -0.51901  -0.51386  -0.51058  -0.50498
 Alpha  occ. eigenvalues --   -0.50240  -0.49745  -0.49501  -0.49192  -0.48819
 Alpha  occ. eigenvalues --   -0.48594  -0.48555  -0.48363  -0.48008  -0.47943
 Alpha  occ. eigenvalues --   -0.47585  -0.47338  -0.46970  -0.46952  -0.46897
 Alpha  occ. eigenvalues --   -0.46794  -0.46694  -0.46361  -0.46110  -0.45822
 Alpha  occ. eigenvalues --   -0.45528  -0.45480  -0.45102  -0.45062  -0.44675
 Alpha  occ. eigenvalues --   -0.44405  -0.44312  -0.44094  -0.43851  -0.43805
 Alpha  occ. eigenvalues --   -0.43529  -0.43417  -0.43310  -0.42780  -0.42477
 Alpha  occ. eigenvalues --   -0.42332  -0.42250  -0.41910  -0.41818  -0.41648
 Alpha  occ. eigenvalues --   -0.41606  -0.41133  -0.40893  -0.40712  -0.40586
 Alpha  occ. eigenvalues --   -0.40431  -0.40385  -0.40176  -0.39956  -0.39768
 Alpha  occ. eigenvalues --   -0.39693  -0.39494  -0.39355  -0.39199  -0.39017
 Alpha  occ. eigenvalues --   -0.38739  -0.38673  -0.38380  -0.37801  -0.37639
 Alpha  occ. eigenvalues --   -0.37533  -0.37280  -0.36949  -0.36783  -0.36689
 Alpha  occ. eigenvalues --   -0.36377  -0.36358  -0.36268  -0.36070  -0.36031
 Alpha  occ. eigenvalues --   -0.35655  -0.35442  -0.35262  -0.35034  -0.34667
 Alpha  occ. eigenvalues --   -0.34262  -0.34102  -0.33847  -0.33790  -0.33353
 Alpha  occ. eigenvalues --   -0.33104  -0.33084  -0.32170  -0.32052  -0.31989
 Alpha  occ. eigenvalues --   -0.31951  -0.31376  -0.31116  -0.30702  -0.30601
 Alpha  occ. eigenvalues --   -0.29595  -0.28551  -0.28390  -0.27676  -0.26928
 Alpha  occ. eigenvalues --   -0.26485  -0.26080  -0.25634  -0.25539  -0.20997
 Alpha  occ. eigenvalues --   -0.20611
 Alpha virt. eigenvalues --   -0.07686  -0.03791   0.00476   0.02746   0.03107
 Alpha virt. eigenvalues --    0.04524   0.05331   0.05414   0.05708   0.06249
 Alpha virt. eigenvalues --    0.06576   0.08966   0.09607   0.10109   0.10257

 Mulliken charges:
               1
     1  Mg   0.818689
     2  C    0.083394
     3  C   -0.194906
     4  C   -0.202407
     5  C   -0.190253
     6  N   -0.651838
     7  C    0.356611
     8  C   -0.178021
     9  C   -0.095333
    10  C    0.293218
    11  C   -0.307257
    12  C   -0.156917
    13  C   -0.221769
    14  C    0.574714
    15  O   -0.528225
    16  O   -0.450836
    17  N   -0.661527
    18  C    0.258461
    19  C    0.072623
    20  C   -0.035529
    21  C    0.324838
    22  C   -0.380194
    23  C   -0.028630
    24  C   -0.244859
    25  N   -0.665480
    26  C    0.236704
    27  C    0.069641
    28  C   -0.023514
    29  C    0.348311
    30  C   -0.369950
    31  C   -0.239493
    32  C   -0.312376
    33  N   -0.751443
    34  C    0.309228
    35  C   -0.002317
    36  C    0.097917
    37  C    0.316116
    38  C   -0.369888
    39  C    0.309308
    40  O   -0.454712
    41  C   -0.341964
    42  C    0.595390
    43  O   -0.514084
    44  O   -0.446170
    45  C   -0.060116
    46  C   -0.004067
    47  C   -0.155404
    48  C    0.105381
    49  C   -0.320364
    50  C   -0.216302
    51  C   -0.168126
    52  C   -0.160342
    53  C   -0.057288
    54  C   -0.308815
    55  C   -0.181033
    56  C   -0.151927
    57  C   -0.176550
    58  C   -0.056365
    59  C   -0.324219
    60  C   -0.168718
    61  C   -0.179725
    62  C   -0.137037
    63  C   -0.042304
    64  C   -0.328715
    65  C   -0.275977
    66  H    0.072324
    67  H    0.074505
    68  H    0.094074
    69  H    0.107355
    70  H    0.101712
    71  H    0.107765
    72  H    0.109880
    73  H    0.106909
    74  H    0.128502
    75  H    0.092868
    76  H    0.120255
    77  H    0.125839
    78  H    0.134751
    79  H    0.121340
    80  H    0.105930
    81  H    0.082091
    82  H    0.096537
    83  H    0.097822
    84  H    0.133479
    85  H    0.111050
    86  H    0.132565
    87  H    0.102532
    88  H    0.106818
    89  H    0.102513
    90  H    0.118445
    91  H    0.079110
    92  H    0.095397
    93  H    0.117073
    94  H    0.140383
    95  H    0.154653
    96  H    0.113218
    97  H    0.149507
    98  H    0.128031
    99  H    0.144390
   100  H    0.153648
   101  H    0.105397
   102  H    0.102012
   103  H    0.121758
   104  H    0.120666
   105  H    0.045779
   106  H    0.114877
   107  H    0.106231
   108  H    0.091773
   109  H    0.086775
   110  H    0.064693
   111  H    0.059953
   112  H    0.116344
   113  H    0.090937
   114  H    0.093505
   115  H    0.089038
   116  H    0.106486
   117  H    0.110236
   118  H    0.083181
   119  H    0.074013
   120  H    0.051879
   121  H    0.082626
   122  H    0.111753
   123  H    0.092984
   124  H    0.103945
   125  H    0.083455
   126  H    0.102225
   127  H    0.086050
   128  H    0.084301
   129  H    0.067763
   130  H    0.038084
   131  H    0.093185
   132  H    0.112081
   133  H    0.107309
   134  H    0.076593
   135  H    0.103305
   136  H    0.105824
   137  H    0.072449
 Sum of Mulliken charges =  -0.00000

 Dipole moment (field-independent basis, Debye):
    X=              1.7304    Y=              4.1368    Z=              0.3371  Tot=              4.4968
 Quadrupole moment (field-independent basis, Debye-Ang):
   XX=           -330.2626   YY=           -388.0654   ZZ=           -398.5156
   XY=            -35.5845   XZ=              8.8206   YZ=             -5.2092

 Normal termination of Gaussian 16 at Wed Sep 18 13:57:14 2019.
