 Gaussian 16, Revision A.03,
 Gaussian 16:  ES64L-G16RevA.03 25-Dec-2016

 ----------------------------------------------------------------------
 # td=(NStates=1) iop(3/107=0140000000,3/108=0140000000) CAM-B3LYP/6-31
 G(d,p)
 ----------------------------------------------------------------------

 --
 TD
 --
 Symbolic Z-matrix:
 Charge =  0 Multiplicity = 1

                         Standard orientation:
 ---------------------------------------------------------------------
 Center     Atomic      Atomic             Coordinates (Angstroms)
 Number     Number       Type             X           Y           Z
 ---------------------------------------------------------------------
      1         12           0       -7.138265    0.662503    0.094917
      2          6           0       -4.844061   -1.980373    0.553880
      3          6           0       -4.727716    2.843337    1.165610
      4          6           0       -9.462417    3.166682   -0.402677
      5          6           0       -9.524871   -1.642403   -0.833744
      6          7           0       -5.169083    0.427091    0.808547
      7          6           0       -4.367519   -0.742129    0.923107
      8          6           0       -2.899561   -0.470429    1.119957
      9          6           0       -2.962137    1.011648    1.657653
     10          6           0       -4.346215    1.507319    1.187136
     11          6           0       -2.791647    1.195794    3.172783
     12          6           0       -2.008900   -0.683728   -0.035768
     13          6           0       -0.515468   -0.635511    0.566277
     14          6           0        0.570828   -0.737734   -0.596432
     15          8           0        0.289062   -1.002518   -1.697106
     16          8           0        1.807638   -0.431491   -0.136759
     17          7           0       -7.136860    2.593590    0.379735
     18          6           0       -5.986503    3.423476    0.728367
     19          6           0       -6.359091    4.783331    0.711072
     20          6           0       -7.737144    4.826965    0.354448
     21          6           0       -8.178591    3.515163    0.005116
     22          6           0       -5.474038    5.838654    1.180881
     23          6           0       -8.635628    5.953509    0.260588
     24          6           0       -8.538531    7.173238    0.793039
     25          7           0       -9.096502    0.642982   -0.560338
     26          6           0       -9.875903    1.799149   -0.709660
     27          6           0      -11.272658    1.423495   -1.128553
     28          6           0      -11.327296    0.094755   -1.300469
     29          6           0       -9.974302   -0.382064   -0.923055
     30          6           0      -12.281939    2.420219   -1.363823
     31          6           0      -12.433661   -0.696092   -1.788391
     32          6           0      -12.182844   -1.128105   -3.317217
     33          7           0       -7.202825   -1.336469   -0.080859
     34          6           0       -8.274083   -2.172972   -0.497130
     35          6           0       -7.873426   -3.581396   -0.607611
     36          6           0       -6.543331   -3.529058   -0.063173
     37          6           0       -6.211582   -2.120917    0.151332
     38          6           0       -8.666321   -4.802255   -0.755998
     39          6           0       -5.364063   -4.313891    0.087791
     40          8           0       -5.166235   -5.547271    0.125012
     41          6           0       -4.234864   -3.402052    0.505111
     42          6           0       -3.563339   -3.795877    1.794259
     43          8           0       -3.745507   -3.289634    2.942850
     44          8           0       -2.783915   -4.869375    1.605260
     45          6           0       -2.062889   -5.202904    2.851630
     46          6           0        2.888342   -0.486884   -1.128690
     47          6           0        4.171513   -0.244290   -0.407534
     48          6           0        5.144874    0.552240   -0.796977
     49          6           0        5.125267    1.571423   -1.964619
     50          6           0        6.482968    0.525828   -0.094371
     51          6           0        7.657361   -0.171081   -0.890468
     52          6           0        8.865499   -0.090051   -0.138104
     53          6           0       10.150698   -0.597725   -0.995222
     54          6           0       10.058500   -2.142921   -1.199828
     55          6           0       11.383810   -0.415531   -0.018502
     56          6           0       12.683322   -0.637650   -0.766706
     57          6           0       13.960032   -0.262096    0.067377
     58          6           0       15.388161   -0.217197   -0.510329
     59          6           0       15.831219   -1.732760   -0.904833
     60          6           0       16.395316    0.401898    0.387511
     61          6           0       17.818116    0.558975   -0.257896
     62          6           0       18.729824    1.244041    0.769638
     63          6           0       20.225860    1.405647    0.129731
     64          6           0       20.196409    2.372007   -1.072352
     65          6           0       21.223715    1.922775    1.301061
     66          1           0       -4.051877    3.485551    1.381417
     67          1           0      -10.205112    3.881833   -0.658978
     68          1           0      -10.257025   -2.397548   -1.048928
     69          1           0       -2.566025   -1.205269    1.745918
     70          1           0       -2.112265    1.802117    1.331155
     71          1           0       -1.705676    1.092843    3.497572
     72          1           0       -3.217787    2.186019    3.763137
     73          1           0       -3.277511    0.352807    3.803173
     74          1           0       -2.101589   -1.653719   -0.632976
     75          1           0       -2.198089    0.062786   -0.872056
     76          1           0       -0.368905    0.241307    1.044638
     77          1           0       -0.438425   -1.505200    1.443308
     78          1           0       -5.611543    6.860622    0.571362
     79          1           0       -5.959532    5.957432    2.236709
     80          1           0       -4.411968    5.822684    0.928430
     81          1           0       -9.458072    5.612521   -0.273709
     82          1           0       -9.416103    7.884990    0.591481
     83          1           0       -7.666950    7.331408    1.514327
     84          1           0      -12.038171    2.939016   -2.450941
     85          1           0      -13.218513    1.969117   -1.633055
     86          1           0      -12.499327    3.092616   -0.412269
     87          1           0      -12.462388   -1.374759   -1.038454
     88          1           0      -13.459047   -0.175314   -1.814717
     89          1           0      -13.283706   -1.371880   -3.868322
     90          1           0      -11.567059   -0.124538   -3.876418
     91          1           0      -11.510762   -2.055779   -3.495610
     92          1           0       -9.315300   -4.700931   -1.662520
     93          1           0       -8.094695   -5.711336   -0.434924
     94          1           0       -9.517082   -4.826716    0.038305
     95          1           0       -3.379829   -3.419121   -0.208908
     96          1           0       -1.460683   -4.413199    3.067013
     97          1           0       -2.968048   -5.665794    3.469836
     98          1           0       -1.475582   -6.205681    2.636591
     99          1           0        3.034978   -1.488473   -1.844388
    100          1           0        2.675954    0.332682   -1.892451
    101          1           0        4.433713   -0.960153    0.379932
    102          1           0        3.961008    1.804714   -2.202796
    103          1           0        5.300390    2.539613   -1.489017
    104          1           0        5.639778    1.108333   -2.827576
    105          1           0        6.700799    1.639771    0.226796
    106          1           0        6.465253   -0.071806    0.961180
    107          1           0        7.158731   -1.080221   -1.170315
    108          1           0        7.724940    0.394019   -1.838928
    109          1           0        9.065791    0.971703    0.094742
    110          1           0        8.865513   -0.531318    0.855148
    111          1           0       10.486445    0.007639   -1.962236
    112          1           0        9.268742   -2.218657   -1.885789
    113          1           0       10.930786   -2.296553   -1.859925
    114          1           0        9.960454   -2.829494   -0.509030
    115          1           0       11.100502    0.668180    0.447711
    116          1           0       11.442965   -1.060381    0.832151
    117          1           0       12.892250   -1.751475   -0.838520
    118          1           0       12.834424   -0.051910   -1.766249
    119          1           0       13.953897    0.784744    0.459246
    120          1           0       14.189582   -0.855318    1.034028
    121          1           0       15.161039    0.412341   -1.320182
    122          1           0       16.092176   -2.418836   -0.066981
    123          1           0       15.055593   -2.136162   -1.620291
    124          1           0       16.776461   -1.635697   -1.389568
    125          1           0       15.909270    1.441881    0.610946
    126          1           0       16.543251   -0.211252    1.289905
    127          1           0       18.371559   -0.343604   -0.515676
    128          1           0       17.833732    1.237936   -1.127345
    129          1           0       18.344846    2.202370    1.269183
    130          1           0       19.007416    0.366958    1.531599
    131          1           0       20.634768    0.353760   -0.114494
    132          1           0       19.786321    3.437660   -1.043185
    133          1           0       21.261719    2.330046   -1.343146
    134          1           0       19.813797    1.752783   -2.018479
    135          1           0       21.392700    1.160158    2.017049
    136          1           0       22.195517    2.146030    0.709348
    137          1           0       21.000762    2.880065    1.832040
 ---------------------------------------------------------------------

 SCF Done:  E(RCAM-B3LYP) =  -2933.48551173     A.U. after   16 cycles

 Excitation energies and oscillator strengths:

 Excited State   1:      Singlet-A      1.9522 eV  635.11 nm  f=0.2950  <S**2>=0.000
     240 -> 243        0.20928
     241 -> 242        0.66587
 This state for optimization and/or second-order correction.
 Total Energy, E(TD-HF/TD-DFT) =  -2933.41377101
 Copying the excited state density for this state as the 1-particle RhoCI density.

 The electronic state is 1-A.
 Alpha  occ. eigenvalues --  -46.78611 -19.22326 -19.21759 -19.17168 -19.15531
 Alpha  occ. eigenvalues --  -19.14290 -14.37546 -14.35866 -14.35251 -14.34935
 Alpha  occ. eigenvalues --  -10.34525 -10.33988 -10.29131 -10.28977 -10.27609
 Alpha  occ. eigenvalues --  -10.26751 -10.25918 -10.25816 -10.25778 -10.25633
 Alpha  occ. eigenvalues --  -10.25257 -10.25249 -10.25011 -10.24481 -10.24208
 Alpha  occ. eigenvalues --  -10.24113 -10.23997 -10.23693 -10.23587 -10.23417
 Alpha  occ. eigenvalues --  -10.23304 -10.23302 -10.23294 -10.23241 -10.23190
 Alpha  occ. eigenvalues --  -10.23120 -10.23088 -10.22761 -10.22741 -10.22708
 Alpha  occ. eigenvalues --  -10.22669 -10.22530 -10.22461 -10.22457 -10.22403
 Alpha  occ. eigenvalues --  -10.22219 -10.22147 -10.22036 -10.21815 -10.21732
 Alpha  occ. eigenvalues --  -10.21676 -10.21617 -10.21320 -10.21234 -10.21204
 Alpha  occ. eigenvalues --  -10.21104 -10.21053 -10.20870 -10.20678 -10.20638
 Alpha  occ. eigenvalues --  -10.20565 -10.20493 -10.20356 -10.20071 -10.18532
 Alpha  occ. eigenvalues --   -3.07454  -1.82372  -1.81941  -1.81876  -1.13768
 Alpha  occ. eigenvalues --   -1.11843  -1.05989  -1.03071  -1.00957  -0.99070
 Alpha  occ. eigenvalues --   -0.96839  -0.96380  -0.94926  -0.86825  -0.86108
 Alpha  occ. eigenvalues --   -0.85019  -0.84858  -0.84684  -0.83941  -0.83833
 Alpha  occ. eigenvalues --   -0.83518  -0.82635  -0.82154  -0.81814  -0.80472
 Alpha  occ. eigenvalues --   -0.80272  -0.78652  -0.78506  -0.77659  -0.77275
 Alpha  occ. eigenvalues --   -0.76490  -0.76222  -0.75351  -0.74726  -0.73223
 Alpha  occ. eigenvalues --   -0.72860  -0.71964  -0.71326  -0.71120  -0.70319
 Alpha  occ. eigenvalues --   -0.70148  -0.69965  -0.69297  -0.68277  -0.67790
 Alpha  occ. eigenvalues --   -0.66279  -0.65514  -0.65230  -0.64129  -0.63819
 Alpha  occ. eigenvalues --   -0.62395  -0.61856  -0.60873  -0.60236  -0.60098
 Alpha  occ. eigenvalues --   -0.59470  -0.58879  -0.58526  -0.57595  -0.57493
 Alpha  occ. eigenvalues --   -0.56719  -0.56079  -0.55848  -0.54869  -0.54661
 Alpha  occ. eigenvalues --   -0.54640  -0.53945  -0.53687  -0.52942  -0.51927
 Alpha  occ. eigenvalues --   -0.51744  -0.51415  -0.51240  -0.50707  -0.50417
 Alpha  occ. eigenvalues --   -0.49986  -0.49849  -0.49645  -0.49553  -0.49179
 Alpha  occ. eigenvalues --   -0.49111  -0.48974  -0.48492  -0.48385  -0.48130
 Alpha  occ. eigenvalues --   -0.47738  -0.47167  -0.46909  -0.46839  -0.46614
 Alpha  occ. eigenvalues --   -0.46534  -0.46305  -0.46246  -0.45790  -0.45557
 Alpha  occ. eigenvalues --   -0.45388  -0.45160  -0.45030  -0.44836  -0.44461
 Alpha  occ. eigenvalues --   -0.44362  -0.44196  -0.43922  -0.43371  -0.43328
 Alpha  occ. eigenvalues --   -0.43016  -0.42898  -0.42703  -0.42277  -0.42002
 Alpha  occ. eigenvalues --   -0.41936  -0.41817  -0.41668  -0.41479  -0.41206
 Alpha  occ. eigenvalues --   -0.41111  -0.40931  -0.40497  -0.40230  -0.40052
 Alpha  occ. eigenvalues --   -0.39946  -0.39785  -0.39691  -0.39649  -0.39385
 Alpha  occ. eigenvalues --   -0.39292  -0.38907  -0.38856  -0.38805  -0.38766
 Alpha  occ. eigenvalues --   -0.38578  -0.38168  -0.38056  -0.37988  -0.37605
 Alpha  occ. eigenvalues --   -0.37437  -0.37238  -0.37201  -0.37003  -0.36984
 Alpha  occ. eigenvalues --   -0.36779  -0.36651  -0.36339  -0.36259  -0.36092
 Alpha  occ. eigenvalues --   -0.35819  -0.35542  -0.35493  -0.35271  -0.34903
 Alpha  occ. eigenvalues --   -0.34678  -0.34461  -0.33873  -0.33437  -0.33224
 Alpha  occ. eigenvalues --   -0.32984  -0.32936  -0.32718  -0.32244  -0.31880
 Alpha  occ. eigenvalues --   -0.31741  -0.30953  -0.30918  -0.30451  -0.30325
 Alpha  occ. eigenvalues --   -0.29466  -0.29400  -0.28799  -0.28084  -0.27401
 Alpha  occ. eigenvalues --   -0.26795  -0.26156  -0.25772  -0.24129  -0.21517
 Alpha  occ. eigenvalues --   -0.20066
 Alpha virt. eigenvalues --   -0.07636  -0.03604  -0.00032   0.02454   0.03804
 Alpha virt. eigenvalues --    0.04298   0.04730   0.04914   0.05046   0.05965
 Alpha virt. eigenvalues --    0.06751   0.08087   0.08826   0.09310   0.09748

 Mulliken charges:
               1
     1  Mg   0.804165
     2  C    0.076650
     3  C   -0.161690
     4  C   -0.172248
     5  C   -0.208047
     6  N   -0.637468
     7  C    0.276335
     8  C   -0.113242
     9  C   -0.139241
    10  C    0.359441
    11  C   -0.314377
    12  C   -0.173496
    13  C   -0.265110
    14  C    0.593786
    15  O   -0.426089
    16  O   -0.466435
    17  N   -0.725152
    18  C    0.298344
    19  C    0.025251
    20  C    0.013341
    21  C    0.305459
    22  C   -0.396709
    23  C   -0.016652
    24  C   -0.268247
    25  N   -0.676924
    26  C    0.284338
    27  C    0.038030
    28  C    0.077845
    29  C    0.305001
    30  C   -0.393489
    31  C   -0.238652
    32  C   -0.283624
    33  N   -0.721688
    34  C    0.250586
    35  C    0.063425
    36  C   -0.022410
    37  C    0.340171
    38  C   -0.389046
    39  C    0.354747
    40  O   -0.496226
    41  C   -0.300440
    42  C    0.618853
    43  O   -0.512123
    44  O   -0.434417
    45  C   -0.072453
    46  C    0.004301
    47  C   -0.111462
    48  C    0.105127
    49  C   -0.357442
    50  C   -0.224723
    51  C   -0.162008
    52  C   -0.166931
    53  C   -0.079368
    54  C   -0.307551
    55  C   -0.138966
    56  C   -0.186977
    57  C   -0.177240
    58  C   -0.056821
    59  C   -0.329778
    60  C   -0.155102
    61  C   -0.170303
    62  C   -0.161124
    63  C   -0.062379
    64  C   -0.305364
    65  C   -0.315648
    66  H    0.044428
    67  H    0.099840
    68  H    0.065825
    69  H    0.113840
    70  H    0.092288
    71  H    0.102819
    72  H    0.097142
    73  H    0.121380
    74  H    0.118340
    75  H    0.110130
    76  H    0.139706
    77  H    0.103892
    78  H    0.104378
    79  H    0.137454
    80  H    0.129072
    81  H    0.070138
    82  H    0.101940
    83  H    0.094093
    84  H    0.105747
    85  H    0.114915
    86  H    0.115559
    87  H    0.125129
    88  H    0.104887
    89  H    0.084278
    90  H    0.084435
    91  H    0.113685
    92  H    0.121866
    93  H    0.160965
    94  H    0.120981
    95  H    0.154383
    96  H    0.140932
    97  H    0.141598
    98  H    0.110030
    99  H    0.112376
   100  H    0.114105
   101  H    0.087784
   102  H    0.086741
   103  H    0.131917
   104  H    0.137831
   105  H    0.077342
   106  H    0.069931
   107  H    0.106848
   108  H    0.092399
   109  H    0.094219
   110  H    0.099646
   111  H    0.080414
   112  H    0.100694
   113  H    0.100012
   114  H    0.115567
   115  H    0.056363
   116  H    0.100825
   117  H    0.110523
   118  H    0.079332
   119  H    0.067887
   120  H    0.064870
   121  H    0.083556
   122  H    0.097676
   123  H    0.094551
   124  H    0.105337
   125  H    0.074348
   126  H    0.091310
   127  H    0.095764
   128  H    0.095551
   129  H    0.087565
   130  H    0.063257
   131  H    0.084486
   132  H    0.112023
   133  H    0.101663
   134  H    0.086432
   135  H    0.110089
   136  H    0.080619
   137  H    0.101740
 Sum of Mulliken charges =  -0.00000

 Dipole moment (field-independent basis, Debye):
    X=              1.3536    Y=              4.5813    Z=             -0.8302  Tot=              4.8488
 Quadrupole moment (field-independent basis, Debye-Ang):
   XX=           -320.6930   YY=           -398.6945   ZZ=           -401.8065
   XY=            -22.7995   XZ=             10.3356   YZ=             -2.7701

 Normal termination of Gaussian 16 at Mon Sep 16 16:33:55 2019.
