 Gaussian 16, Revision A.03,
 Gaussian 16:  ES64L-G16RevA.03 25-Dec-2016

 ----------------------------------------------------------------------
 # td=(NStates=1) iop(3/107=0140000000,3/108=0140000000) CAM-B3LYP/6-31
 G(d,p)
 ----------------------------------------------------------------------

 --
 TD
 --
 Symbolic Z-matrix:
 Charge =  0 Multiplicity = 1

                         Standard orientation:
 ---------------------------------------------------------------------
 Center     Atomic      Atomic             Coordinates (Angstroms)
 Number     Number       Type             X           Y           Z
 ---------------------------------------------------------------------
      1         12           0       -7.165544    0.645112    0.189146
      2          6           0       -4.888783   -1.977153    0.537352
      3          6           0       -4.818298    2.895034    1.067219
      4          6           0       -9.321548    3.167491   -0.446350
      5          6           0       -9.537199   -1.742596   -0.780463
      6          7           0       -5.057233    0.427356    0.741319
      7          6           0       -4.299189   -0.652740    0.767542
      8          6           0       -2.909998   -0.313503    1.181652
      9          6           0       -2.961192    1.097393    1.654548
     10          6           0       -4.404107    1.545449    1.065460
     11          6           0       -3.047099    1.293607    3.172847
     12          6           0       -1.863427   -0.538587    0.004714
     13          6           0       -0.470832   -0.418975    0.420622
     14          6           0        0.572643   -0.633131   -0.656942
     15          8           0        0.255693   -1.043115   -1.790537
     16          8           0        1.833169   -0.567113   -0.163177
     17          7           0       -7.049016    2.661005    0.393448
     18          6           0       -5.990796    3.416778    0.724798
     19          6           0       -6.405019    4.785704    0.714190
     20          6           0       -7.685565    4.822951    0.417084
     21          6           0       -8.062900    3.473575    0.062278
     22          6           0       -5.461534    5.830151    1.161761
     23          6           0       -8.489690    6.005690    0.055520
     24          6           0       -8.281957    7.204965    0.733468
     25          7           0       -9.132366    0.742830   -0.418731
     26          6           0       -9.894118    1.804777   -0.694277
     27          6           0      -11.238489    1.418091   -1.094440
     28          6           0      -11.238794    0.116486   -1.243126
     29          6           0       -9.933231   -0.409153   -0.808427
     30          6           0      -12.308255    2.441674   -1.390000
     31          6           0      -12.345255   -0.796474   -1.707005
     32          6           0      -12.305668   -1.227991   -3.089237
     33          7           0       -7.327850   -1.367774   -0.018775
     34          6           0       -8.254657   -2.256309   -0.445232
     35          6           0       -7.830822   -3.593704   -0.504412
     36          6           0       -6.498542   -3.558433   -0.059898
     37          6           0       -6.238982   -2.139378    0.163447
     38          6           0       -8.645578   -4.818856   -0.779822
     39          6           0       -5.325552   -4.358302    0.166293
     40          8           0       -5.170740   -5.536445    0.042821
     41          6           0       -4.163444   -3.303086    0.532332
     42          6           0       -3.667356   -3.778093    1.886520
     43          8           0       -3.759504   -3.260330    2.998424
     44          8           0       -2.740287   -4.738495    1.713901
     45          6           0       -2.118498   -5.285461    2.964337
     46          6           0        2.857621   -0.848826   -1.209020
     47          6           0        4.122602   -0.542077   -0.654950
     48          6           0        5.065802    0.270670   -1.053383
     49          6           0        4.886741    1.324118   -2.211626
     50          6           0        6.366229    0.398173   -0.305470
     51          6           0        7.597794   -0.222063   -1.158405
     52          6           0        8.851927   -0.105969   -0.262811
     53          6           0       10.197072   -0.504089   -0.838398
     54          6           0       10.282871   -1.977333   -1.317406
     55          6           0       11.433176   -0.057805   -0.054569
     56          6           0       12.715860   -0.406381   -0.665213
     57          6           0       13.969518   -0.027685    0.070506
     58          6           0       15.391218   -0.383912   -0.574428
     59          6           0       15.753331   -1.772645   -0.781885
     60          6           0       16.408112    0.321444    0.434510
     61          6           0       17.858457    0.503693   -0.092984
     62          6           0       18.682334    1.254056    0.857935
     63          6           0       20.208078    1.344925    0.216802
     64          6           0       20.426656    2.149192   -0.993554
     65          6           0       21.069274    1.906842    1.402184
     66          1           0       -3.723096    3.560284    1.213272
     67          1           0      -10.084979    3.875049   -0.712582
     68          1           0      -10.251105   -2.485517   -1.139009
     69          1           0       -2.661278   -0.862358    2.093400
     70          1           0       -2.175548    1.536194    1.170366
     71          1           0       -2.151974    0.974623    3.798532
     72          1           0       -3.018554    2.433202    3.124946
     73          1           0       -3.927921    0.862144    3.607345
     74          1           0       -1.883338   -1.436917   -0.659609
     75          1           0       -2.224714    0.194671   -0.690549
     76          1           0       -0.220866    0.459173    1.096251
     77          1           0       -0.464030   -1.232040    1.376810
     78          1           0       -5.705152    6.962765    0.744977
     79          1           0       -5.704901    5.933651    2.194965
     80          1           0       -4.413026    5.783645    1.029941
     81          1           0       -9.340933    5.971071   -0.648890
     82          1           0       -9.044975    8.017682    0.620936
     83          1           0       -7.696938    7.380940    1.466448
     84          1           0      -11.892152    3.355102   -1.937674
     85          1           0      -13.230864    2.129949   -2.183619
     86          1           0      -12.666729    2.788622   -0.301023
     87          1           0      -12.534255   -1.641924   -1.006837
     88          1           0      -13.287435   -0.125822   -1.799189
     89          1           0      -13.092344   -2.020387   -3.167232
     90          1           0      -12.480171   -0.311302   -3.830316
     91          1           0      -11.402736   -1.770839   -3.218183
     92          1           0       -8.984162   -4.758150   -1.884475
     93          1           0       -8.060029   -5.713519   -0.593672
     94          1           0       -9.502702   -5.016315   -0.068908
     95          1           0       -3.514309   -3.301384   -0.417255
     96          1           0       -1.785939   -4.369381    3.470617
     97          1           0       -3.110763   -5.960018    3.519805
     98          1           0       -1.275898   -5.959063    2.515636
     99          1           0        2.551299   -1.817159   -1.407624
    100          1           0        2.483899   -0.074510   -2.085541
    101          1           0        4.216044   -1.251077    0.232692
    102          1           0        4.044847    1.293444   -2.785982
    103          1           0        4.908768    2.419717   -1.614830
    104          1           0        5.825130    1.478868   -3.132265
    105          1           0        6.570000    1.447871   -0.275995
    106          1           0        6.292152   -0.102176    0.507927
    107          1           0        7.276113   -0.989056   -1.476474
    108          1           0        7.549372    0.512931   -1.910301
    109          1           0        8.843311    0.918556    0.101438
    110          1           0        8.735645   -0.763026    0.828629
    111          1           0       10.233001    0.287564   -1.721322
    112          1           0        9.639550   -2.501599   -2.176709
    113          1           0       11.330302   -2.351223   -1.515981
    114          1           0       10.179052   -2.497902   -0.477683
    115          1           0       11.335903    1.036207    0.215932
    116          1           0       11.392706   -0.518330    1.071594
    117          1           0       12.578811   -1.531239   -0.727600
    118          1           0       13.073203    0.227157   -1.675704
    119          1           0       13.836484    1.016794    0.301092
    120          1           0       14.127131   -0.171494    1.177507
    121          1           0       15.380780    0.165748   -1.368442
    122          1           0       15.749867   -2.243342    0.143516
    123          1           0       15.025022   -2.070938   -1.531942
    124          1           0       16.578242   -2.062531   -1.365202
    125          1           0       15.915686    1.414366    0.529514
    126          1           0       16.495056   -0.282116    1.380644
    127          1           0       18.118648   -0.658321   -0.200466
    128          1           0       17.811468    1.092948   -1.056265
    129          1           0       18.360665    2.250447    1.027427
    130          1           0       18.797391    0.602060    1.714021
    131          1           0       20.535924    0.325521    0.264955
    132          1           0       19.994986    3.150188   -0.622397
    133          1           0       21.411484    2.184414   -1.326437
    134          1           0       19.916344    1.901832   -1.893467
    135          1           0       21.043321    1.264072    2.297683
    136          1           0       22.208868    1.917495    1.121602
    137          1           0       20.886831    3.049388    1.712050
 ---------------------------------------------------------------------

 SCF Done:  E(RCAM-B3LYP) =  -2933.38456690     A.U. after   15 cycles

 Excitation energies and oscillator strengths:

 Excited State   1:      Singlet-A      2.1462 eV  577.70 nm  f=0.2378  <S**2>=0.000
     240 -> 243       -0.26876
     241 -> 242        0.64686
 This state for optimization and/or second-order correction.
 Total Energy, E(TD-HF/TD-DFT) =  -2933.30569688
 Copying the excited state density for this state as the 1-particle RhoCI density.

 The electronic state is 1-A.
 Alpha  occ. eigenvalues --  -46.80609 -19.21907 -19.20429 -19.16823 -19.15741
 Alpha  occ. eigenvalues --  -19.15613 -14.37913 -14.35272 -14.35271 -14.35092
 Alpha  occ. eigenvalues --  -10.34896 -10.33940 -10.29669 -10.29106 -10.27514
 Alpha  occ. eigenvalues --  -10.26770 -10.25893 -10.25239 -10.25192 -10.25110
 Alpha  occ. eigenvalues --  -10.24833 -10.24678 -10.24523 -10.24415 -10.24348
 Alpha  occ. eigenvalues --  -10.24271 -10.24081 -10.23871 -10.23725 -10.23267
 Alpha  occ. eigenvalues --  -10.23179 -10.23102 -10.23076 -10.22867 -10.22729
 Alpha  occ. eigenvalues --  -10.22622 -10.22435 -10.22413 -10.22230 -10.22069
 Alpha  occ. eigenvalues --  -10.22046 -10.22012 -10.21973 -10.21971 -10.21917
 Alpha  occ. eigenvalues --  -10.21914 -10.21835 -10.21799 -10.21761 -10.21461
 Alpha  occ. eigenvalues --  -10.21416 -10.21236 -10.21159 -10.21051 -10.20999
 Alpha  occ. eigenvalues --  -10.20965 -10.20749 -10.20445 -10.20328 -10.20317
 Alpha  occ. eigenvalues --  -10.20150 -10.20052 -10.19773 -10.19698 -10.18742
 Alpha  occ. eigenvalues --   -3.09113  -1.84061  -1.83579  -1.83518  -1.11948
 Alpha  occ. eigenvalues --   -1.11356  -1.06839  -1.03178  -1.01619  -1.00966
 Alpha  occ. eigenvalues --   -1.00189  -0.99219  -0.97003  -0.87083  -0.86882
 Alpha  occ. eigenvalues --   -0.85845  -0.85548  -0.84801  -0.84630  -0.84589
 Alpha  occ. eigenvalues --   -0.83663  -0.83251  -0.82159  -0.81955  -0.81536
 Alpha  occ. eigenvalues --   -0.80705  -0.79404  -0.78917  -0.78675  -0.77634
 Alpha  occ. eigenvalues --   -0.77473  -0.76225  -0.75587  -0.75297  -0.73337
 Alpha  occ. eigenvalues --   -0.72922  -0.72280  -0.71804  -0.71688  -0.70880
 Alpha  occ. eigenvalues --   -0.70805  -0.69997  -0.69705  -0.68661  -0.67708
 Alpha  occ. eigenvalues --   -0.66741  -0.66602  -0.64771  -0.64439  -0.63647
 Alpha  occ. eigenvalues --   -0.63282  -0.63017  -0.61639  -0.60561  -0.60083
 Alpha  occ. eigenvalues --   -0.59219  -0.59019  -0.58435  -0.58140  -0.57569
 Alpha  occ. eigenvalues --   -0.57322  -0.56810  -0.56440  -0.56079  -0.55310
 Alpha  occ. eigenvalues --   -0.54560  -0.54403  -0.53941  -0.53612  -0.53231
 Alpha  occ. eigenvalues --   -0.53019  -0.52657  -0.51789  -0.51551  -0.51154
 Alpha  occ. eigenvalues --   -0.50750  -0.50582  -0.49842  -0.49464  -0.49096
 Alpha  occ. eigenvalues --   -0.48955  -0.48790  -0.48506  -0.48424  -0.48069
 Alpha  occ. eigenvalues --   -0.47645  -0.47462  -0.47298  -0.47148  -0.46868
 Alpha  occ. eigenvalues --   -0.46671  -0.46522  -0.46322  -0.46167  -0.45868
 Alpha  occ. eigenvalues --   -0.45767  -0.45643  -0.45499  -0.45194  -0.44858
 Alpha  occ. eigenvalues --   -0.44655  -0.44212  -0.43769  -0.43669  -0.43344
 Alpha  occ. eigenvalues --   -0.43131  -0.43032  -0.42825  -0.42576  -0.42084
 Alpha  occ. eigenvalues --   -0.41876  -0.41778  -0.41577  -0.41542  -0.41464
 Alpha  occ. eigenvalues --   -0.41200  -0.40936  -0.40860  -0.40738  -0.40414
 Alpha  occ. eigenvalues --   -0.40293  -0.40233  -0.40095  -0.39852  -0.39640
 Alpha  occ. eigenvalues --   -0.39595  -0.39303  -0.39206  -0.39183  -0.38952
 Alpha  occ. eigenvalues --   -0.38884  -0.38779  -0.38476  -0.38327  -0.38060
 Alpha  occ. eigenvalues --   -0.37837  -0.37555  -0.37333  -0.37124  -0.36813
 Alpha  occ. eigenvalues --   -0.36651  -0.36435  -0.36261  -0.36199  -0.35999
 Alpha  occ. eigenvalues --   -0.35717  -0.35573  -0.35239  -0.35183  -0.34526
 Alpha  occ. eigenvalues --   -0.34314  -0.34237  -0.33750  -0.33648  -0.33387
 Alpha  occ. eigenvalues --   -0.33095  -0.32784  -0.32550  -0.32378  -0.31831
 Alpha  occ. eigenvalues --   -0.31390  -0.31374  -0.31302  -0.30848  -0.30428
 Alpha  occ. eigenvalues --   -0.30035  -0.29352  -0.28828  -0.28227  -0.27954
 Alpha  occ. eigenvalues --   -0.27209  -0.26376  -0.26147  -0.25323  -0.21570
 Alpha  occ. eigenvalues --   -0.19592
 Alpha virt. eigenvalues --   -0.06242  -0.03875  -0.00090   0.02105   0.02275
 Alpha virt. eigenvalues --    0.02859   0.03491   0.04698   0.05037   0.05578
 Alpha virt. eigenvalues --    0.06714   0.08121   0.08241   0.08645   0.09568

 Mulliken charges:
               1
     1  Mg   0.812001
     2  C    0.033594
     3  C   -0.206015
     4  C   -0.182316
     5  C   -0.193114
     6  N   -0.599715
     7  C    0.313748
     8  C   -0.177389
     9  C   -0.134024
    10  C    0.286474
    11  C   -0.296870
    12  C   -0.171038
    13  C   -0.259444
    14  C    0.620106
    15  O   -0.490029
    16  O   -0.483581
    17  N   -0.736084
    18  C    0.369684
    19  C    0.060619
    20  C   -0.004944
    21  C    0.343751
    22  C   -0.391302
    23  C   -0.085263
    24  C   -0.227869
    25  N   -0.679621
    26  C    0.289557
    27  C    0.042833
    28  C    0.067124
    29  C    0.267429
    30  C   -0.371716
    31  C   -0.254017
    32  C   -0.285713
    33  N   -0.722155
    34  C    0.277809
    35  C    0.031903
    36  C    0.029306
    37  C    0.321898
    38  C   -0.383459
    39  C    0.321996
    40  O   -0.445425
    41  C   -0.333378
    42  C    0.622718
    43  O   -0.489165
    44  O   -0.451508
    45  C   -0.068945
    46  C    0.010846
    47  C   -0.110727
    48  C    0.122809
    49  C   -0.342640
    50  C   -0.227177
    51  C   -0.146191
    52  C   -0.153792
    53  C   -0.024134
    54  C   -0.336917
    55  C   -0.184260
    56  C   -0.127638
    57  C   -0.202709
    58  C   -0.034758
    59  C   -0.305128
    60  C   -0.186229
    61  C   -0.165394
    62  C   -0.150244
    63  C   -0.060538
    64  C   -0.296025
    65  C   -0.306819
    66  H    0.072540
    67  H    0.070425
    68  H    0.080390
    69  H    0.118569
    70  H    0.099533
    71  H    0.102652
    72  H    0.102268
    73  H    0.136615
    74  H    0.125750
    75  H    0.109321
    76  H    0.119720
    77  H    0.110998
    78  H    0.090301
    79  H    0.141901
    80  H    0.121420
    81  H    0.101731
    82  H    0.087739
    83  H    0.099768
    84  H    0.118234
    85  H    0.094021
    86  H    0.118492
    87  H    0.109318
    88  H    0.088689
    89  H    0.101196
    90  H    0.094479
    91  H    0.109077
    92  H    0.113059
    93  H    0.147436
    94  H    0.121313
    95  H    0.170903
    96  H    0.148879
    97  H    0.109340
    98  H    0.126758
    99  H    0.140777
   100  H    0.102478
   101  H    0.089813
   102  H    0.131268
   103  H    0.097111
   104  H    0.079123
   105  H    0.103351
   106  H    0.105835
   107  H    0.097312
   108  H    0.101774
   109  H    0.095321
   110  H    0.037058
   111  H    0.066871
   112  H    0.096723
   113  H    0.102256
   114  H    0.122925
   115  H    0.084801
   116  H    0.065188
   117  H    0.096080
   118  H    0.066397
   119  H    0.090740
   120  H    0.069675
   121  H    0.086023
   122  H    0.107373
   123  H    0.097088
   124  H    0.113937
   125  H    0.058640
   126  H    0.079984
   127  H    0.072927
   128  H    0.082516
   129  H    0.096178
   130  H    0.091167
   131  H    0.089543
   132  H    0.090419
   133  H    0.113789
   134  H    0.104192
   135  H    0.099246
   136  H    0.073983
   137  H    0.076497
 Sum of Mulliken charges =  -0.00000

 Dipole moment (field-independent basis, Debye):
    X=              2.0851    Y=              4.3901    Z=             -0.1659  Tot=              4.8629
 Quadrupole moment (field-independent basis, Debye-Ang):
   XX=           -349.7560   YY=           -395.5613   ZZ=           -399.9732
   XY=            -26.3893   XZ=              3.7656   YZ=             -2.2885

 Normal termination of Gaussian 16 at Sun Sep 22 21:18:55 2019.
