 Gaussian 09, Revision D.01,
 Gaussian 09:  ES64L-G09RevD.01 24-Apr-2013

 -------------------------------------
 # td=(NStates=1) CAM-B3LYP/6-31G(d,p)
 -------------------------------------

 --
 TD
 --
 Symbolic Z-matrix:
 Charge =  0 Multiplicity = 1

                         Standard orientation:
 ---------------------------------------------------------------------
 Center     Atomic      Atomic             Coordinates (Angstroms)
 Number     Number       Type             X           Y           Z
 ---------------------------------------------------------------------
      1         12           0       -7.042989    0.620152    0.036530
      2          6           0       -4.841323   -1.917983    0.478586
      3          6           0       -4.695155    2.861249    1.123242
      4          6           0       -9.384723    3.085905   -0.498185
      5          6           0       -9.505908   -1.769277   -0.834597
      6          7           0       -4.999347    0.522159    0.592818
      7          6           0       -4.379953   -0.651666    0.761692
      8          6           0       -2.881730   -0.341899    1.233560
      9          6           0       -2.945592    1.055000    1.637287
     10          6           0       -4.318300    1.552926    1.163307
     11          6           0       -2.845246    1.198351    3.164795
     12          6           0       -1.946888   -0.719627    0.078977
     13          6           0       -0.445100   -0.517040    0.484387
     14          6           0        0.465424   -0.687169   -0.627688
     15          8           0        0.129515   -1.047015   -1.743056
     16          8           0        1.812508   -0.630997   -0.232591
     17          7           0       -7.091309    2.659857    0.232559
     18          6           0       -5.986385    3.332977    0.632386
     19          6           0       -6.350457    4.748640    0.716112
     20          6           0       -7.645341    4.891747    0.313472
     21          6           0       -8.152849    3.502730    0.008203
     22          6           0       -5.429739    5.873276    1.173810
     23          6           0       -8.567788    5.926508    0.321854
     24          6           0       -8.446884    7.034796    1.018349
     25          7           0       -9.010640    0.649768   -0.575535
     26          6           0       -9.788547    1.738599   -0.678057
     27          6           0      -11.159412    1.414483   -1.204736
     28          6           0      -11.180605    0.054753   -1.109890
     29          6           0       -9.853329   -0.423961   -0.842094
     30          6           0      -12.245637    2.517941   -1.395257
     31          6           0      -12.342514   -0.733832   -1.683888
     32          6           0      -12.196549   -1.104762   -3.213573
     33          7           0       -7.173370   -1.326686   -0.101897
     34          6           0       -8.219649   -2.264635   -0.339154
     35          6           0       -7.854480   -3.545729   -0.420055
     36          6           0       -6.495514   -3.562343   -0.051573
     37          6           0       -6.112002   -2.197800    0.134057
     38          6           0       -8.713235   -4.732336   -0.824636
     39          6           0       -5.328665   -4.405591    0.282832
     40          8           0       -5.023027   -5.602313    0.281978
     41          6           0       -4.106524   -3.273036    0.487173
     42          6           0       -3.357752   -3.589610    1.836433
     43          8           0       -3.541384   -3.039492    2.929863
     44          8           0       -2.744831   -4.743227    1.712161
     45          6           0       -2.098508   -5.147739    2.930281
     46          6           0        2.826854   -0.756615   -1.253334
     47          6           0        4.096546   -0.518855   -0.513607
     48          6           0        5.025673    0.379824   -1.016584
     49          6           0        4.942667    1.244402   -2.190560
     50          6           0        6.394612    0.543194   -0.172844
     51          6           0        7.592217    0.010787   -1.004322
     52          6           0        8.794842   -0.003668   -0.161554
     53          6           0       10.107973   -0.474174   -0.852213
     54          6           0        9.824577   -1.969318   -1.356812
     55          6           0       11.376701   -0.364571    0.030732
     56          6           0       12.715772   -0.565059   -0.635521
     57          6           0       13.806938   -0.201871    0.262719
     58          6           0       15.226435   -0.216299   -0.333764
     59          6           0       15.669542   -1.654636   -0.909400
     60          6           0       16.343757    0.424624    0.494854
     61          6           0       17.759045    0.680246   -0.165975
     62          6           0       18.635738    1.284154    0.722200
     63          6           0       20.086763    1.354503    0.173485
     64          6           0       20.210203    2.105148   -1.073238
     65          6           0       21.116325    1.801390    1.198803
     66          1           0       -4.085964    3.498689    1.738034
     67          1           0      -10.044569    4.032568   -0.829063
     68          1           0      -10.385108   -2.530958   -1.170474
     69          1           0       -2.682205   -0.988063    2.088916
     70          1           0       -2.248325    1.567276    0.916653
     71          1           0       -1.813001    1.075204    3.411141
     72          1           0       -3.416275    2.162697    3.782322
     73          1           0       -3.439645    0.193501    3.529402
     74          1           0       -2.250868   -1.691740   -0.241514
     75          1           0       -2.120003   -0.117537   -0.937001
     76          1           0       -0.454925    0.543902    0.837279
     77          1           0       -0.327358   -1.264935    1.407026
     78          1           0       -5.832143    6.845643    0.929413
     79          1           0       -5.248940    5.793019    2.279829
     80          1           0       -4.494072    5.626507    0.798784
     81          1           0       -9.314759    5.700912   -0.438213
     82          1           0       -9.285146    7.734297    0.803848
     83          1           0       -7.557268    7.108975    1.788385
     84          1           0      -11.974643    2.831442   -2.629562
     85          1           0      -13.356619    2.170775   -1.559705
     86          1           0      -12.211137    3.291255   -0.842172
     87          1           0      -12.385664   -1.699287   -1.071389
     88          1           0      -13.043967   -0.057283   -1.434755
     89          1           0      -13.069140   -1.878811   -3.699088
     90          1           0      -12.172298    0.006062   -3.656653
     91          1           0      -11.259253   -1.753019   -3.223492
     92          1           0       -8.940935   -4.550932   -1.767865
     93          1           0       -8.058088   -5.571033   -0.942515
     94          1           0       -9.553224   -4.999118   -0.255041
     95          1           0       -3.414515   -3.454016   -0.231104
     96          1           0       -1.577789   -4.436346    3.439383
     97          1           0       -2.901867   -5.510792    3.698497
     98          1           0       -1.224247   -5.783228    2.773887
     99          1           0        2.881959   -1.605491   -1.859197
    100          1           0        2.681507    0.089241   -1.940983
    101          1           0        4.326785   -1.119043    0.455112
    102          1           0        3.955924    1.604688   -2.602327
    103          1           0        5.589117    2.104784   -2.108537
    104          1           0        5.085834    0.638995   -3.164551
    105          1           0        6.523329    1.535210    0.073235
    106          1           0        6.155164   -0.051588    0.750774
    107          1           0        7.500417   -0.997363   -1.532860
    108          1           0        7.807148    0.805092   -1.827037
    109          1           0        8.775266    1.033798    0.220185
    110          1           0        8.888878   -0.815504    0.693260
    111          1           0       10.189486    0.200497   -1.877820
    112          1           0        9.087543   -2.174079   -2.195889
    113          1           0       10.933909   -2.121300   -1.810467
    114          1           0        9.664891   -2.638641   -0.613902
    115          1           0       11.349982    0.753842    0.429185
    116          1           0       11.343911   -0.988047    1.076264
    117          1           0       12.922885   -1.458567   -1.013383
    118          1           0       12.831720    0.178901   -1.397239
    119          1           0       13.887619    0.897191    0.734131
    120          1           0       13.631140   -0.901268    1.196987
    121          1           0       14.922904    0.354533   -1.253339
    122          1           0       15.593255   -2.420952   -0.047147
    123          1           0       14.899589   -1.951424   -1.416165
    124          1           0       16.556185   -1.743554   -1.626744
    125          1           0       15.988111    1.481686    1.067375
    126          1           0       16.435221   -0.285879    1.299649
    127          1           0       18.054551   -0.220530   -0.701926
    128          1           0       17.494428    1.276490   -1.038013
    129          1           0       18.080531    2.264829    0.936544
    130          1           0       18.455056    0.770124    1.664151
    131          1           0       20.417203    0.406175    0.029949
    132          1           0       20.294653    3.167545   -0.966820
    133          1           0       21.355002    1.851496   -1.371177
    134          1           0       19.748204    1.816011   -1.922694
    135          1           0       20.965622    1.405784    2.148099
    136          1           0       22.225421    1.770244    0.801999
    137          1           0       20.841945    2.874983    1.354473
 ---------------------------------------------------------------------

 SCF Done:  E(RCAM-B3LYP) =  -2932.60827245     A.U. after   18 cycles

 Excitation energies and oscillator strengths:

 Excited State   1:      Singlet-A      2.0389 eV  608.09 nm  f=0.3299  <S**2>=0.000
     240 -> 242       -0.15084
     240 -> 243        0.19599
     241 -> 242        0.65154
     241 -> 243        0.10057
 This state for optimization and/or second-order correction.
 Total Energy, E(TD-HF/TD-KS) =  -2932.53334339
 Copying the excited state density for this state as the 1-particle RhoCI density.

 The electronic state is 1-A.
 Alpha  occ. eigenvalues --  -46.83857 -19.26881 -19.25283 -19.21306 -19.20048
 Alpha  occ. eigenvalues --  -19.19872 -14.41535 -14.40259 -14.40247 -14.38942
 Alpha  occ. eigenvalues --  -10.39307 -10.38648 -10.35447 -10.31590 -10.30889
 Alpha  occ. eigenvalues --  -10.30691 -10.30586 -10.30547 -10.30398 -10.30288
 Alpha  occ. eigenvalues --  -10.29406 -10.28912 -10.28811 -10.28768 -10.28767
 Alpha  occ. eigenvalues --  -10.28716 -10.28609 -10.28365 -10.28217 -10.28052
 Alpha  occ. eigenvalues --  -10.27608 -10.27597 -10.27573 -10.27505 -10.27465
 Alpha  occ. eigenvalues --  -10.27208 -10.27191 -10.27168 -10.26934 -10.26655
 Alpha  occ. eigenvalues --  -10.26580 -10.26526 -10.26443 -10.26438 -10.26289
 Alpha  occ. eigenvalues --  -10.26222 -10.26218 -10.26197 -10.26190 -10.26190
 Alpha  occ. eigenvalues --  -10.26187 -10.26038 -10.26018 -10.25761 -10.25452
 Alpha  occ. eigenvalues --  -10.25374 -10.25304 -10.24745 -10.24523 -10.24368
 Alpha  occ. eigenvalues --  -10.24194 -10.24158 -10.23955 -10.23903 -10.23858
 Alpha  occ. eigenvalues --   -3.13054  -1.87750  -1.87295  -1.87248  -1.18994
 Alpha  occ. eigenvalues --   -1.16273  -1.09204  -1.08599  -1.07495  -1.04904
 Alpha  occ. eigenvalues --   -1.04105  -1.03444  -1.02200  -0.91819  -0.91607
 Alpha  occ. eigenvalues --   -0.90913  -0.90769  -0.90570  -0.90035  -0.89299
 Alpha  occ. eigenvalues --   -0.88380  -0.88240  -0.87648  -0.87202  -0.86272
 Alpha  occ. eigenvalues --   -0.85744  -0.84638  -0.83727  -0.83097  -0.82426
 Alpha  occ. eigenvalues --   -0.81911  -0.81381  -0.80736  -0.80325  -0.78650
 Alpha  occ. eigenvalues --   -0.77954  -0.77413  -0.76192  -0.76139  -0.75904
 Alpha  occ. eigenvalues --   -0.75633  -0.75427  -0.74409  -0.73517  -0.72229
 Alpha  occ. eigenvalues --   -0.71552  -0.70223  -0.69581  -0.69024  -0.68505
 Alpha  occ. eigenvalues --   -0.67493  -0.66179  -0.65765  -0.65126  -0.64506
 Alpha  occ. eigenvalues --   -0.64357  -0.64216  -0.62970  -0.62495  -0.62452
 Alpha  occ. eigenvalues --   -0.60852  -0.60568  -0.60292  -0.59369  -0.58893
 Alpha  occ. eigenvalues --   -0.58598  -0.57942  -0.57360  -0.56737  -0.56327
 Alpha  occ. eigenvalues --   -0.55937  -0.55580  -0.55288  -0.55086  -0.54725
 Alpha  occ. eigenvalues --   -0.54633  -0.54465  -0.53898  -0.53726  -0.53323
 Alpha  occ. eigenvalues --   -0.53158  -0.52956  -0.52342  -0.52160  -0.51811
 Alpha  occ. eigenvalues --   -0.51616  -0.51287  -0.51023  -0.50806  -0.50391
 Alpha  occ. eigenvalues --   -0.50342  -0.49998  -0.49845  -0.49748  -0.49572
 Alpha  occ. eigenvalues --   -0.49305  -0.49101  -0.48998  -0.48870  -0.48586
 Alpha  occ. eigenvalues --   -0.47948  -0.47895  -0.47716  -0.47479  -0.47263
 Alpha  occ. eigenvalues --   -0.46976  -0.46770  -0.46646  -0.46392  -0.46206
 Alpha  occ. eigenvalues --   -0.45982  -0.45351  -0.45283  -0.45111  -0.44843
 Alpha  occ. eigenvalues --   -0.44741  -0.44611  -0.44423  -0.44251  -0.43943
 Alpha  occ. eigenvalues --   -0.43748  -0.43583  -0.43467  -0.43182  -0.43071
 Alpha  occ. eigenvalues --   -0.42910  -0.42559  -0.42420  -0.42234  -0.42136
 Alpha  occ. eigenvalues --   -0.42086  -0.41929  -0.41853  -0.41408  -0.41134
 Alpha  occ. eigenvalues --   -0.41065  -0.40978  -0.40679  -0.40631  -0.40508
 Alpha  occ. eigenvalues --   -0.40376  -0.40344  -0.40012  -0.39751  -0.39057
 Alpha  occ. eigenvalues --   -0.38442  -0.38357  -0.38274  -0.37798  -0.37687
 Alpha  occ. eigenvalues --   -0.37565  -0.36862  -0.36794  -0.36648  -0.36482
 Alpha  occ. eigenvalues --   -0.36369  -0.35945  -0.35785  -0.35589  -0.35547
 Alpha  occ. eigenvalues --   -0.35360  -0.35119  -0.34899  -0.34117  -0.33748
 Alpha  occ. eigenvalues --   -0.33429  -0.33015  -0.32198  -0.31451  -0.29680
 Alpha  occ. eigenvalues --   -0.29069  -0.28615  -0.28482  -0.27804  -0.23844
 Alpha  occ. eigenvalues --   -0.21358
 Alpha virt. eigenvalues --   -0.07187  -0.02783   0.01429   0.04173   0.04792
 Alpha virt. eigenvalues --    0.05972   0.06227   0.06365   0.06621   0.07422
 Alpha virt. eigenvalues --    0.08403   0.09754   0.10818   0.11454   0.11953

 Mulliken charges:
               1
     1  Mg   0.811441
     2  C    0.101060
     3  C   -0.197097
     4  C   -0.183148
     5  C   -0.180731
     6  N   -0.634073
     7  C    0.286036
     8  C   -0.156633
     9  C   -0.140451
    10  C    0.333381
    11  C   -0.306161
    12  C   -0.184136
    13  C   -0.269335
    14  C    0.625070
    15  O   -0.460547
    16  O   -0.506353
    17  N   -0.708916
    18  C    0.333370
    19  C   -0.019836
    20  C    0.025257
    21  C    0.286719
    22  C   -0.371588
    23  C   -0.034890
    24  C   -0.272214
    25  N   -0.664064
    26  C    0.285744
    27  C    0.043898
    28  C   -0.048585
    29  C    0.321470
    30  C   -0.338766
    31  C   -0.219533
    32  C   -0.272305
    33  N   -0.725977
    34  C    0.230626
    35  C    0.024328
    36  C   -0.003741
    37  C    0.266305
    38  C   -0.362813
    39  C    0.363259
    40  O   -0.465920
    41  C   -0.329633
    42  C    0.594120
    43  O   -0.501093
    44  O   -0.406604
    45  C   -0.090912
    46  C    0.030794
    47  C   -0.148510
    48  C    0.112515
    49  C   -0.380368
    50  C   -0.224452
    51  C   -0.170136
    52  C   -0.128648
    53  C   -0.069772
    54  C   -0.315108
    55  C   -0.166847
    56  C   -0.158098
    57  C   -0.175244
    58  C   -0.068222
    59  C   -0.319657
    60  C   -0.174803
    61  C   -0.168718
    62  C   -0.162746
    63  C   -0.057008
    64  C   -0.300161
    65  C   -0.312411
    66  H    0.091268
    67  H    0.097106
    68  H    0.101802
    69  H    0.134101
    70  H    0.111811
    71  H    0.123206
    72  H    0.087771
    73  H    0.123258
    74  H    0.122265
    75  H    0.103654
    76  H    0.135504
    77  H    0.137124
    78  H    0.124487
    79  H    0.116317
    80  H    0.128847
    81  H    0.085210
    82  H    0.104498
    83  H    0.111863
    84  H    0.082885
    85  H    0.116060
    86  H    0.136342
    87  H    0.086819
    88  H    0.109693
    89  H    0.082690
    90  H    0.102276
    91  H    0.110344
    92  H    0.135607
    93  H    0.139177
    94  H    0.132957
    95  H    0.158437
    96  H    0.135086
    97  H    0.127948
    98  H    0.116433
    99  H    0.136195
   100  H    0.106581
   101  H    0.095021
   102  H    0.117553
   103  H    0.119544
   104  H    0.120988
   105  H    0.109788
   106  H    0.099499
   107  H    0.094052
   108  H    0.083988
   109  H    0.077432
   110  H    0.071177
   111  H    0.054798
   112  H    0.106083
   113  H    0.077009
   114  H    0.118892
   115  H    0.087636
   116  H    0.073104
   117  H    0.117306
   118  H    0.100706
   119  H    0.077943
   120  H    0.059199
   121  H    0.073450
   122  H    0.088190
   123  H    0.112444
   124  H    0.101300
   125  H    0.048188
   126  H    0.100147
   127  H    0.090490
   128  H    0.094767
   129  H    0.080058
   130  H    0.091085
   131  H    0.106364
   132  H    0.110022
   133  H    0.063706
   134  H    0.117253
   135  H    0.109095
   136  H    0.087772
   137  H    0.089905
 Sum of Mulliken charges =   0.00000

 Dipole moment (field-independent basis, Debye):
    X=              0.3983    Y=              5.4964    Z=             -0.3467  Tot=              5.5217
 Quadrupole moment (field-independent basis, Debye-Ang):
   XX=           -343.4499   YY=           -396.8474   ZZ=           -397.7664
   XY=            -34.0551   XZ=              3.7362   YZ=              0.0456

 Normal termination of Gaussian 09 at Sat Jul  6 01:22:58 2019.
