 Gaussian 16, Revision A.03,
 Gaussian 16:  ES64L-G16RevA.03 25-Dec-2016

 ----------------------------------------------------------------------
 # td=(NStates=1) iop(3/107=0140000000,3/108=0140000000) CAM-B3LYP/6-31
 G(d,p)
 ----------------------------------------------------------------------

 --
 TD
 --
 Symbolic Z-matrix:
 Charge =  0 Multiplicity = 1

                         Standard orientation:
 ---------------------------------------------------------------------
 Center     Atomic      Atomic             Coordinates (Angstroms)
 Number     Number       Type             X           Y           Z
 ---------------------------------------------------------------------
      1         12           0       -7.164724    0.591404    0.139425
      2          6           0       -4.834876   -1.913762    0.491246
      3          6           0       -4.850855    2.849911    1.155640
      4          6           0       -9.416115    3.128507   -0.322224
      5          6           0       -9.574301   -1.755346   -0.747532
      6          7           0       -5.079378    0.511669    0.693836
      7          6           0       -4.315903   -0.662292    0.799432
      8          6           0       -2.904032   -0.403951    1.221230
      9          6           0       -2.985738    1.092856    1.624283
     10          6           0       -4.335269    1.504229    1.199174
     11          6           0       -2.718633    1.432779    3.118092
     12          6           0       -1.901353   -0.677258    0.075958
     13          6           0       -0.462030   -0.490569    0.624530
     14          6           0        0.557413   -0.859491   -0.530840
     15          8           0        0.264938   -1.400756   -1.599193
     16          8           0        1.793510   -0.317002   -0.281442
     17          7           0       -7.028921    2.664618    0.260801
     18          6           0       -6.004637    3.355246    0.727994
     19          6           0       -6.365973    4.766365    0.777772
     20          6           0       -7.674353    4.857403    0.306251
     21          6           0       -8.069402    3.520486   -0.043395
     22          6           0       -5.422001    5.834191    1.192277
     23          6           0       -8.580662    6.006149    0.093330
     24          6           0       -8.424858    7.188630    0.648761
     25          7           0       -9.123143    0.688890   -0.616037
     26          6           0       -9.859755    1.838967   -0.701394
     27          6           0      -11.267509    1.459764   -1.040753
     28          6           0      -11.316511    0.078782   -1.126431
     29          6           0       -9.960957   -0.388544   -0.850483
     30          6           0      -12.343003    2.406627   -1.383309
     31          6           0      -12.432148   -0.804457   -1.655745
     32          6           0      -12.148032   -1.183073   -3.118258
     33          7           0       -7.214581   -1.319059   -0.090657
     34          6           0       -8.281293   -2.143880   -0.478096
     35          6           0       -7.924044   -3.529987   -0.457038
     36          6           0       -6.556279   -3.507986   -0.086929
     37          6           0       -6.121539   -2.204371    0.130923
     38          6           0       -8.652860   -4.854834   -0.919171
     39          6           0       -5.268913   -4.313645    0.099017
     40          8           0       -5.153954   -5.540822    0.198955
     41          6           0       -4.185927   -3.277783    0.525417
     42          6           0       -3.576043   -3.639649    1.872232
     43          8           0       -3.580083   -2.996767    2.939535
     44          8           0       -2.863019   -4.753353    1.775229
     45          6           0       -2.245664   -5.337825    2.949090
     46          6           0        2.788717   -0.732403   -1.275707
     47          6           0        4.192629   -0.573036   -0.579350
     48          6           0        5.035034    0.339756   -0.906147
     49          6           0        5.017269    1.354730   -2.212419
     50          6           0        6.413743    0.320477   -0.218411
     51          6           0        7.604110   -0.126638   -1.153506
     52          6           0        8.877163    0.039808   -0.206165
     53          6           0       10.177159   -0.414329   -0.953355
     54          6           0       10.130579   -1.835035   -1.464140
     55          6           0       11.417994   -0.258321   -0.040907
     56          6           0       12.685150   -0.482695   -0.744737
     57          6           0       13.920471   -0.125817    0.153395
     58          6           0       15.310970   -0.160317   -0.456580
     59          6           0       15.711555   -1.636730   -0.916003
     60          6           0       16.297832    0.506462    0.510024
     61          6           0       17.746377    0.549490   -0.118582
     62          6           0       18.788195    1.241076    0.907896
     63          6           0       20.266582    1.216106    0.290877
     64          6           0       20.311962    1.980539   -1.125071
     65          6           0       21.237961    1.874970    1.294593
     66          1           0       -3.997931    3.540024    1.529178
     67          1           0      -10.263111    3.934404   -0.432565
     68          1           0      -10.319412   -2.490126   -0.960194
     69          1           0       -2.841278   -1.107031    2.183173
     70          1           0       -2.280326    1.516046    0.918322
     71          1           0       -1.680367    1.062751    3.418031
     72          1           0       -2.968680    2.461438    3.498133
     73          1           0       -3.465485    0.780598    3.595339
     74          1           0       -1.978737   -1.643012   -0.442743
     75          1           0       -2.369589    0.131425   -0.769515
     76          1           0       -0.081800    0.540587    0.888166
     77          1           0       -0.386056   -1.351040    1.450575
     78          1           0       -5.720011    6.805280    0.578061
     79          1           0       -5.545634    6.094453    2.247847
     80          1           0       -4.498342    5.330727    1.113977
     81          1           0       -9.442701    5.721152   -0.648822
     82          1           0       -8.859380    8.088995    0.202009
     83          1           0       -7.696282    7.249200    1.378014
     84          1           0      -11.873093    3.214157   -2.073925
     85          1           0      -13.225268    1.806794   -1.950284
     86          1           0      -12.772416    2.827552   -0.386128
     87          1           0      -12.440273   -1.842434   -1.061732
     88          1           0      -13.440388   -0.144999   -1.521508
     89          1           0      -12.951570   -1.890898   -3.552258
     90          1           0      -11.975705   -0.249355   -3.748054
     91          1           0      -11.245680   -1.667090   -3.009023
     92          1           0       -8.990233   -4.559424   -1.950220
     93          1           0       -7.957717   -5.777267   -0.840234
     94          1           0       -9.452235   -5.173034   -0.342901
     95          1           0       -3.236901   -3.202861   -0.180879
     96          1           0       -1.686220   -4.545154    3.603072
     97          1           0       -3.040510   -5.726679    3.712330
     98          1           0       -1.729559   -6.178078    2.808019
     99          1           0        2.497056   -1.802445   -1.461122
    100          1           0        2.834755    0.030091   -1.949860
    101          1           0        4.201055   -1.174017    0.094300
    102          1           0        3.832063    1.405065   -2.527058
    103          1           0        5.364195    2.498003   -1.863915
    104          1           0        5.541875    0.816603   -3.155305
    105          1           0        6.508452    1.206543    0.368051
    106          1           0        6.383838   -0.227930    0.598641
    107          1           0        7.483711   -1.093741   -1.871417
    108          1           0        7.766986    0.619974   -1.922949
    109          1           0        8.982112    1.143893   -0.001950
    110          1           0        8.839466   -0.879865    0.355620
    111          1           0       10.334777    0.172785   -1.928747
    112          1           0        9.471559   -1.898635   -2.270265
    113          1           0       11.011706   -2.311282   -1.687112
    114          1           0        9.564104   -2.473814   -0.499724
    115          1           0       11.221054    0.774229    0.546011
    116          1           0       11.327463   -1.152535    0.697214
    117          1           0       12.997534   -1.589639   -1.038383
    118          1           0       12.581455    0.186140   -1.674648
    119          1           0       13.890339    0.887255    0.617556
    120          1           0       13.787294   -0.712526    1.055906
    121          1           0       15.195089    0.508180   -1.113377
    122          1           0       15.959188   -2.541271   -0.070655
    123          1           0       14.952537   -1.875338   -1.513496
    124          1           0       16.706059   -1.545344   -1.247567
    125          1           0       15.810024    1.266630    0.749793
    126          1           0       16.443993   -0.152498    1.440132
    127          1           0       18.051226   -0.451092   -0.237816
    128          1           0       17.937701    1.282237   -0.886864
    129          1           0       18.385806    2.214475    1.134663
    130          1           0       18.881882    0.785036    1.811334
    131          1           0       20.458942    0.192308    0.254417
    132          1           0       19.888207    2.990933   -0.841683
    133          1           0       21.361157    2.108004   -1.347054
    134          1           0       19.722156    1.480037   -1.783475
    135          1           0       21.218584    1.223402    2.194535
    136          1           0       22.232373    1.992524    0.853208
    137          1           0       21.148436    2.988761    1.455873
 ---------------------------------------------------------------------

 SCF Done:  E(RCAM-B3LYP) =  -2933.42960185     A.U. after   16 cycles

 Excitation energies and oscillator strengths:

 Excited State   1:      Singlet-A      2.0580 eV  602.46 nm  f=0.2173  <S**2>=0.000
     240 -> 243       -0.25364
     241 -> 242        0.65415
 This state for optimization and/or second-order correction.
 Total Energy, E(TD-HF/TD-DFT) =  -2933.35397253
 Copying the excited state density for this state as the 1-particle RhoCI density.

 The electronic state is 1-A.
 Alpha  occ. eigenvalues --  -46.79281 -19.22654 -19.21744 -19.16957 -19.16535
 Alpha  occ. eigenvalues --  -19.16167 -14.37875 -14.34870 -14.34689 -14.34581
 Alpha  occ. eigenvalues --  -10.35197 -10.34809 -10.31088 -10.27599 -10.26529
 Alpha  occ. eigenvalues --  -10.26369 -10.26324 -10.25945 -10.25751 -10.25596
 Alpha  occ. eigenvalues --  -10.25048 -10.24886 -10.24794 -10.24470 -10.24363
 Alpha  occ. eigenvalues --  -10.24361 -10.24064 -10.23774 -10.23734 -10.23568
 Alpha  occ. eigenvalues --  -10.23493 -10.23444 -10.23421 -10.23406 -10.22992
 Alpha  occ. eigenvalues --  -10.22880 -10.22752 -10.22545 -10.22380 -10.22360
 Alpha  occ. eigenvalues --  -10.22311 -10.22243 -10.22132 -10.22035 -10.21989
 Alpha  occ. eigenvalues --  -10.21867 -10.21805 -10.21788 -10.21743 -10.21495
 Alpha  occ. eigenvalues --  -10.21374 -10.21069 -10.21043 -10.20639 -10.20637
 Alpha  occ. eigenvalues --  -10.20602 -10.20463 -10.20409 -10.20386 -10.20015
 Alpha  occ. eigenvalues --  -10.19877 -10.19616 -10.19475 -10.19348 -10.19330
 Alpha  occ. eigenvalues --   -3.07951  -1.82885  -1.82428  -1.82357  -1.13346
 Alpha  occ. eigenvalues --   -1.11808  -1.04822  -1.03371  -1.02833  -0.99606
 Alpha  occ. eigenvalues --   -0.98605  -0.97130  -0.96137  -0.88038  -0.86107
 Alpha  occ. eigenvalues --   -0.85451  -0.84941  -0.84412  -0.84027  -0.83493
 Alpha  occ. eigenvalues --   -0.82812  -0.82471  -0.82005  -0.81189  -0.80512
 Alpha  occ. eigenvalues --   -0.79913  -0.79084  -0.78785  -0.77993  -0.77665
 Alpha  occ. eigenvalues --   -0.76699  -0.76224  -0.75598  -0.74210  -0.73048
 Alpha  occ. eigenvalues --   -0.72738  -0.72319  -0.71464  -0.71301  -0.70986
 Alpha  occ. eigenvalues --   -0.70599  -0.70067  -0.69795  -0.69120  -0.67790
 Alpha  occ. eigenvalues --   -0.67297  -0.65954  -0.65016  -0.63983  -0.63461
 Alpha  occ. eigenvalues --   -0.63248  -0.62417  -0.61073  -0.60595  -0.60501
 Alpha  occ. eigenvalues --   -0.60011  -0.59364  -0.58969  -0.58425  -0.57749
 Alpha  occ. eigenvalues --   -0.57684  -0.57247  -0.56073  -0.55080  -0.54795
 Alpha  occ. eigenvalues --   -0.54215  -0.53835  -0.53668  -0.53355  -0.52769
 Alpha  occ. eigenvalues --   -0.52136  -0.52023  -0.51425  -0.51363  -0.50611
 Alpha  occ. eigenvalues --   -0.50540  -0.50280  -0.50107  -0.49818  -0.49006
 Alpha  occ. eigenvalues --   -0.48603  -0.48351  -0.48307  -0.48002  -0.47843
 Alpha  occ. eigenvalues --   -0.47547  -0.47326  -0.47166  -0.46886  -0.46815
 Alpha  occ. eigenvalues --   -0.46579  -0.46405  -0.46195  -0.46099  -0.45685
 Alpha  occ. eigenvalues --   -0.45481  -0.45300  -0.44813  -0.44696  -0.44487
 Alpha  occ. eigenvalues --   -0.44353  -0.44343  -0.44128  -0.43883  -0.43876
 Alpha  occ. eigenvalues --   -0.43388  -0.43330  -0.42839  -0.42764  -0.42656
 Alpha  occ. eigenvalues --   -0.42552  -0.42283  -0.41905  -0.41558  -0.41335
 Alpha  occ. eigenvalues --   -0.41068  -0.40994  -0.40469  -0.40365  -0.40315
 Alpha  occ. eigenvalues --   -0.40297  -0.40175  -0.39924  -0.39674  -0.39545
 Alpha  occ. eigenvalues --   -0.39370  -0.39151  -0.39054  -0.38780  -0.38751
 Alpha  occ. eigenvalues --   -0.38618  -0.38389  -0.38290  -0.38084  -0.38033
 Alpha  occ. eigenvalues --   -0.37713  -0.37635  -0.37444  -0.37373  -0.37053
 Alpha  occ. eigenvalues --   -0.36961  -0.36619  -0.36404  -0.36097  -0.35904
 Alpha  occ. eigenvalues --   -0.35891  -0.35533  -0.35386  -0.35219  -0.34812
 Alpha  occ. eigenvalues --   -0.34404  -0.34353  -0.34116  -0.33766  -0.33349
 Alpha  occ. eigenvalues --   -0.32941  -0.32891  -0.32802  -0.32591  -0.32524
 Alpha  occ. eigenvalues --   -0.32173  -0.31533  -0.30987  -0.30640  -0.30316
 Alpha  occ. eigenvalues --   -0.30186  -0.29787  -0.29557  -0.28295  -0.28168
 Alpha  occ. eigenvalues --   -0.26811  -0.26351  -0.25177  -0.24634  -0.21603
 Alpha  occ. eigenvalues --   -0.19707
 Alpha virt. eigenvalues --   -0.06657  -0.03897  -0.00417   0.02129   0.03156
 Alpha virt. eigenvalues --    0.03486   0.04537   0.04763   0.05080   0.05678
 Alpha virt. eigenvalues --    0.06638   0.08225   0.09077   0.09204   0.09646

 Mulliken charges:
               1
     1  Mg   0.818517
     2  C    0.109881
     3  C   -0.240155
     4  C   -0.179884
     5  C   -0.149826
     6  N   -0.610333
     7  C    0.272776
     8  C   -0.173582
     9  C   -0.147342
    10  C    0.346076
    11  C   -0.314694
    12  C   -0.163081
    13  C   -0.258645
    14  C    0.587348
    15  O   -0.469883
    16  O   -0.478005
    17  N   -0.712153
    18  C    0.408182
    19  C    0.001748
    20  C    0.012811
    21  C    0.277907
    22  C   -0.371453
    23  C   -0.040830
    24  C   -0.261770
    25  N   -0.680020
    26  C    0.302553
    27  C    0.017333
    28  C    0.048897
    29  C    0.274110
    30  C   -0.376719
    31  C   -0.242752
    32  C   -0.287341
    33  N   -0.767418
    34  C    0.294449
    35  C   -0.009198
    36  C    0.007924
    37  C    0.261257
    38  C   -0.374262
    39  C    0.371928
    40  O   -0.457476
    41  C   -0.351460
    42  C    0.626390
    43  O   -0.493271
    44  O   -0.416386
    45  C   -0.083358
    46  C    0.014508
    47  C   -0.050322
    48  C    0.078541
    49  C   -0.342571
    50  C   -0.215149
    51  C   -0.192533
    52  C   -0.167776
    53  C   -0.084472
    54  C   -0.287286
    55  C   -0.139172
    56  C   -0.173608
    57  C   -0.195605
    58  C   -0.043455
    59  C   -0.305420
    60  C   -0.153562
    61  C   -0.190594
    62  C   -0.193463
    63  C   -0.063917
    64  C   -0.319780
    65  C   -0.312103
    66  H    0.069478
    67  H    0.086423
    68  H    0.083933
    69  H    0.140655
    70  H    0.114332
    71  H    0.109221
    72  H    0.115499
    73  H    0.129291
    74  H    0.133338
    75  H    0.086478
    76  H    0.142794
    77  H    0.133976
    78  H    0.114421
    79  H    0.127310
    80  H    0.115128
    81  H    0.078488
    82  H    0.103856
    83  H    0.098583
    84  H    0.116613
    85  H    0.097851
    86  H    0.119344
    87  H    0.090601
    88  H    0.079516
    89  H    0.096253
    90  H    0.106279
    91  H    0.118995
    92  H    0.123538
    93  H    0.142527
    94  H    0.133557
    95  H    0.157355
    96  H    0.121949
    97  H    0.115046
    98  H    0.139875
    99  H    0.131918
   100  H    0.101963
   101  H    0.058659
   102  H    0.093291
   103  H    0.107794
   104  H    0.125692
   105  H    0.096693
   106  H    0.105329
   107  H    0.090476
   108  H    0.101365
   109  H    0.110485
   110  H    0.111958
   111  H    0.063570
   112  H    0.108193
   113  H    0.117619
   114  H    0.041087
   115  H    0.072145
   116  H    0.077882
   117  H    0.091961
   118  H    0.078768
   119  H    0.068311
   120  H    0.089109
   121  H    0.099851
   122  H    0.064044
   123  H    0.111023
   124  H    0.110593
   125  H    0.080658
   126  H    0.075459
   127  H    0.101756
   128  H    0.102564
   129  H    0.086852
   130  H    0.088099
   131  H    0.093532
   132  H    0.098126
   133  H    0.102898
   134  H    0.118428
   135  H    0.099976
   136  H    0.093218
   137  H    0.095099
 Sum of Mulliken charges =  -0.00000

 Dipole moment (field-independent basis, Debye):
    X=              3.5375    Y=              3.2878    Z=              0.6825  Tot=              4.8774
 Quadrupole moment (field-independent basis, Debye-Ang):
   XX=           -356.9570   YY=           -392.8117   ZZ=           -398.6249
   XY=            -11.0301   XZ=              4.5386   YZ=             -4.0845

 Normal termination of Gaussian 16 at Mon Sep 23 17:35:04 2019.
