 Gaussian 16, Revision A.03,
 Gaussian 16:  ES64L-G16RevA.03 25-Dec-2016

 ----------------------------------------------------------------------
 # td=(NStates=1) iop(3/107=0140000000,3/108=0140000000) CAM-B3LYP/6-31
 G(d,p)
 ----------------------------------------------------------------------

 --
 TD
 --
 Symbolic Z-matrix:
 Charge =  0 Multiplicity = 1

                         Standard orientation:
 ---------------------------------------------------------------------
 Center     Atomic      Atomic             Coordinates (Angstroms)
 Number     Number       Type             X           Y           Z
 ---------------------------------------------------------------------
      1         12           0       -7.115680    0.555869   -0.129949
      2          6           0       -4.755183   -1.942476    0.357993
      3          6           0       -4.775068    2.894354    1.084999
      4          6           0       -9.418206    3.040491   -0.497344
      5          6           0       -9.558978   -1.814761   -0.974183
      6          7           0       -5.155606    0.387122    0.601440
      7          6           0       -4.379548   -0.671116    0.691870
      8          6           0       -2.941178   -0.335868    1.202260
      9          6           0       -3.106389    1.103836    1.675818
     10          6           0       -4.400532    1.558611    1.056305
     11          6           0       -3.129282    1.155178    3.127448
     12          6           0       -1.848238   -0.600467    0.149389
     13          6           0       -0.390751   -0.354393    0.570360
     14          6           0        0.579768   -0.662161   -0.586686
     15          8           0        0.397251   -0.829469   -1.687897
     16          8           0        1.927506   -0.557276   -0.034269
     17          7           0       -7.141519    2.558497    0.234871
     18          6           0       -6.072146    3.314947    0.661286
     19          6           0       -6.460478    4.670609    0.802400
     20          6           0       -7.790838    4.849667    0.387458
     21          6           0       -8.180704    3.470804    0.002215
     22          6           0       -5.648337    5.845893    1.274102
     23          6           0       -8.703192    6.006514    0.298453
     24          6           0       -8.633367    7.246242    0.932863
     25          7           0       -9.049292    0.618186   -0.634801
     26          6           0       -9.880718    1.743719   -0.724123
     27          6           0      -11.222855    1.470667   -1.090288
     28          6           0      -11.276671    0.069542   -1.258736
     29          6           0       -9.984566   -0.381376   -0.903745
     30          6           0      -12.285732    2.479331   -1.426741
     31          6           0      -12.344999   -0.803586   -1.660829
     32          6           0      -12.301347   -1.282783   -3.165319
     33          7           0       -7.220649   -1.407463   -0.257563
     34          6           0       -8.300966   -2.193443   -0.556502
     35          6           0       -7.845557   -3.612562   -0.404578
     36          6           0       -6.487677   -3.592804   -0.120659
     37          6           0       -6.114529   -2.242895    0.063090
     38          6           0       -8.751705   -4.815501   -0.693117
     39          6           0       -5.399752   -4.398152    0.258314
     40          8           0       -5.184798   -5.589105    0.300129
     41          6           0       -4.179891   -3.338792    0.579934
     42          6           0       -3.481550   -3.612099    1.868525
     43          8           0       -3.671169   -2.958615    2.940411
     44          8           0       -2.819711   -4.801857    1.849535
     45          6           0       -2.026770   -5.151357    3.058248
     46          6           0        2.835220   -0.772983   -1.104896
     47          6           0        4.201644   -0.365556   -0.575376
     48          6           0        5.137640    0.444321   -1.045369
     49          6           0        4.961726    1.474822   -2.147389
     50          6           0        6.472591    0.640167   -0.184025
     51          6           0        7.618060   -0.080703   -0.865531
     52          6           0        8.951664   -0.099423   -0.181197
     53          6           0       10.243062   -0.552105   -0.864311
     54          6           0       10.173267   -2.025641   -1.299486
     55          6           0       11.412917   -0.170198    0.010396
     56          6           0       12.777490   -0.464039   -0.678180
     57          6           0       13.995131   -0.263428    0.173516
     58          6           0       15.311289   -0.235661   -0.517615
     59          6           0       15.691769   -1.652855   -1.070969
     60          6           0       16.501961    0.236421    0.422550
     61          6           0       17.828562    0.423429   -0.221378
     62          6           0       18.776006    1.213513    0.695721
     63          6           0       20.282169    1.407239    0.226039
     64          6           0       20.432293    2.121464   -1.073632
     65          6           0       21.070180    1.977914    1.334760
     66          1           0       -4.103319    3.600145    1.562891
     67          1           0      -10.280527    3.712759   -0.435093
     68          1           0      -10.166446   -2.463094   -1.207637
     69          1           0       -2.811100   -0.990392    2.215211
     70          1           0       -2.244037    1.667305    1.219201
     71          1           0       -2.297940    0.679909    3.620427
     72          1           0       -3.326777    2.208345    3.462588
     73          1           0       -3.989784    0.620063    3.476702
     74          1           0       -1.851102   -1.661034   -0.129259
     75          1           0       -1.891203    0.127773   -0.630639
     76          1           0       -0.142722    0.794374    0.805638
     77          1           0       -0.137957   -1.047843    1.374679
     78          1           0       -5.542351    6.700151    0.771082
     79          1           0       -5.822270    6.292354    2.389365
     80          1           0       -4.605526    5.540307    1.317775
     81          1           0       -9.560754    5.804750   -0.433763
     82          1           0       -9.082518    8.044787    0.528606
     83          1           0       -7.670427    7.499123    1.555909
     84          1           0      -11.946018    3.191365   -2.153226
     85          1           0      -13.207737    2.033717   -2.037270
     86          1           0      -12.675053    3.051981   -0.478804
     87          1           0      -12.482803   -1.742727   -1.124827
     88          1           0      -13.223328   -0.368023   -1.635277
     89          1           0      -13.090771   -1.877356   -3.536828
     90          1           0      -12.353423   -0.299434   -3.916646
     91          1           0      -11.408394   -1.733487   -3.650090
     92          1           0       -9.140168   -4.877615   -1.844991
     93          1           0       -8.346969   -5.861468   -0.488222
     94          1           0       -9.648889   -4.858834   -0.270485
     95          1           0       -3.365476   -3.609699   -0.062390
     96          1           0       -1.528177   -4.196831    3.537446
     97          1           0       -2.653084   -5.388521    3.983661
     98          1           0       -1.350420   -5.931622    2.862962
     99          1           0        2.763619   -1.905831   -1.406201
    100          1           0        2.749129   -0.177942   -1.902124
    101          1           0        4.408881   -1.047940    0.245882
    102          1           0        3.900892    1.580887   -2.440364
    103          1           0        5.406438    2.431548   -1.817413
    104          1           0        5.833384    1.282186   -2.912287
    105          1           0        6.965166    1.546259   -0.007898
    106          1           0        6.269486   -0.053098    0.841425
    107          1           0        7.386173   -1.054205   -1.077267
    108          1           0        7.943760    0.483206   -1.988935
    109          1           0        9.317237    1.010869    0.184672
    110          1           0        8.949628   -0.576001    0.890527
    111          1           0       10.535252   -0.015281   -1.691542
    112          1           0        9.183123   -2.354119   -1.792763
    113          1           0       10.981741   -2.449027   -2.038601
    114          1           0       10.272269   -2.636208   -0.331160
    115          1           0       11.565274    0.924674    0.389853
    116          1           0       11.465205   -0.821873    0.917711
    117          1           0       12.717397   -1.314828   -1.306844
    118          1           0       12.779374    0.410584   -1.570478
    119          1           0       13.906377    0.721921    0.613718
    120          1           0       14.055004   -1.023293    1.101291
    121          1           0       15.120124    0.469520   -1.462532
    122          1           0       15.778927   -2.249179   -0.090789
    123          1           0       14.797259   -2.122230   -1.605922
    124          1           0       16.643329   -1.802087   -1.845623
    125          1           0       16.249572    1.203978    0.903084
    126          1           0       16.371796   -0.366015    1.254547
    127          1           0       18.224081   -0.549263   -0.481573
    128          1           0       17.594034    0.985713   -1.128179
    129          1           0       18.153275    2.276273    0.917069
    130          1           0       18.879767    0.786213    1.882883
    131          1           0       20.544171    0.236139    0.017655
    132          1           0       20.118878    3.211143   -0.953775
    133          1           0       21.557455    2.002618   -1.347610
    134          1           0       19.631698    1.533410   -1.815540
    135          1           0       20.994771    1.888470    2.493310
    136          1           0       22.261527    1.849476    1.022590
    137          1           0       20.776724    2.924800    1.254360
 ---------------------------------------------------------------------

 SCF Done:  E(RCAM-B3LYP) =  -2933.46958762     A.U. after   16 cycles

 Excitation energies and oscillator strengths:

 Excited State   1:      Singlet-A      1.9851 eV  624.58 nm  f=0.2433  <S**2>=0.000
     240 -> 243        0.24011
     241 -> 242        0.65959
 This state for optimization and/or second-order correction.
 Total Energy, E(TD-HF/TD-DFT) =  -2933.39663707
 Copying the excited state density for this state as the 1-particle RhoCI density.

 The electronic state is 1-A.
 Alpha  occ. eigenvalues --  -46.78848 -19.22850 -19.20088 -19.19184 -19.16888
 Alpha  occ. eigenvalues --  -19.16115 -14.37981 -14.35961 -14.35338 -14.35320
 Alpha  occ. eigenvalues --  -10.34759 -10.34578 -10.31213 -10.28100 -10.26612
 Alpha  occ. eigenvalues --  -10.26585 -10.25908 -10.25895 -10.25730 -10.25646
 Alpha  occ. eigenvalues --  -10.25607 -10.25224 -10.25199 -10.24518 -10.24317
 Alpha  occ. eigenvalues --  -10.24221 -10.24097 -10.23649 -10.23527 -10.23347
 Alpha  occ. eigenvalues --  -10.23338 -10.22985 -10.22955 -10.22954 -10.22905
 Alpha  occ. eigenvalues --  -10.22787 -10.22770 -10.22738 -10.22718 -10.22704
 Alpha  occ. eigenvalues --  -10.22554 -10.22476 -10.22474 -10.22424 -10.22404
 Alpha  occ. eigenvalues --  -10.22347 -10.22258 -10.22175 -10.22151 -10.22058
 Alpha  occ. eigenvalues --  -10.21969 -10.21933 -10.21906 -10.21854 -10.21610
 Alpha  occ. eigenvalues --  -10.21540 -10.21521 -10.21447 -10.21438 -10.21367
 Alpha  occ. eigenvalues --  -10.20740 -10.20641 -10.20616 -10.20416 -10.19860
 Alpha  occ. eigenvalues --   -3.07729  -1.82646  -1.82209  -1.82153  -1.15598
 Alpha  occ. eigenvalues --   -1.11219  -1.06892  -1.05374  -1.01497  -0.98896
 Alpha  occ. eigenvalues --   -0.97793  -0.97658  -0.96658  -0.87813  -0.86027
 Alpha  occ. eigenvalues --   -0.85618  -0.85087  -0.84503  -0.84336  -0.83810
 Alpha  occ. eigenvalues --   -0.83415  -0.83060  -0.82891  -0.81943  -0.81418
 Alpha  occ. eigenvalues --   -0.80439  -0.79552  -0.79047  -0.78630  -0.77562
 Alpha  occ. eigenvalues --   -0.76774  -0.76285  -0.75728  -0.74778  -0.73567
 Alpha  occ. eigenvalues --   -0.73258  -0.72633  -0.72050  -0.70806  -0.70686
 Alpha  occ. eigenvalues --   -0.70325  -0.69661  -0.68897  -0.68738  -0.68197
 Alpha  occ. eigenvalues --   -0.67666  -0.66431  -0.65616  -0.65008  -0.64196
 Alpha  occ. eigenvalues --   -0.63357  -0.61820  -0.61138  -0.60814  -0.60410
 Alpha  occ. eigenvalues --   -0.59468  -0.58889  -0.58256  -0.58105  -0.57226
 Alpha  occ. eigenvalues --   -0.57216  -0.56247  -0.56116  -0.55700  -0.55350
 Alpha  occ. eigenvalues --   -0.54861  -0.54087  -0.53729  -0.53490  -0.52544
 Alpha  occ. eigenvalues --   -0.52397  -0.52215  -0.51532  -0.51190  -0.50795
 Alpha  occ. eigenvalues --   -0.50572  -0.50207  -0.49850  -0.49753  -0.48995
 Alpha  occ. eigenvalues --   -0.48771  -0.48675  -0.48508  -0.48331  -0.48225
 Alpha  occ. eigenvalues --   -0.47727  -0.47373  -0.47234  -0.47170  -0.46978
 Alpha  occ. eigenvalues --   -0.46909  -0.46586  -0.46307  -0.46039  -0.45903
 Alpha  occ. eigenvalues --   -0.45467  -0.45403  -0.44960  -0.44822  -0.44641
 Alpha  occ. eigenvalues --   -0.44547  -0.44412  -0.44277  -0.43869  -0.43539
 Alpha  occ. eigenvalues --   -0.43192  -0.43058  -0.42684  -0.42628  -0.42236
 Alpha  occ. eigenvalues --   -0.42110  -0.42060  -0.42003  -0.41685  -0.41556
 Alpha  occ. eigenvalues --   -0.41345  -0.41243  -0.41045  -0.40976  -0.40782
 Alpha  occ. eigenvalues --   -0.40560  -0.40408  -0.40348  -0.40189  -0.40103
 Alpha  occ. eigenvalues --   -0.39896  -0.39573  -0.39410  -0.39238  -0.39083
 Alpha  occ. eigenvalues --   -0.38852  -0.38829  -0.38636  -0.38163  -0.38070
 Alpha  occ. eigenvalues --   -0.37941  -0.37727  -0.37669  -0.37420  -0.37252
 Alpha  occ. eigenvalues --   -0.36984  -0.36649  -0.36520  -0.36058  -0.35758
 Alpha  occ. eigenvalues --   -0.35305  -0.34996  -0.34878  -0.34437  -0.34289
 Alpha  occ. eigenvalues --   -0.34176  -0.33790  -0.33611  -0.33371  -0.33329
 Alpha  occ. eigenvalues --   -0.33181  -0.32896  -0.32417  -0.32312  -0.32221
 Alpha  occ. eigenvalues --   -0.32048  -0.31947  -0.31847  -0.31564  -0.31061
 Alpha  occ. eigenvalues --   -0.30790  -0.30300  -0.29479  -0.28662  -0.27523
 Alpha  occ. eigenvalues --   -0.27473  -0.27014  -0.26040  -0.24765  -0.22166
 Alpha  occ. eigenvalues --   -0.20494
 Alpha virt. eigenvalues --   -0.07694  -0.05098  -0.00561   0.01347   0.02211
 Alpha virt. eigenvalues --    0.03984   0.04224   0.04527   0.05239   0.06085
 Alpha virt. eigenvalues --    0.06853   0.08590   0.09193   0.09394   0.09446

 Mulliken charges:
               1
     1  Mg   0.816498
     2  C    0.074908
     3  C   -0.177759
     4  C   -0.182000
     5  C   -0.081190
     6  N   -0.632677
     7  C    0.350854
     8  C   -0.173112
     9  C   -0.134354
    10  C    0.300161
    11  C   -0.306890
    12  C   -0.157736
    13  C   -0.274828
    14  C    0.586811
    15  O   -0.381466
    16  O   -0.508404
    17  N   -0.701898
    18  C    0.341519
    19  C   -0.017938
    20  C    0.070959
    21  C    0.261140
    22  C   -0.379540
    23  C   -0.090112
    24  C   -0.243693
    25  N   -0.673761
    26  C    0.291875
    27  C    0.043586
    28  C    0.073381
    29  C    0.243885
    30  C   -0.392136
    31  C   -0.247415
    32  C   -0.331423
    33  N   -0.749188
    34  C    0.329451
    35  C    0.005784
    36  C    0.070775
    37  C    0.240269
    38  C   -0.388072
    39  C    0.360188
    40  O   -0.444439
    41  C   -0.319238
    42  C    0.601201
    43  O   -0.502571
    44  O   -0.440196
    45  C   -0.091036
    46  C    0.035959
    47  C   -0.152756
    48  C    0.149264
    49  C   -0.372578
    50  C   -0.213210
    51  C   -0.147414
    52  C   -0.162719
    53  C   -0.032048
    54  C   -0.317626
    55  C   -0.172799
    56  C   -0.182501
    57  C   -0.150629
    58  C   -0.061370
    59  C   -0.295307
    60  C   -0.168280
    61  C   -0.168010
    62  C   -0.151083
    63  C   -0.042889
    64  C   -0.282134
    65  C   -0.290491
    66  H    0.099357
    67  H    0.085942
    68  H    0.034906
    69  H    0.125437
    70  H    0.086896
    71  H    0.116863
    72  H    0.094545
    73  H    0.132461
    74  H    0.110855
    75  H    0.120772
    76  H    0.128980
    77  H    0.137573
    78  H    0.139814
    79  H    0.095587
    80  H    0.095940
    81  H    0.087263
    82  H    0.111262
    83  H    0.088543
    84  H    0.137684
    85  H    0.104783
    86  H    0.116946
    87  H    0.114337
    88  H    0.115725
    89  H    0.114857
    90  H    0.066812
    91  H    0.113320
    92  H    0.103974
    93  H    0.138529
    94  H    0.142006
    95  H    0.148956
    96  H    0.119019
    97  H    0.132505
    98  H    0.138678
    99  H    0.095758
   100  H    0.108195
   101  H    0.081845
   102  H    0.120828
   103  H    0.122219
   104  H    0.111917
   105  H    0.110669
   106  H    0.076579
   107  H    0.111838
   108  H    0.038018
   109  H    0.054705
   110  H    0.076039
   111  H    0.096617
   112  H    0.101973
   113  H    0.093940
   114  H    0.094909
   115  H    0.088617
   116  H    0.083807
   117  H    0.105855
   118  H    0.045963
   119  H    0.097886
   120  H    0.065648
   121  H    0.059684
   122  H    0.090438
   123  H    0.093460
   124  H    0.084530
   125  H    0.076309
   126  H    0.096236
   127  H    0.102325
   128  H    0.104814
   129  H    0.047672
   130  H    0.060416
   131  H    0.061545
   132  H    0.100124
   133  H    0.100705
   134  H    0.088823
   135  H    0.099359
   136  H    0.067771
   137  H    0.119283
 Sum of Mulliken charges =  -0.00000

 Dipole moment (field-independent basis, Debye):
    X=             -0.8178    Y=              2.7681    Z=             -0.5946  Tot=              2.9470
 Quadrupole moment (field-independent basis, Debye-Ang):
   XX=           -352.4990   YY=           -391.6660   ZZ=           -400.2878
   XY=             -3.9358   XZ=             19.6700   YZ=             -2.7853

 Normal termination of Gaussian 16 at Mon Sep 16 03:59:55 2019.
