 Gaussian 09, Revision D.01,
 Gaussian 09:  ES64L-G09RevD.01 24-Apr-2013

 -------------------------------------
 # td=(NStates=1) CAM-B3LYP/6-31G(d,p)
 -------------------------------------

 --
 TD
 --
 Symbolic Z-matrix:
 Charge =  0 Multiplicity = 1

                         Standard orientation:
 ---------------------------------------------------------------------
 Center     Atomic      Atomic             Coordinates (Angstroms)
 Number     Number       Type             X           Y           Z
 ---------------------------------------------------------------------
      1         12           0       -7.252491    0.569884    0.081037
      2          6           0       -4.795647   -1.932851    0.545734
      3          6           0       -4.912013    2.741481    1.122493
      4          6           0       -9.545995    3.072297   -0.461702
      5          6           0       -9.490837   -1.859722   -0.882494
      6          7           0       -5.231509    0.412405    0.632681
      7          6           0       -4.374043   -0.634406    0.762183
      8          6           0       -3.002482   -0.334589    1.224980
      9          6           0       -3.033557    1.172165    1.577359
     10          6           0       -4.501446    1.525062    1.114190
     11          6           0       -3.013020    1.397835    3.073932
     12          6           0       -1.954538   -0.634249   -0.027653
     13          6           0       -0.476677   -0.401004    0.456930
     14          6           0        0.693228   -0.758168   -0.558416
     15          8           0        0.309842   -0.954086   -1.751426
     16          8           0        1.838196   -0.436594   -0.098228
     17          7           0       -7.209662    2.598503    0.382294
     18          6           0       -6.126560    3.290993    0.736339
     19          6           0       -6.545955    4.757532    0.739272
     20          6           0       -7.842089    4.814590    0.330865
     21          6           0       -8.254205    3.474033   -0.020814
     22          6           0       -5.445059    5.802556    1.131021
     23          6           0       -8.571902    5.993647    0.184280
     24          6           0       -8.443565    7.109386    0.910046
     25          7           0       -9.181575    0.634842   -0.656515
     26          6           0       -9.898895    1.734071   -0.769728
     27          6           0      -11.292389    1.394165   -1.136048
     28          6           0      -11.297800    0.059047   -1.323554
     29          6           0       -9.931296   -0.490473   -0.902662
     30          6           0      -12.327167    2.330688   -1.402282
     31          6           0      -12.439908   -0.859848   -1.818876
     32          6           0      -12.477508   -1.038740   -3.320408
     33          7           0       -7.234215   -1.337803   -0.053287
     34          6           0       -8.242116   -2.238092   -0.479684
     35          6           0       -7.874608   -3.598437   -0.461501
     36          6           0       -6.512003   -3.495799   -0.043312
     37          6           0       -6.219596   -2.155476    0.229949
     38          6           0       -8.577593   -4.857740   -0.925602
     39          6           0       -5.336117   -4.325523    0.297228
     40          8           0       -5.070145   -5.556822    0.127589
     41          6           0       -4.167919   -3.299056    0.642330
     42          6           0       -3.562302   -3.758034    1.918582
     43          8           0       -3.783026   -3.128046    2.920315
     44          8           0       -2.695118   -4.661342    1.797289
     45          6           0       -2.019197   -5.120042    3.010461
     46          6           0        2.818181   -0.540566   -1.074775
     47          6           0        4.131099   -0.351276   -0.448044
     48          6           0        5.142513    0.329215   -0.796700
     49          6           0        5.196689    1.225596   -2.022361
     50          6           0        6.510907    0.515821   -0.005828
     51          6           0        7.667409   -0.026397   -0.874343
     52          6           0        8.950263   -0.062162    0.084552
     53          6           0       10.101889   -0.498394   -0.730429
     54          6           0       10.164232   -1.912211   -1.318635
     55          6           0       11.543199   -0.304840    0.010929
     56          6           0       12.817131   -0.432591   -0.721531
     57          6           0       14.001447   -0.125149    0.183215
     58          6           0       15.373556   -0.186644   -0.474874
     59          6           0       15.870269   -1.609704   -0.959906
     60          6           0       16.475654    0.442571    0.342774
     61          6           0       17.836211    0.422264   -0.284525
     62          6           0       18.855476    1.212423    0.599494
     63          6           0       20.343264    1.261017    0.154507
     64          6           0       20.396949    2.063987   -1.103994
     65          6           0       21.240810    1.865528    1.240590
     66          1           0       -4.310601    3.659452    1.547189
     67          1           0      -10.388027    3.732538   -0.679528
     68          1           0      -10.268070   -2.578872   -1.179304
     69          1           0       -2.855944   -0.808471    2.270355
     70          1           0       -2.090630    1.828285    1.061118
     71          1           0       -1.980023    1.392776    3.296089
     72          1           0       -3.249867    2.585590    3.346299
     73          1           0       -3.587882    0.454442    3.650304
     74          1           0       -1.908008   -1.748057   -0.227300
     75          1           0       -2.334845    0.009014   -0.918211
     76          1           0       -0.274310    0.580204    0.811998
     77          1           0       -0.252725   -0.890444    1.460073
     78          1           0       -5.806670    6.585682    0.559215
     79          1           0       -5.254777    5.985292    2.160201
     80          1           0       -4.532277    5.447566    0.926461
     81          1           0       -9.435040    6.046193   -0.445560
     82          1           0       -9.006983    8.019221    0.570255
     83          1           0       -7.946195    7.300098    1.970159
     84          1           0      -12.165976    2.621851   -2.490493
     85          1           0      -13.235955    1.725881   -1.397180
     86          1           0      -12.569795    3.234991   -0.638852
     87          1           0      -12.258467   -1.769010   -1.103950
     88          1           0      -13.394424   -0.439642   -1.398665
     89          1           0      -13.362615   -1.720354   -3.410460
     90          1           0      -12.754494   -0.138025   -4.031011
     91          1           0      -11.574471   -1.466296   -3.736176
     92          1           0       -8.789040   -4.749036   -1.963381
     93          1           0       -7.870992   -5.708273   -0.927269
     94          1           0       -9.506759   -5.219878   -0.398956
     95          1           0       -3.322779   -3.488886   -0.160146
     96          1           0       -1.345280   -4.342362    3.500874
     97          1           0       -2.850440   -5.091140    3.882905
     98          1           0       -1.562496   -6.069661    2.900066
     99          1           0        2.749400   -1.479877   -1.515243
    100          1           0        2.624994    0.244100   -1.794673
    101          1           0        4.407187   -1.013377    0.424370
    102          1           0        4.254799    1.140619   -2.723893
    103          1           0        5.366608    2.401164   -2.130914
    104          1           0        5.999932    0.855696   -2.696129
    105          1           0        6.658724    1.351958    0.400475
    106          1           0        6.463267   -0.278489    0.843842
    107          1           0        7.282417   -1.030814   -1.327978
    108          1           0        7.841915    0.606398   -1.817735
    109          1           0        9.138388    0.912499    0.357442
    110          1           0        8.792198   -0.817071    0.901962
    111          1           0       10.307024    0.064869   -1.633247
    112          1           0        9.522301   -2.089928   -2.319392
    113          1           0       11.240838   -2.263802   -1.839194
    114          1           0        9.912256   -2.660700   -0.623377
    115          1           0       11.432667    0.701990    0.376958
    116          1           0       11.446154   -0.945308    0.979580
    117          1           0       12.991762   -1.357678   -1.005608
    118          1           0       12.663855    0.292130   -1.605310
    119          1           0       13.669034    0.882014    0.456769
    120          1           0       14.050400   -0.847504    1.014615
    121          1           0       15.460801    0.404943   -1.461069
    122          1           0       16.137758   -2.337454   -0.155127
    123          1           0       14.879832   -2.139734   -1.493905
    124          1           0       16.780064   -1.741370   -1.683668
    125          1           0       16.325028    1.541984    0.473330
    126          1           0       16.513490   -0.119033    1.298588
    127          1           0       18.196411   -0.536744   -0.652955
    128          1           0       17.680241    0.918825   -1.245800
    129          1           0       18.363553    2.211762    0.579210
    130          1           0       18.769550    0.582055    1.459822
    131          1           0       20.766745    0.369600    0.210318
    132          1           0       19.955560    2.999404   -0.831505
    133          1           0       21.391878    2.245238   -1.406159
    134          1           0       19.856209    1.866772   -2.031916
    135          1           0       21.266580    1.251596    2.229952
    136          1           0       22.407438    1.802230    0.816629
    137          1           0       20.964015    2.936542    1.649515
 ---------------------------------------------------------------------

 SCF Done:  E(RCAM-B3LYP) =  -2932.65038210     A.U. after   17 cycles

 Excitation energies and oscillator strengths:

 Excited State   1:      Singlet-A      2.0317 eV  610.24 nm  f=0.3074  <S**2>=0.000
     240 -> 243       -0.21206
     241 -> 242        0.66076
 This state for optimization and/or second-order correction.
 Total Energy, E(TD-HF/TD-KS) =  -2932.57571704
 Copying the excited state density for this state as the 1-particle RhoCI density.

 The electronic state is 1-A.
 Alpha  occ. eigenvalues --  -46.82965 -19.29078 -19.27129 -19.20261 -19.19266
 Alpha  occ. eigenvalues --  -19.18454 -14.40983 -14.39704 -14.39397 -14.39147
 Alpha  occ. eigenvalues --  -10.39758 -10.37409 -10.34610 -10.32774 -10.31749
 Alpha  occ. eigenvalues --  -10.30057 -10.29851 -10.29797 -10.29653 -10.29055
 Alpha  occ. eigenvalues --  -10.28792 -10.28620 -10.28619 -10.28449 -10.28437
 Alpha  occ. eigenvalues --  -10.28259 -10.28038 -10.27914 -10.27788 -10.27698
 Alpha  occ. eigenvalues --  -10.27621 -10.27594 -10.27556 -10.27500 -10.27476
 Alpha  occ. eigenvalues --  -10.27351 -10.27342 -10.27131 -10.27120 -10.26964
 Alpha  occ. eigenvalues --  -10.26760 -10.26654 -10.26581 -10.26454 -10.26405
 Alpha  occ. eigenvalues --  -10.26201 -10.26193 -10.26084 -10.25948 -10.25938
 Alpha  occ. eigenvalues --  -10.25807 -10.25746 -10.25711 -10.25318 -10.25058
 Alpha  occ. eigenvalues --  -10.25042 -10.24956 -10.24924 -10.24816 -10.24740
 Alpha  occ. eigenvalues --  -10.24571 -10.24531 -10.24133 -10.23969 -10.23316
 Alpha  occ. eigenvalues --   -3.12322  -1.87003  -1.86555  -1.86540  -1.23032
 Alpha  occ. eigenvalues --   -1.20776  -1.08647  -1.07506  -1.06985  -1.04151
 Alpha  occ. eigenvalues --   -1.03216  -1.02992  -1.01908  -0.92126  -0.91295
 Alpha  occ. eigenvalues --   -0.91190  -0.90150  -0.90096  -0.88915  -0.88669
 Alpha  occ. eigenvalues --   -0.88553  -0.88169  -0.87523  -0.86985  -0.86766
 Alpha  occ. eigenvalues --   -0.85479  -0.84373  -0.83883  -0.83260  -0.82894
 Alpha  occ. eigenvalues --   -0.81720  -0.81565  -0.80443  -0.79848  -0.78411
 Alpha  occ. eigenvalues --   -0.77389  -0.76728  -0.76021  -0.75793  -0.75669
 Alpha  occ. eigenvalues --   -0.75260  -0.74732  -0.74160  -0.73697  -0.72652
 Alpha  occ. eigenvalues --   -0.70702  -0.69955  -0.69264  -0.69022  -0.67702
 Alpha  occ. eigenvalues --   -0.67048  -0.66831  -0.65997  -0.65154  -0.64715
 Alpha  occ. eigenvalues --   -0.64327  -0.63633  -0.63220  -0.62970  -0.62149
 Alpha  occ. eigenvalues --   -0.61762  -0.61135  -0.60042  -0.59649  -0.59264
 Alpha  occ. eigenvalues --   -0.58499  -0.58206  -0.57844  -0.57556  -0.56573
 Alpha  occ. eigenvalues --   -0.56423  -0.55831  -0.55647  -0.55411  -0.55270
 Alpha  occ. eigenvalues --   -0.54635  -0.54488  -0.54272  -0.53845  -0.53621
 Alpha  occ. eigenvalues --   -0.53342  -0.52406  -0.52241  -0.51941  -0.51742
 Alpha  occ. eigenvalues --   -0.51491  -0.50711  -0.50475  -0.50348  -0.50092
 Alpha  occ. eigenvalues --   -0.49911  -0.49876  -0.49611  -0.49554  -0.49111
 Alpha  occ. eigenvalues --   -0.48906  -0.48629  -0.48602  -0.48361  -0.47966
 Alpha  occ. eigenvalues --   -0.47899  -0.47208  -0.46921  -0.46738  -0.46676
 Alpha  occ. eigenvalues --   -0.46510  -0.46395  -0.46217  -0.46006  -0.45889
 Alpha  occ. eigenvalues --   -0.45698  -0.45541  -0.45468  -0.45239  -0.45067
 Alpha  occ. eigenvalues --   -0.44686  -0.44559  -0.44252  -0.44189  -0.44124
 Alpha  occ. eigenvalues --   -0.43965  -0.43721  -0.43433  -0.43383  -0.43036
 Alpha  occ. eigenvalues --   -0.42812  -0.42585  -0.42298  -0.42229  -0.42012
 Alpha  occ. eigenvalues --   -0.41843  -0.41386  -0.41154  -0.40960  -0.40782
 Alpha  occ. eigenvalues --   -0.40693  -0.40508  -0.40474  -0.40355  -0.40211
 Alpha  occ. eigenvalues --   -0.39891  -0.39447  -0.39378  -0.39290  -0.39179
 Alpha  occ. eigenvalues --   -0.38651  -0.38461  -0.38180  -0.37508  -0.37479
 Alpha  occ. eigenvalues --   -0.37225  -0.37145  -0.37025  -0.36812  -0.36477
 Alpha  occ. eigenvalues --   -0.36362  -0.36278  -0.36076  -0.35936  -0.35801
 Alpha  occ. eigenvalues --   -0.35599  -0.35178  -0.34859  -0.33398  -0.32929
 Alpha  occ. eigenvalues --   -0.32567  -0.32056  -0.31856  -0.31215  -0.30596
 Alpha  occ. eigenvalues --   -0.29363  -0.28787  -0.28181  -0.27169  -0.22964
 Alpha  occ. eigenvalues --   -0.20953
 Alpha virt. eigenvalues --   -0.06458  -0.02223   0.02283   0.03913   0.05239
 Alpha virt. eigenvalues --    0.06429   0.06709   0.07160   0.07433   0.07981
 Alpha virt. eigenvalues --    0.08819   0.10488   0.11523   0.11566   0.11908

 Mulliken charges:
               1
     1  Mg   0.820261
     2  C    0.068486
     3  C   -0.203562
     4  C   -0.146154
     5  C   -0.161922
     6  N   -0.645083
     7  C    0.321286
     8  C   -0.172720
     9  C   -0.127686
    10  C    0.364230
    11  C   -0.296983
    12  C   -0.156632
    13  C   -0.274246
    14  C    0.580768
    15  O   -0.500134
    16  O   -0.394105
    17  N   -0.697876
    18  C    0.332020
    19  C   -0.035556
    20  C    0.051988
    21  C    0.266299
    22  C   -0.348088
    23  C   -0.101560
    24  C   -0.252522
    25  N   -0.691210
    26  C    0.305969
    27  C    0.042566
    28  C   -0.009487
    29  C    0.255369
    30  C   -0.395261
    31  C   -0.238711
    32  C   -0.299719
    33  N   -0.743970
    34  C    0.258524
    35  C    0.076054
    36  C   -0.048867
    37  C    0.316900
    38  C   -0.392763
    39  C    0.359850
    40  O   -0.497581
    41  C   -0.330790
    42  C    0.621635
    43  O   -0.499908
    44  O   -0.402872
    45  C   -0.102662
    46  C    0.013137
    47  C   -0.150576
    48  C    0.128698
    49  C   -0.380496
    50  C   -0.192394
    51  C   -0.194715
    52  C   -0.162179
    53  C   -0.066296
    54  C   -0.302742
    55  C   -0.185042
    56  C   -0.159255
    57  C   -0.169640
    58  C   -0.056342
    59  C   -0.318308
    60  C   -0.147543
    61  C   -0.206263
    62  C   -0.164247
    63  C   -0.036800
    64  C   -0.308380
    65  C   -0.302449
    66  H    0.066669
    67  H    0.099756
    68  H    0.106075
    69  H    0.135167
    70  H    0.088493
    71  H    0.114393
    72  H    0.088720
    73  H    0.116607
    74  H    0.121852
    75  H    0.126852
    76  H    0.126701
    77  H    0.109451
    78  H    0.130841
    79  H    0.121672
    80  H    0.120871
    81  H    0.099531
    82  H    0.094070
    83  H    0.107154
    84  H    0.127486
    85  H    0.114173
    86  H    0.104892
    87  H    0.099148
    88  H    0.102843
    89  H    0.105870
    90  H    0.101396
    91  H    0.121724
    92  H    0.134443
    93  H    0.154868
    94  H    0.122983
    95  H    0.150883
    96  H    0.128403
    97  H    0.131611
    98  H    0.142916
    99  H    0.144670
   100  H    0.129549
   101  H    0.082046
   102  H    0.088822
   103  H    0.108766
   104  H    0.122333
   105  H    0.116377
   106  H    0.079915
   107  H    0.099681
   108  H    0.093512
   109  H    0.112485
   110  H    0.101565
   111  H    0.087059
   112  H    0.074548
   113  H    0.079062
   114  H    0.106639
   115  H    0.078830
   116  H    0.064268
   117  H    0.106685
   118  H    0.081808
   119  H    0.096676
   120  H    0.096669
   121  H    0.074635
   122  H    0.099245
   123  H    0.067064
   124  H    0.107346
   125  H    0.083828
   126  H    0.079097
   127  H    0.088683
   128  H    0.081940
   129  H    0.087305
   130  H    0.092790
   131  H    0.098631
   132  H    0.102978
   133  H    0.098093
   134  H    0.104536
   135  H    0.091715
   136  H    0.071952
   137  H    0.087939
 Sum of Mulliken charges =   0.00000

 Dipole moment (field-independent basis, Debye):
    X=              2.0325    Y=              4.3548    Z=              0.6190  Tot=              4.8455
 Quadrupole moment (field-independent basis, Debye-Ang):
   XX=           -339.5144   YY=           -394.5376   ZZ=           -397.5383
   XY=            -24.4259   XZ=             13.7372   YZ=             -4.5271

 Normal termination of Gaussian 09 at Tue Jul  2 16:03:37 2019.
