 Gaussian 09, Revision D.01,
 Gaussian 09:  ES64L-G09RevD.01 24-Apr-2013

 -------------------------------------
 # td=(NStates=1) CAM-B3LYP/6-31G(d,p)
 -------------------------------------

 --
 TD
 --
 Symbolic Z-matrix:
 Charge =  0 Multiplicity = 1

                         Standard orientation:
 ---------------------------------------------------------------------
 Center     Atomic      Atomic             Coordinates (Angstroms)
 Number     Number       Type             X           Y           Z
 ---------------------------------------------------------------------
      1         12           0       -7.074030    0.651722    0.106971
      2          6           0       -4.853574   -1.906139    0.498149
      3          6           0       -4.679124    2.833263    1.123081
      4          6           0       -9.388773    3.070413   -0.529933
      5          6           0       -9.541250   -1.724609   -0.867813
      6          7           0       -5.142304    0.544067    0.775727
      7          6           0       -4.352369   -0.689834    0.782960
      8          6           0       -2.945997   -0.360942    1.150639
      9          6           0       -3.027671    1.068548    1.667815
     10          6           0       -4.347746    1.536067    1.226559
     11          6           0       -2.875193    1.223335    3.244864
     12          6           0       -1.942853   -0.635949    0.034413
     13          6           0       -0.554334   -0.479490    0.499124
     14          6           0        0.470222   -0.759697   -0.667652
     15          8           0        0.204247   -1.241084   -1.708580
     16          8           0        1.726809   -0.435667   -0.238622
     17          7           0       -7.128022    2.653397    0.299225
     18          6           0       -6.048023    3.396707    0.743800
     19          6           0       -6.393716    4.740421    0.760445
     20          6           0       -7.678033    4.923195    0.241895
     21          6           0       -8.098608    3.532347    0.030529
     22          6           0       -5.398968    5.817079    1.097990
     23          6           0       -8.588033    5.974503    0.189288
     24          6           0       -8.533775    7.072331    0.952280
     25          7           0       -9.005096    0.725441   -0.567160
     26          6           0       -9.781840    1.875366   -0.774685
     27          6           0      -11.072598    1.499613   -1.116759
     28          6           0      -11.233963    0.164179   -1.195595
     29          6           0       -9.867235   -0.372966   -0.957654
     30          6           0      -12.170325    2.512988   -1.407473
     31          6           0      -12.357361   -0.734447   -1.686559
     32          6           0      -12.170047   -1.066942   -3.222796
     33          7           0       -7.116198   -1.377269   -0.283021
     34          6           0       -8.184382   -2.180771   -0.592815
     35          6           0       -7.922992   -3.606514   -0.592543
     36          6           0       -6.559005   -3.548555   -0.077207
     37          6           0       -6.183171   -2.216080    0.111620
     38          6           0       -8.770518   -4.826815   -0.768054
     39          6           0       -5.389268   -4.362233    0.290307
     40          8           0       -5.159654   -5.537750    0.454269
     41          6           0       -4.206513   -3.356553    0.536615
     42          6           0       -3.567041   -3.597712    1.990461
     43          8           0       -3.824614   -3.072790    2.991786
     44          8           0       -2.740939   -4.667158    1.855442
     45          6           0       -2.177080   -5.150700    3.087206
     46          6           0        2.817537   -0.809031   -1.204149
     47          6           0        4.124486   -0.428770   -0.520984
     48          6           0        5.098570    0.237215   -1.018484
     49          6           0        5.098867    0.972847   -2.356338
     50          6           0        6.500638    0.444278   -0.258164
     51          6           0        7.590459   -0.110935   -1.112346
     52          6           0        8.868358   -0.157505   -0.348002
     53          6           0       10.158555   -0.623319   -1.015291
     54          6           0       10.066124   -2.193634   -1.245598
     55          6           0       11.265126   -0.325900   -0.072345
     56          6           0       12.692431   -0.520172   -0.759006
     57          6           0       13.885099   -0.102200    0.152198
     58          6           0       15.231800   -0.241161   -0.496546
     59          6           0       15.741400   -1.632689   -0.940304
     60          6           0       16.377377    0.515865    0.367202
     61          6           0       17.790142    0.589243   -0.194379
     62          6           0       18.737909    1.353620    0.818386
     63          6           0       20.279359    1.410621    0.418557
     64          6           0       20.463248    2.140745   -0.968535
     65          6           0       21.063605    2.023435    1.432307
     66          1           0       -3.969398    3.683271    1.308318
     67          1           0      -10.054504    3.918488   -0.710561
     68          1           0      -10.275596   -2.385528   -1.077886
     69          1           0       -2.720016   -1.118315    1.904824
     70          1           0       -2.294431    1.788350    1.195747
     71          1           0       -2.092796    0.588497    3.657912
     72          1           0       -2.873059    2.317994    3.473491
     73          1           0       -3.864994    0.601808    3.552605
     74          1           0       -2.310012   -1.734067   -0.340221
     75          1           0       -2.255155    0.123961   -0.766458
     76          1           0       -0.360987    0.521358    0.774215
     77          1           0       -0.068241   -1.206334    1.397806
     78          1           0       -5.695524    6.556741    0.387732
     79          1           0       -5.670995    6.227011    2.236646
     80          1           0       -4.377206    5.585985    0.973395
     81          1           0       -9.431634    6.025412   -0.535750
     82          1           0       -9.252643    7.856465    1.028338
     83          1           0       -7.981524    7.150229    1.994065
     84          1           0      -12.186455    3.300391   -2.333423
     85          1           0      -13.143651    2.092941   -1.359101
     86          1           0      -12.296749    3.342128   -0.592950
     87          1           0      -12.379754   -1.680139   -1.194548
     88          1           0      -13.335528   -0.503292   -1.401341
     89          1           0      -12.922566   -1.888925   -3.787230
     90          1           0      -12.136579   -0.189367   -3.686425
     91          1           0      -11.142908   -1.545485   -3.394787
     92          1           0       -9.655545   -4.742970   -1.621972
     93          1           0       -7.881661   -5.605776   -1.076973
     94          1           0       -9.398629   -5.033708    0.253293
     95          1           0       -3.453236   -3.568583   -0.180965
     96          1           0       -1.418579   -4.504855    3.550502
     97          1           0       -2.963688   -5.468671    3.638421
     98          1           0       -1.456361   -5.906223    2.942873
     99          1           0        2.936908   -1.886843   -1.428640
    100          1           0        2.506591   -0.385568   -2.127046
    101          1           0        4.322680   -1.118934    0.448171
    102          1           0        4.084790    0.967749   -2.896471
    103          1           0        5.366884    2.175978   -2.227188
    104          1           0        5.963837    0.788850   -3.060013
    105          1           0        6.531087    1.544145   -0.020985
    106          1           0        6.424640   -0.249682    0.594070
    107          1           0        7.514298   -1.249557   -1.328533
    108          1           0        7.728858    0.675865   -2.012933
    109          1           0        9.242581    0.858591    0.070262
    110          1           0        8.709761   -0.669371    0.550413
    111          1           0       10.006598   -0.306113   -1.909849
    112          1           0        9.333477   -2.552002   -1.944505
    113          1           0       11.100864   -2.680480   -1.476887
    114          1           0        9.991737   -2.645431   -0.260454
    115          1           0       11.169829    0.728032    0.125914
    116          1           0       11.408066   -0.937310    0.788201
    117          1           0       12.684104   -1.488024   -1.091199
    118          1           0       12.914053    0.037583   -1.756683
    119          1           0       13.788477    0.897473    0.536786
    120          1           0       13.863578   -0.595447    1.146263
    121          1           0       15.270872    0.226270   -1.434187
    122          1           0       15.756339   -2.250642   -0.053583
    123          1           0       15.154742   -2.155474   -1.532057
    124          1           0       16.798098   -1.710508   -1.298640
    125          1           0       16.304319    1.508502    0.504514
    126          1           0       16.520943    0.197604    1.368133
    127          1           0       18.292805   -0.493277   -0.245523
    128          1           0       17.930011    1.130459   -1.104821
    129          1           0       18.403510    2.485306    0.751061
    130          1           0       18.774479    0.931272    1.786285
    131          1           0       20.581878    0.358357    0.225849
    132          1           0       20.257936    3.127232   -0.728115
    133          1           0       21.517841    2.364887   -1.369994
    134          1           0       19.806066    1.733268   -1.813553
    135          1           0       20.872618    1.440273    2.366102
    136          1           0       22.178650    2.274344    1.323341
    137          1           0       20.529125    3.083571    1.751371
 ---------------------------------------------------------------------

 SCF Done:  E(RCAM-B3LYP) =  -2932.64877008     A.U. after   18 cycles

 Excitation energies and oscillator strengths:

 Excited State   1:      Singlet-A      1.7933 eV  691.38 nm  f=0.3596  <S**2>=0.000
     240 -> 243       -0.16878
     241 -> 242        0.68240
 This state for optimization and/or second-order correction.
 Total Energy, E(TD-HF/TD-KS) =  -2932.58286770
 Copying the excited state density for this state as the 1-particle RhoCI density.

 The electronic state is 1-A.
 Alpha  occ. eigenvalues --  -46.83476 -19.25563 -19.25323 -19.21458 -19.21121
 Alpha  occ. eigenvalues --  -19.19720 -14.41360 -14.39561 -14.39361 -14.39178
 Alpha  occ. eigenvalues --  -10.38743 -10.38637 -10.34571 -10.32035 -10.30387
 Alpha  occ. eigenvalues --  -10.30236 -10.29731 -10.29730 -10.29728 -10.29673
 Alpha  occ. eigenvalues --  -10.29665 -10.29563 -10.28994 -10.28550 -10.28447
 Alpha  occ. eigenvalues --  -10.28027 -10.27962 -10.27878 -10.27858 -10.27492
 Alpha  occ. eigenvalues --  -10.27467 -10.27397 -10.27382 -10.27291 -10.27260
 Alpha  occ. eigenvalues --  -10.27164 -10.27139 -10.26906 -10.26816 -10.26733
 Alpha  occ. eigenvalues --  -10.26703 -10.26682 -10.26649 -10.26626 -10.26547
 Alpha  occ. eigenvalues --  -10.26535 -10.26515 -10.26346 -10.26341 -10.26158
 Alpha  occ. eigenvalues --  -10.25938 -10.25923 -10.25845 -10.25813 -10.25624
 Alpha  occ. eigenvalues --  -10.25567 -10.25219 -10.25105 -10.25019 -10.24879
 Alpha  occ. eigenvalues --  -10.24658 -10.24441 -10.24219 -10.23686 -10.22916
 Alpha  occ. eigenvalues --   -3.12650  -1.87352  -1.86875  -1.86855  -1.18886
 Alpha  occ. eigenvalues --   -1.17588  -1.10972  -1.10534  -1.09439  -1.04984
 Alpha  occ. eigenvalues --   -1.04024  -1.02671  -1.01537  -0.92034  -0.91822
 Alpha  occ. eigenvalues --   -0.90421  -0.90132  -0.89799  -0.89626  -0.89268
 Alpha  occ. eigenvalues --   -0.88461  -0.87886  -0.87487  -0.86809  -0.85973
 Alpha  occ. eigenvalues --   -0.85108  -0.84299  -0.83693  -0.83042  -0.82805
 Alpha  occ. eigenvalues --   -0.81329  -0.81097  -0.80365  -0.79636  -0.77805
 Alpha  occ. eigenvalues --   -0.77284  -0.76643  -0.76082  -0.75831  -0.75410
 Alpha  occ. eigenvalues --   -0.75357  -0.74926  -0.74468  -0.73724  -0.72917
 Alpha  occ. eigenvalues --   -0.71670  -0.70825  -0.69918  -0.69145  -0.68025
 Alpha  occ. eigenvalues --   -0.67129  -0.66273  -0.65516  -0.65213  -0.64643
 Alpha  occ. eigenvalues --   -0.64259  -0.64090  -0.63677  -0.62309  -0.62007
 Alpha  occ. eigenvalues --   -0.62003  -0.61561  -0.59927  -0.59193  -0.58498
 Alpha  occ. eigenvalues --   -0.58404  -0.57872  -0.57504  -0.56685  -0.56405
 Alpha  occ. eigenvalues --   -0.55975  -0.55691  -0.55549  -0.55357  -0.54728
 Alpha  occ. eigenvalues --   -0.54524  -0.54255  -0.53968  -0.53540  -0.53280
 Alpha  occ. eigenvalues --   -0.52891  -0.52788  -0.52071  -0.51918  -0.51806
 Alpha  occ. eigenvalues --   -0.51788  -0.51060  -0.50982  -0.50946  -0.50590
 Alpha  occ. eigenvalues --   -0.50478  -0.50219  -0.50070  -0.49817  -0.49442
 Alpha  occ. eigenvalues --   -0.48975  -0.48883  -0.48786  -0.48646  -0.48504
 Alpha  occ. eigenvalues --   -0.48108  -0.47739  -0.47548  -0.47365  -0.47115
 Alpha  occ. eigenvalues --   -0.46931  -0.46439  -0.46371  -0.46091  -0.45760
 Alpha  occ. eigenvalues --   -0.45644  -0.45443  -0.45351  -0.45197  -0.45061
 Alpha  occ. eigenvalues --   -0.44853  -0.44440  -0.44208  -0.43878  -0.43833
 Alpha  occ. eigenvalues --   -0.43613  -0.43427  -0.43185  -0.43162  -0.42977
 Alpha  occ. eigenvalues --   -0.42848  -0.42669  -0.42543  -0.42285  -0.42123
 Alpha  occ. eigenvalues --   -0.42019  -0.41750  -0.41640  -0.41511  -0.41194
 Alpha  occ. eigenvalues --   -0.41067  -0.40825  -0.40803  -0.40465  -0.40433
 Alpha  occ. eigenvalues --   -0.40137  -0.40109  -0.39836  -0.39356  -0.39325
 Alpha  occ. eigenvalues --   -0.39054  -0.38802  -0.38760  -0.38267  -0.38134
 Alpha  occ. eigenvalues --   -0.37491  -0.37115  -0.36989  -0.36858  -0.36437
 Alpha  occ. eigenvalues --   -0.36232  -0.36194  -0.36095  -0.35919  -0.35894
 Alpha  occ. eigenvalues --   -0.35805  -0.35696  -0.34914  -0.33913  -0.33843
 Alpha  occ. eigenvalues --   -0.33608  -0.33123  -0.31564  -0.31143  -0.30940
 Alpha  occ. eigenvalues --   -0.29514  -0.29229  -0.28616  -0.27025  -0.23128
 Alpha  occ. eigenvalues --   -0.21392
 Alpha virt. eigenvalues --   -0.08417  -0.02116   0.02046   0.04008   0.06205
 Alpha virt. eigenvalues --    0.06910   0.07045   0.07126   0.07740   0.08088
 Alpha virt. eigenvalues --    0.08345   0.10492   0.11068   0.11569   0.11628

 Mulliken charges:
               1
     1  Mg   0.805510
     2  C    0.060001
     3  C   -0.215945
     4  C   -0.209082
     5  C   -0.133879
     6  N   -0.656576
     7  C    0.265323
     8  C   -0.155098
     9  C   -0.176330
    10  C    0.409794
    11  C   -0.294034
    12  C   -0.150804
    13  C   -0.249067
    14  C    0.596437
    15  O   -0.444498
    16  O   -0.499837
    17  N   -0.701147
    18  C    0.311448
    19  C   -0.035087
    20  C    0.068733
    21  C    0.261575
    22  C   -0.353511
    23  C   -0.100034
    24  C   -0.254317
    25  N   -0.698279
    26  C    0.414001
    27  C    0.041576
    28  C    0.020801
    29  C    0.250793
    30  C   -0.384480
    31  C   -0.244509
    32  C   -0.302240
    33  N   -0.682288
    34  C    0.226459
    35  C    0.065727
    36  C   -0.041158
    37  C    0.293394
    38  C   -0.352893
    39  C    0.357643
    40  O   -0.461582
    41  C   -0.306243
    42  C    0.606886
    43  O   -0.432256
    44  O   -0.456617
    45  C   -0.078520
    46  C    0.004515
    47  C   -0.158438
    48  C    0.157263
    49  C   -0.364356
    50  C   -0.211935
    51  C   -0.168706
    52  C   -0.179608
    53  C   -0.024171
    54  C   -0.341070
    55  C   -0.184064
    56  C   -0.195912
    57  C   -0.176862
    58  C   -0.056522
    59  C   -0.324521
    60  C   -0.177971
    61  C   -0.187856
    62  C   -0.184325
    63  C   -0.048149
    64  C   -0.318070
    65  C   -0.292977
    66  H    0.077873
    67  H    0.084498
    68  H    0.083526
    69  H    0.121890
    70  H    0.098818
    71  H    0.121461
    72  H    0.114922
    73  H    0.108071
    74  H    0.103418
    75  H    0.111290
    76  H    0.142740
    77  H    0.116965
    78  H    0.133008
    79  H    0.095601
    80  H    0.117173
    81  H    0.103842
    82  H    0.104516
    83  H    0.088786
    84  H    0.104544
    85  H    0.120607
    86  H    0.101340
    87  H    0.109364
    88  H    0.112800
    89  H    0.079375
    90  H    0.133939
    91  H    0.104791
    92  H    0.101219
    93  H    0.142439
    94  H    0.130195
    95  H    0.160737
    96  H    0.107889
    97  H    0.139879
    98  H    0.121188
    99  H    0.129386
   100  H    0.133060
   101  H    0.082508
   102  H    0.107731
   103  H    0.080842
   104  H    0.128539
   105  H    0.117397
   106  H    0.098144
   107  H    0.102757
   108  H    0.078465
   109  H    0.060835
   110  H    0.090894
   111  H    0.094575
   112  H    0.106650
   113  H    0.083642
   114  H    0.100581
   115  H    0.101090
   116  H    0.111246
   117  H    0.106574
   118  H    0.074476
   119  H    0.100861
   120  H    0.079343
   121  H    0.095027
   122  H    0.092624
   123  H    0.109131
   124  H    0.104635
   125  H    0.098497
   126  H    0.091472
   127  H    0.068276
   128  H    0.101584
   129  H    0.074533
   130  H    0.097434
   131  H    0.087358
   132  H    0.106908
   133  H    0.085855
   134  H    0.095812
   135  H    0.097147
   136  H    0.105431
   137  H    0.067924
 Sum of Mulliken charges =   0.00000

 Dipole moment (field-independent basis, Debye):
    X=              0.8652    Y=              3.4019    Z=              0.3563  Tot=              3.5282
 Quadrupole moment (field-independent basis, Debye-Ang):
   XX=           -338.0073   YY=           -397.8383   ZZ=           -397.6538
   XY=            -18.0312   XZ=             13.9063   YZ=             -2.3911

 Normal termination of Gaussian 09 at Fri Jul  5 14:10:22 2019.
