 Gaussian 16, Revision A.03,
 Gaussian 16:  ES64L-G16RevA.03 25-Dec-2016

 ----------------------------------------------------------------------
 # td=(NStates=1) iop(3/107=0140000000,3/108=0140000000) CAM-B3LYP/6-31
 G(d,p)
 ----------------------------------------------------------------------

 --
 TD
 --
 Symbolic Z-matrix:
 Charge =  0 Multiplicity = 1

                         Standard orientation:
 ---------------------------------------------------------------------
 Center     Atomic      Atomic             Coordinates (Angstroms)
 Number     Number       Type             X           Y           Z
 ---------------------------------------------------------------------
      1         12           0       -7.204398    0.553114    0.104462
      2          6           0       -4.823244   -1.955492    0.414474
      3          6           0       -4.809359    2.918529    1.134499
      4          6           0       -9.451307    3.110976   -0.363918
      5          6           0       -9.558128   -1.763648   -0.789932
      6          7           0       -5.103698    0.374290    0.705630
      7          6           0       -4.417486   -0.726106    0.859523
      8          6           0       -2.968426   -0.388389    1.179825
      9          6           0       -3.080338    1.094217    1.587817
     10          6           0       -4.446974    1.556231    1.072640
     11          6           0       -2.951617    1.174132    3.151755
     12          6           0       -1.960627   -0.532846    0.071159
     13          6           0       -0.506853   -0.372088    0.482303
     14          6           0        0.420258   -0.562232   -0.637760
     15          8           0        0.116017   -0.874512   -1.809796
     16          8           0        1.679121   -0.405960   -0.167770
     17          7           0       -7.107524    2.550743    0.214456
     18          6           0       -6.100155    3.362122    0.618147
     19          6           0       -6.311944    4.763189    0.682765
     20          6           0       -7.694513    4.896194    0.249070
     21          6           0       -8.122628    3.517357   -0.109672
     22          6           0       -5.424983    5.883814    1.092448
     23          6           0       -8.616702    6.038668    0.126347
     24          6           0       -8.297847    7.240281    0.766761
     25          7           0       -9.161346    0.671587   -0.403745
     26          6           0       -9.947536    1.778071   -0.529859
     27          6           0      -11.224877    1.379125   -1.005217
     28          6           0      -11.274720    0.039053   -1.105905
     29          6           0       -9.948211   -0.398126   -0.722546
     30          6           0      -12.333355    2.386254   -1.378988
     31          6           0      -12.398822   -0.880984   -1.613191
     32          6           0      -12.397318   -1.101087   -3.104513
     33          7           0       -7.237604   -1.352387   -0.108344
     34          6           0       -8.227755   -2.285906   -0.596321
     35          6           0       -7.736840   -3.510931   -0.514316
     36          6           0       -6.379348   -3.504906   -0.202174
     37          6           0       -6.167503   -2.136299    0.055038
     38          6           0       -8.504366   -4.755840   -0.891765
     39          6           0       -5.293740   -4.325002    0.176214
     40          8           0       -5.229361   -5.554334    0.171924
     41          6           0       -4.102338   -3.321783    0.484537
     42          6           0       -3.590549   -3.712360    1.849529
     43          8           0       -3.882321   -3.087371    2.848993
     44          8           0       -2.709086   -4.701007    1.674797
     45          6           0       -2.203837   -5.264629    3.000509
     46          6           0        2.720853   -0.543494   -1.200527
     47          6           0        4.051633   -0.419273   -0.483233
     48          6           0        5.148029    0.276900   -0.774027
     49          6           0        5.107747    1.214178   -1.966652
     50          6           0        6.373603    0.337439    0.012182
     51          6           0        7.541539   -0.283160   -0.891810
     52          6           0        8.926227   -0.178656   -0.053536
     53          6           0       10.128428   -0.529510   -0.899021
     54          6           0       10.111175   -2.039780   -1.303575
     55          6           0       11.476295   -0.279292   -0.117423
     56          6           0       12.875769   -0.427646   -0.778562
     57          6           0       13.990757   -0.138250    0.098243
     58          6           0       15.287159   -0.117078   -0.527812
     59          6           0       15.800761   -1.545269   -1.123503
     60          6           0       16.505626    0.456233    0.497769
     61          6           0       17.954930    0.366360   -0.133197
     62          6           0       18.914057    1.078903    0.869213
     63          6           0       20.355087    1.326940    0.162437
     64          6           0       20.361192    2.254657   -1.104520
     65          6           0       21.365352    1.934915    1.360505
     66          1           0       -4.139662    3.488121    1.442028
     67          1           0      -10.124866    4.068365   -0.334803
     68          1           0      -10.266956   -2.461371   -1.412242
     69          1           0       -2.816664   -1.074473    2.023473
     70          1           0       -2.140123    1.695877    1.195471
     71          1           0       -1.985966    0.782821    3.543375
     72          1           0       -2.739282    2.250361    3.679946
     73          1           0       -3.794946    0.648173    3.560681
     74          1           0       -2.123895   -1.583618   -0.380274
     75          1           0       -2.156196    0.179869   -0.820343
     76          1           0       -0.148757    0.574820    0.928537
     77          1           0       -0.342741   -1.363822    1.380206
     78          1           0       -5.713950    6.841514    0.468180
     79          1           0       -5.568137    6.307945    2.065759
     80          1           0       -4.405010    5.701347    0.947414
     81          1           0       -9.519491    6.153043   -0.450840
     82          1           0       -8.722542    8.246143    0.593401
     83          1           0       -7.408138    7.221110    1.236217
     84          1           0      -11.907720    3.007218   -2.212883
     85          1           0      -13.160973    1.702325   -1.713506
     86          1           0      -12.591733    3.073069   -0.657693
     87          1           0      -12.192082   -1.836847   -1.104052
     88          1           0      -13.357876   -0.495808   -1.326716
     89          1           0      -13.078563   -2.022706   -3.165194
     90          1           0      -12.684285   -0.175960   -3.584129
     91          1           0      -11.370080   -1.357410   -3.450374
     92          1           0       -8.977282   -4.677770   -1.910395
     93          1           0       -7.886623   -5.736708   -0.762740
     94          1           0       -9.310151   -4.802047   -0.381964
     95          1           0       -3.266673   -3.350841   -0.264430
     96          1           0       -1.608848   -4.720635    3.682724
     97          1           0       -2.959956   -5.603110    3.671365
     98          1           0       -1.501520   -6.019607    2.719167
     99          1           0        2.556471   -1.501837   -1.569844
    100          1           0        2.493723    0.155650   -1.842278
    101          1           0        3.946034   -1.224051    0.324912
    102          1           0        4.165498    1.387944   -2.529450
    103          1           0        5.475365    2.184996   -1.960003
    104          1           0        5.844519    0.752680   -2.848627
    105          1           0        6.496100    1.219437    0.358967
    106          1           0        6.448719   -0.461982    0.929759
    107          1           0        7.322284   -1.292732   -0.979607
    108          1           0        7.570620    0.291389   -1.846879
    109          1           0        9.014593    1.086934    0.238125
    110          1           0        8.697872   -0.675378    0.908449
    111          1           0        9.920510    0.068146   -1.766755
    112          1           0        9.273543   -2.275349   -2.006573
    113          1           0       10.863592   -2.097188   -1.855721
    114          1           0        9.972541   -2.808005   -0.439694
    115          1           0       11.463552    0.681494    0.357892
    116          1           0       11.354793   -0.916632    0.538873
    117          1           0       13.000216   -1.543681   -1.140214
    118          1           0       12.784195    0.040203   -1.732198
    119          1           0       13.677304    0.702800    0.602836
    120          1           0       13.914127   -0.800176    0.959060
    121          1           0       15.367580    0.877083   -1.344615
    122          1           0       15.990311   -2.172100   -0.253523
    123          1           0       15.011663   -2.105326   -1.801344
    124          1           0       16.654814   -1.594691   -1.696843
    125          1           0       16.081508    1.398214    0.901693
    126          1           0       16.225948   -0.336893    1.296649
    127          1           0       18.246551   -0.694459   -0.167441
    128          1           0       17.874018    0.872416   -1.323529
    129          1           0       18.465714    2.178407    1.046502
    130          1           0       18.867140    0.545902    1.713099
    131          1           0       20.793582    0.308670   -0.034788
    132          1           0       20.198318    3.182260   -0.782368
    133          1           0       21.513653    2.640330   -1.189289
    134          1           0       19.878089    1.667082   -1.815637
    135          1           0       21.340845    1.155836    2.133230
    136          1           0       22.344157    2.014030    0.967725
    137          1           0       20.937259    2.759590    1.795977
 ---------------------------------------------------------------------

 SCF Done:  E(RCAM-B3LYP) =  -2933.40366272     A.U. after   16 cycles

 Excitation energies and oscillator strengths:

 Excited State   1:      Singlet-A      2.0508 eV  604.58 nm  f=0.2625  <S**2>=0.000
     240 -> 242       -0.18736
     240 -> 243        0.24112
     241 -> 242        0.62519
     241 -> 243        0.10252
 This state for optimization and/or second-order correction.
 Total Energy, E(TD-HF/TD-DFT) =  -2933.32829883
 Copying the excited state density for this state as the 1-particle RhoCI density.

 The electronic state is 1-A.
 Alpha  occ. eigenvalues --  -46.78558 -19.23496 -19.21440 -19.16609 -19.16207
 Alpha  occ. eigenvalues --  -19.15223 -14.36824 -14.35940 -14.35111 -14.34396
 Alpha  occ. eigenvalues --  -10.34323 -10.34012 -10.29570 -10.26672 -10.26374
 Alpha  occ. eigenvalues --  -10.25856 -10.25793 -10.25546 -10.24865 -10.24773
 Alpha  occ. eigenvalues --  -10.24772 -10.24722 -10.24521 -10.24462 -10.24138
 Alpha  occ. eigenvalues --  -10.24079 -10.23947 -10.23846 -10.23690 -10.23574
 Alpha  occ. eigenvalues --  -10.23532 -10.23473 -10.23466 -10.23141 -10.22968
 Alpha  occ. eigenvalues --  -10.22782 -10.22745 -10.22561 -10.22517 -10.22278
 Alpha  occ. eigenvalues --  -10.22054 -10.21994 -10.21947 -10.21883 -10.21779
 Alpha  occ. eigenvalues --  -10.21762 -10.21711 -10.21630 -10.21527 -10.21479
 Alpha  occ. eigenvalues --  -10.21466 -10.21433 -10.21330 -10.21321 -10.21230
 Alpha  occ. eigenvalues --  -10.20923 -10.20833 -10.20404 -10.20287 -10.19978
 Alpha  occ. eigenvalues --  -10.19543 -10.19526 -10.19443 -10.19198 -10.18732
 Alpha  occ. eigenvalues --   -3.07468  -1.82381  -1.81939  -1.81910  -1.12529
 Alpha  occ. eigenvalues --   -1.11778  -1.04484  -1.04394  -1.02480  -0.99352
 Alpha  occ. eigenvalues --   -0.98614  -0.98017  -0.97123  -0.86898  -0.86498
 Alpha  occ. eigenvalues --   -0.85763  -0.84430  -0.84019  -0.83880  -0.83486
 Alpha  occ. eigenvalues --   -0.83198  -0.82468  -0.81951  -0.81835  -0.80926
 Alpha  occ. eigenvalues --   -0.79743  -0.78704  -0.78574  -0.78199  -0.77813
 Alpha  occ. eigenvalues --   -0.76664  -0.76106  -0.75661  -0.74906  -0.73828
 Alpha  occ. eigenvalues --   -0.72877  -0.72818  -0.72066  -0.71702  -0.71564
 Alpha  occ. eigenvalues --   -0.71301  -0.70867  -0.69465  -0.68900  -0.68462
 Alpha  occ. eigenvalues --   -0.66914  -0.65831  -0.65033  -0.64683  -0.64169
 Alpha  occ. eigenvalues --   -0.63129  -0.62902  -0.61229  -0.60908  -0.60675
 Alpha  occ. eigenvalues --   -0.59499  -0.59132  -0.58551  -0.58378  -0.58167
 Alpha  occ. eigenvalues --   -0.57643  -0.56958  -0.56366  -0.56252  -0.55124
 Alpha  occ. eigenvalues --   -0.55038  -0.54250  -0.53387  -0.53181  -0.52776
 Alpha  occ. eigenvalues --   -0.52011  -0.51566  -0.51362  -0.51122  -0.50754
 Alpha  occ. eigenvalues --   -0.50233  -0.49983  -0.49827  -0.49688  -0.49284
 Alpha  occ. eigenvalues --   -0.49206  -0.48720  -0.48609  -0.48244  -0.48026
 Alpha  occ. eigenvalues --   -0.47639  -0.47572  -0.47363  -0.46965  -0.46696
 Alpha  occ. eigenvalues --   -0.46634  -0.46263  -0.46227  -0.46053  -0.45955
 Alpha  occ. eigenvalues --   -0.45803  -0.45253  -0.45071  -0.44660  -0.44523
 Alpha  occ. eigenvalues --   -0.44371  -0.44146  -0.44018  -0.43893  -0.43388
 Alpha  occ. eigenvalues --   -0.43157  -0.42962  -0.42676  -0.42456  -0.42363
 Alpha  occ. eigenvalues --   -0.42031  -0.41892  -0.41806  -0.41618  -0.41247
 Alpha  occ. eigenvalues --   -0.41101  -0.41023  -0.40921  -0.40748  -0.40619
 Alpha  occ. eigenvalues --   -0.40535  -0.40430  -0.40367  -0.39959  -0.39893
 Alpha  occ. eigenvalues --   -0.39729  -0.39631  -0.39475  -0.39208  -0.39090
 Alpha  occ. eigenvalues --   -0.38845  -0.38535  -0.38459  -0.38427  -0.38229
 Alpha  occ. eigenvalues --   -0.37942  -0.37674  -0.37449  -0.37247  -0.36980
 Alpha  occ. eigenvalues --   -0.36588  -0.36527  -0.36379  -0.36120  -0.35966
 Alpha  occ. eigenvalues --   -0.35756  -0.35399  -0.35265  -0.35058  -0.34701
 Alpha  occ. eigenvalues --   -0.34493  -0.34216  -0.33790  -0.33464  -0.33249
 Alpha  occ. eigenvalues --   -0.33000  -0.32897  -0.32664  -0.32461  -0.32445
 Alpha  occ. eigenvalues --   -0.32288  -0.32020  -0.31451  -0.30257  -0.29986
 Alpha  occ. eigenvalues --   -0.29564  -0.29430  -0.28531  -0.28188  -0.27050
 Alpha  occ. eigenvalues --   -0.26868  -0.26255  -0.26013  -0.24987  -0.21486
 Alpha  occ. eigenvalues --   -0.20356
 Alpha virt. eigenvalues --   -0.07526  -0.04060  -0.00026   0.01749   0.02538
 Alpha virt. eigenvalues --    0.04133   0.04233   0.04881   0.05648   0.05841
 Alpha virt. eigenvalues --    0.07145   0.08600   0.09390   0.09586   0.09661

 Mulliken charges:
               1
     1  Mg   0.814213
     2  C    0.052066
     3  C   -0.101017
     4  C   -0.187374
     5  C   -0.188971
     6  N   -0.637381
     7  C    0.309377
     8  C   -0.145725
     9  C   -0.166667
    10  C    0.330503
    11  C   -0.304846
    12  C   -0.160228
    13  C   -0.235175
    14  C    0.624144
    15  O   -0.501708
    16  O   -0.489962
    17  N   -0.673904
    18  C    0.305656
    19  C    0.071029
    20  C   -0.003990
    21  C    0.254174
    22  C   -0.396173
    23  C   -0.090191
    24  C   -0.236124
    25  N   -0.692731
    26  C    0.308514
    27  C   -0.004755
    28  C    0.039736
    29  C    0.301462
    30  C   -0.362156
    31  C   -0.248876
    32  C   -0.293876
    33  N   -0.759793
    34  C    0.262178
    35  C    0.014339
    36  C    0.044146
    37  C    0.343971
    38  C   -0.377421
    39  C    0.344956
    40  O   -0.478744
    41  C   -0.316928
    42  C    0.643373
    43  O   -0.477441
    44  O   -0.438588
    45  C   -0.119192
    46  C    0.041787
    47  C   -0.152755
    48  C    0.154582
    49  C   -0.380957
    50  C   -0.207435
    51  C   -0.195573
    52  C   -0.153450
    53  C   -0.076315
    54  C   -0.304975
    55  C   -0.160839
    56  C   -0.181694
    57  C   -0.150370
    58  C   -0.053631
    59  C   -0.323324
    60  C   -0.191087
    61  C   -0.164387
    62  C   -0.150845
    63  C   -0.079876
    64  C   -0.284257
    65  C   -0.339211
    66  H    0.038767
    67  H    0.085704
    68  H    0.089855
    69  H    0.121892
    70  H    0.076687
    71  H    0.107866
    72  H    0.071314
    73  H    0.129652
    74  H    0.103230
    75  H    0.111729
    76  H    0.135744
    77  H    0.093073
    78  H    0.114385
    79  H    0.141922
    80  H    0.122396
    81  H    0.104557
    82  H    0.106928
    83  H    0.088681
    84  H    0.117233
    85  H    0.101451
    86  H    0.129952
    87  H    0.104624
    88  H    0.110066
    89  H    0.101763
    90  H    0.115517
    91  H    0.109834
    92  H    0.108213
    93  H    0.135551
    94  H    0.132009
    95  H    0.159884
    96  H    0.135964
    97  H    0.148306
    98  H    0.131285
    99  H    0.135751
   100  H    0.116088
   101  H    0.082987
   102  H    0.115172
   103  H    0.128301
   104  H    0.088123
   105  H    0.116566
   106  H    0.075965
   107  H    0.119969
   108  H    0.095234
   109  H    0.032662
   110  H    0.088694
   111  H    0.087432
   112  H    0.089365
   113  H    0.119641
   114  H    0.091987
   115  H    0.081718
   116  H    0.104305
   117  H    0.069746
   118  H    0.098022
   119  H    0.097685
   120  H    0.089362
   121  H    0.039670
   122  H    0.103305
   123  H    0.085858
   124  H    0.119673
   125  H    0.096223
   126  H    0.075299
   127  H    0.105275
   128  H    0.062067
   129  H    0.069904
   130  H    0.108455
   131  H    0.077839
   132  H    0.122173
   133  H    0.070355
   134  H    0.119500
   135  H    0.096657
   136  H    0.105261
   137  H    0.112386
 Sum of Mulliken charges =  -0.00000

 Dipole moment (field-independent basis, Debye):
    X=              2.2214    Y=              4.7571    Z=              0.9677  Tot=              5.3387
 Quadrupole moment (field-independent basis, Debye-Ang):
   XX=           -342.1701   YY=           -383.9130   ZZ=           -397.8873
   XY=            -31.4082   XZ=             16.0979   YZ=             -6.1947

 Normal termination of Gaussian 16 at Tue Sep 10 18:45:27 2019.
