 Gaussian 09, Revision D.01,
 Gaussian 09:  ES64L-G09RevD.01 24-Apr-2013

 -------------------------------------
 # td=(NStates=1) CAM-B3LYP/6-31G(d,p)
 -------------------------------------

 --
 TD
 --
 Symbolic Z-matrix:
 Charge =  0 Multiplicity = 1

                         Standard orientation:
 ---------------------------------------------------------------------
 Center     Atomic      Atomic             Coordinates (Angstroms)
 Number     Number       Type             X           Y           Z
 ---------------------------------------------------------------------
      1         12           0       -7.104464    0.615000    0.109854
      2          6           0       -4.873720   -1.926797    0.485553
      3          6           0       -4.997620    2.815234    1.094964
      4          6           0       -9.465476    3.110556   -0.433268
      5          6           0       -9.573122   -1.846091   -0.702141
      6          7           0       -5.165786    0.440578    0.622706
      7          6           0       -4.381979   -0.711498    0.862764
      8          6           0       -2.991444   -0.330321    1.168363
      9          6           0       -3.077735    1.167565    1.558734
     10          6           0       -4.521630    1.545523    1.019738
     11          6           0       -2.969283    1.414269    3.136333
     12          6           0       -1.923588   -0.612979    0.080504
     13          6           0       -0.456744   -0.359371    0.511619
     14          6           0        0.569914   -0.660276   -0.480560
     15          8           0        0.382362   -1.133218   -1.663937
     16          8           0        1.858202   -0.334415   -0.160679
     17          7           0       -7.183694    2.633424    0.258384
     18          6           0       -6.122094    3.391520    0.782281
     19          6           0       -6.513785    4.794269    0.700034
     20          6           0       -7.772838    4.838779    0.255214
     21          6           0       -8.228994    3.488379    0.049606
     22          6           0       -5.546713    5.997336    1.013918
     23          6           0       -8.684075    5.996908    0.011137
     24          6           0       -8.634853    7.132872    0.716971
     25          7           0       -9.085269    0.601568   -0.557948
     26          6           0       -9.884081    1.763520   -0.721500
     27          6           0      -11.329329    1.397015   -1.059362
     28          6           0      -11.347389    0.019271   -1.091567
     29          6           0       -9.939518   -0.450508   -0.788197
     30          6           0      -12.478539    2.350218   -1.287871
     31          6           0      -12.388602   -0.869335   -1.598705
     32          6           0      -12.401043   -1.227620   -3.125366
     33          7           0       -7.269067   -1.423645   -0.159563
     34          6           0       -8.261423   -2.245027   -0.522763
     35          6           0       -7.849792   -3.625878   -0.505961
     36          6           0       -6.367498   -3.545861   -0.130451
     37          6           0       -6.173434   -2.270108    0.101815
     38          6           0       -8.556118   -4.887921   -0.891641
     39          6           0       -5.307359   -4.398390    0.080688
     40          8           0       -5.062383   -5.586769    0.068000
     41          6           0       -4.177048   -3.315272    0.586174
     42          6           0       -3.507220   -3.671553    1.883737
     43          8           0       -3.736558   -3.255162    2.994629
     44          8           0       -2.612792   -4.673054    1.679701
     45          6           0       -2.026046   -5.170818    2.936466
     46          6           0        2.859507   -0.479304   -1.051741
     47          6           0        4.136323   -0.328411   -0.414837
     48          6           0        5.160759    0.423506   -0.788103
     49          6           0        5.211802    1.291092   -2.058566
     50          6           0        6.498240    0.369698   -0.141041
     51          6           0        7.736359   -0.138954   -1.117230
     52          6           0        8.989614   -0.039316   -0.187676
     53          6           0       10.266593   -0.492038   -0.911456
     54          6           0       10.256692   -1.856827   -1.514265
     55          6           0       11.447714   -0.282889   -0.012502
     56          6           0       12.827046   -0.395883   -0.635482
     57          6           0       13.953285   -0.187711    0.321727
     58          6           0       15.340671   -0.306148   -0.369359
     59          6           0       15.624349   -1.762608   -0.873385
     60          6           0       16.506466    0.299816    0.464160
     61          6           0       17.858831    0.449415   -0.113609
     62          6           0       18.829133    1.266676    0.737273
     63          6           0       20.267893    1.466438    0.258076
     64          6           0       20.296378    2.108801   -1.159828
     65          6           0       21.178190    2.053843    1.235726
     66          1           0       -4.223569    3.701904    1.187574
     67          1           0      -10.513489    3.718097   -0.188102
     68          1           0      -10.271358   -2.369001   -1.196909
     69          1           0       -2.648895   -1.038446    2.120262
     70          1           0       -2.109504    1.546814    0.847676
     71          1           0       -1.955880    1.237849    3.243010
     72          1           0       -3.215555    2.572934    3.320056
     73          1           0       -3.697215    0.899506    3.750356
     74          1           0       -1.991151   -1.606860   -0.266084
     75          1           0       -2.096377    0.226899   -0.528930
     76          1           0       -0.428722    0.569964    1.031064
     77          1           0       -0.269835   -1.308581    1.381198
     78          1           0       -5.846074    6.758966    0.293427
     79          1           0       -5.834720    6.495069    2.000412
     80          1           0       -4.561408    5.763894    1.022608
     81          1           0       -9.439308    5.740770   -0.655676
     82          1           0       -9.277516    8.111987    0.657763
     83          1           0       -7.977210    7.354036    1.377213
     84          1           0      -12.333338    2.873063   -2.376611
     85          1           0      -13.280357    1.758846   -1.451934
     86          1           0      -12.495285    3.249332   -0.512394
     87          1           0      -12.349280   -1.762857   -1.003070
     88          1           0      -13.573192   -0.680098   -1.417517
     89          1           0      -13.173318   -2.083733   -3.334141
     90          1           0      -12.747213   -0.217169   -3.676615
     91          1           0      -11.474869   -1.510414   -3.451168
     92          1           0       -8.966748   -4.886556   -1.872628
     93          1           0       -7.875127   -5.831924   -0.647839
     94          1           0       -9.534472   -4.890113   -0.269577
     95          1           0       -3.293275   -3.485816   -0.035840
     96          1           0       -1.493686   -4.400312    3.465729
     97          1           0       -2.744692   -5.614093    3.659251
     98          1           0       -1.297988   -5.884739    2.589640
     99          1           0        2.825195   -1.729866   -1.327698
    100          1           0        2.557432    0.124164   -2.033501
    101          1           0        4.288796   -1.017843    0.436900
    102          1           0        4.225874    1.380861   -2.348133
    103          1           0        5.452950    2.501236   -1.866089
    104          1           0        5.812195    0.905132   -2.899716
    105          1           0        6.915820    1.363423    0.350841
    106          1           0        6.492222   -0.407601    0.536807
    107          1           0        7.578346   -1.224347   -1.374307
    108          1           0        7.833497    0.388980   -2.089130
    109          1           0        9.080612    0.929417    0.059890
    110          1           0        8.803325   -0.633061    0.682041
    111          1           0       10.352607    0.317408   -1.646123
    112          1           0        9.499158   -2.017246   -2.363780
    113          1           0       11.179630   -2.337590   -1.687987
    114          1           0        9.704598   -2.719645   -0.852768
    115          1           0       11.464158    0.726823    0.460562
    116          1           0       11.304232   -1.148583    0.864515
    117          1           0       12.990852   -1.557845   -1.140860
    118          1           0       13.040394    0.269681   -1.527718
    119          1           0       13.958457    0.798973    0.854957
    120          1           0       13.964941   -0.940833    1.009185
    121          1           0       15.485860    0.412690   -1.315136
    122          1           0       15.896866   -2.510658    0.033850
    123          1           0       14.676825   -2.055290   -1.586723
    124          1           0       16.696142   -1.704711   -1.404552
    125          1           0       16.116544    1.410205    0.713915
    126          1           0       16.683896   -0.326860    1.366764
    127          1           0       18.261887   -0.483240   -0.498092
    128          1           0       17.969864    0.988377   -1.070776
    129          1           0       18.259518    2.271590    0.603653
    130          1           0       19.047903    0.664979    1.882693
    131          1           0       20.671583    0.282044    0.204799
    132          1           0       20.061590    3.177539   -1.196880
    133          1           0       21.206966    1.915959   -1.628156
    134          1           0       19.544156    1.605757   -1.802998
    135          1           0       21.096104    1.441246    2.100873
    136          1           0       22.121136    2.193223    0.932055
    137          1           0       20.904378    3.112931    1.508740
 ---------------------------------------------------------------------

 SCF Done:  E(RCAM-B3LYP) =  -2932.59925439     A.U. after   18 cycles

 Excitation energies and oscillator strengths:

 Excited State   1:      Singlet-A      1.9986 eV  620.34 nm  f=0.2652  <S**2>=0.000
     240 -> 243        0.21621
     241 -> 242        0.66998
 This state for optimization and/or second-order correction.
 Total Energy, E(TD-HF/TD-KS) =  -2932.52580557
 Copying the excited state density for this state as the 1-particle RhoCI density.

 The electronic state is 1-A.
 Alpha  occ. eigenvalues --  -46.84226 -19.26455 -19.25516 -19.20681 -19.20128
 Alpha  occ. eigenvalues --  -19.19874 -14.42816 -14.40561 -14.39489 -14.38851
 Alpha  occ. eigenvalues --  -10.40540 -10.38136 -10.34700 -10.33155 -10.32385
 Alpha  occ. eigenvalues --  -10.31044 -10.30647 -10.30619 -10.30465 -10.30434
 Alpha  occ. eigenvalues --  -10.30200 -10.30174 -10.29975 -10.28708 -10.28628
 Alpha  occ. eigenvalues --  -10.28581 -10.28283 -10.28147 -10.28060 -10.27952
 Alpha  occ. eigenvalues --  -10.27782 -10.27647 -10.27561 -10.27539 -10.27442
 Alpha  occ. eigenvalues --  -10.27376 -10.27358 -10.27325 -10.27292 -10.27288
 Alpha  occ. eigenvalues --  -10.27086 -10.27066 -10.27057 -10.27029 -10.26970
 Alpha  occ. eigenvalues --  -10.26903 -10.26902 -10.26870 -10.26719 -10.26578
 Alpha  occ. eigenvalues --  -10.26341 -10.26309 -10.26247 -10.26036 -10.26019
 Alpha  occ. eigenvalues --  -10.25937 -10.25715 -10.25539 -10.25511 -10.24545
 Alpha  occ. eigenvalues --  -10.24533 -10.24406 -10.24192 -10.23976 -10.23067
 Alpha  occ. eigenvalues --   -3.13375  -1.88075  -1.87634  -1.87547  -1.19032
 Alpha  occ. eigenvalues --   -1.17055  -1.10718  -1.07789  -1.06533  -1.04995
 Alpha  occ. eigenvalues --   -1.03795  -1.03368  -1.01290  -0.93439  -0.91552
 Alpha  occ. eigenvalues --   -0.91228  -0.90583  -0.90261  -0.90023  -0.89391
 Alpha  occ. eigenvalues --   -0.88721  -0.88451  -0.87273  -0.86516  -0.86229
 Alpha  occ. eigenvalues --   -0.85247  -0.84554  -0.83733  -0.83685  -0.82910
 Alpha  occ. eigenvalues --   -0.81982  -0.81379  -0.81244  -0.79665  -0.78854
 Alpha  occ. eigenvalues --   -0.78588  -0.77285  -0.77092  -0.76225  -0.75964
 Alpha  occ. eigenvalues --   -0.75477  -0.74979  -0.74136  -0.73606  -0.72302
 Alpha  occ. eigenvalues --   -0.72205  -0.71036  -0.70216  -0.69099  -0.68980
 Alpha  occ. eigenvalues --   -0.68772  -0.67051  -0.66354  -0.64702  -0.64533
 Alpha  occ. eigenvalues --   -0.63584  -0.62743  -0.62213  -0.61769  -0.61252
 Alpha  occ. eigenvalues --   -0.61132  -0.60814  -0.60749  -0.60321  -0.59532
 Alpha  occ. eigenvalues --   -0.59157  -0.58252  -0.57861  -0.57158  -0.56879
 Alpha  occ. eigenvalues --   -0.55965  -0.55708  -0.55675  -0.55134  -0.54928
 Alpha  occ. eigenvalues --   -0.54382  -0.54240  -0.53793  -0.53333  -0.52973
 Alpha  occ. eigenvalues --   -0.52565  -0.52427  -0.52167  -0.52027  -0.51889
 Alpha  occ. eigenvalues --   -0.51631  -0.51365  -0.51201  -0.50762  -0.50601
 Alpha  occ. eigenvalues --   -0.50451  -0.50167  -0.50128  -0.50048  -0.49974
 Alpha  occ. eigenvalues --   -0.49707  -0.49506  -0.49186  -0.49021  -0.48557
 Alpha  occ. eigenvalues --   -0.48353  -0.48241  -0.47838  -0.47588  -0.47354
 Alpha  occ. eigenvalues --   -0.47129  -0.46543  -0.46477  -0.46189  -0.45831
 Alpha  occ. eigenvalues --   -0.45589  -0.45493  -0.45396  -0.45266  -0.45027
 Alpha  occ. eigenvalues --   -0.44933  -0.44681  -0.44224  -0.44056  -0.43983
 Alpha  occ. eigenvalues --   -0.43773  -0.43589  -0.43372  -0.43228  -0.43048
 Alpha  occ. eigenvalues --   -0.42989  -0.42886  -0.42688  -0.42412  -0.42115
 Alpha  occ. eigenvalues --   -0.41998  -0.41957  -0.41625  -0.41477  -0.41383
 Alpha  occ. eigenvalues --   -0.41254  -0.40890  -0.40817  -0.40512  -0.40404
 Alpha  occ. eigenvalues --   -0.40164  -0.39982  -0.39917  -0.39424  -0.39224
 Alpha  occ. eigenvalues --   -0.38663  -0.38579  -0.38384  -0.38230  -0.38095
 Alpha  occ. eigenvalues --   -0.37612  -0.37543  -0.37288  -0.36675  -0.36593
 Alpha  occ. eigenvalues --   -0.36135  -0.36049  -0.35474  -0.35425  -0.35155
 Alpha  occ. eigenvalues --   -0.35076  -0.34565  -0.34271  -0.34020  -0.33832
 Alpha  occ. eigenvalues --   -0.33768  -0.33292  -0.32563  -0.31051  -0.29543
 Alpha  occ. eigenvalues --   -0.29185  -0.29184  -0.28700  -0.27960  -0.24069
 Alpha  occ. eigenvalues --   -0.21426
 Alpha virt. eigenvalues --   -0.07315  -0.03651   0.00634   0.03102   0.03790
 Alpha virt. eigenvalues --    0.05830   0.05902   0.05995   0.06270   0.06797
 Alpha virt. eigenvalues --    0.08108   0.09534   0.09812   0.10503   0.10859

 Mulliken charges:
               1
     1  Mg   0.812891
     2  C    0.067630
     3  C   -0.232942
     4  C   -0.210454
     5  C   -0.124785
     6  N   -0.649514
     7  C    0.289224
     8  C   -0.158563
     9  C   -0.160196
    10  C    0.370656
    11  C   -0.294147
    12  C   -0.153746
    13  C   -0.268555
    14  C    0.620223
    15  O   -0.500187
    16  O   -0.442736
    17  N   -0.724924
    18  C    0.338364
    19  C    0.003732
    20  C    0.003077
    21  C    0.342927
    22  C   -0.358146
    23  C   -0.057895
    24  C   -0.227074
    25  N   -0.638684
    26  C    0.249792
    27  C    0.024531
    28  C    0.048537
    29  C    0.244886
    30  C   -0.350794
    31  C   -0.277131
    32  C   -0.286148
    33  N   -0.707409
    34  C    0.298314
    35  C    0.015819
    36  C    0.054798
    37  C    0.274602
    38  C   -0.388020
    39  C    0.337594
    40  O   -0.461364
    41  C   -0.353733
    42  C    0.615439
    43  O   -0.486364
    44  O   -0.463420
    45  C   -0.083298
    46  C    0.026961
    47  C   -0.116319
    48  C    0.122955
    49  C   -0.347038
    50  C   -0.221603
    51  C   -0.207413
    52  C   -0.163893
    53  C   -0.038236
    54  C   -0.318624
    55  C   -0.160459
    56  C   -0.164278
    57  C   -0.151470
    58  C   -0.058959
    59  C   -0.293181
    60  C   -0.153113
    61  C   -0.186667
    62  C   -0.131889
    63  C   -0.039883
    64  C   -0.329783
    65  C   -0.282859
    66  H    0.076502
    67  H    0.090047
    68  H    0.090438
    69  H    0.103332
    70  H    0.071262
    71  H    0.125492
    72  H    0.093633
    73  H    0.143548
    74  H    0.136060
    75  H    0.123384
    76  H    0.140474
    77  H    0.107924
    78  H    0.134509
    79  H    0.120431
    80  H    0.122317
    81  H    0.100448
    82  H    0.097349
    83  H    0.101212
    84  H    0.104004
    85  H    0.130811
    86  H    0.112693
    87  H    0.114140
    88  H    0.088217
    89  H    0.097614
    90  H    0.091559
    91  H    0.125191
    92  H    0.136380
    93  H    0.144791
    94  H    0.110997
    95  H    0.153394
    96  H    0.125684
    97  H    0.135739
    98  H    0.124087
    99  H    0.079374
   100  H    0.113515
   101  H    0.096228
   102  H    0.109283
   103  H    0.079433
   104  H    0.127302
   105  H    0.090181
   106  H    0.104092
   107  H    0.095712
   108  H    0.095395
   109  H    0.100291
   110  H    0.095066
   111  H    0.086551
   112  H    0.101132
   113  H    0.119349
   114  H    0.068957
   115  H    0.088226
   116  H    0.060222
   117  H    0.049909
   118  H    0.091977
   119  H    0.085429
   120  H    0.108450
   121  H    0.061805
   122  H    0.085179
   123  H    0.095869
   124  H    0.089012
   125  H    0.066414
   126  H    0.088111
   127  H    0.088007
   128  H    0.083569
   129  H    0.082460
   130  H    0.041755
   131  H    0.044965
   132  H    0.104875
   133  H    0.112574
   134  H    0.100151
   135  H    0.102775
   136  H    0.111679
   137  H    0.084010
 Sum of Mulliken charges =   0.00000

 Dipole moment (field-independent basis, Debye):
    X=             -0.3171    Y=              6.5313    Z=              0.9488  Tot=              6.6075
 Quadrupole moment (field-independent basis, Debye-Ang):
   XX=           -330.4766   YY=           -392.8571   ZZ=           -402.7233
   XY=            -23.8133   XZ=              6.3963   YZ=             -0.1861

 Normal termination of Gaussian 09 at Sat Jul  6 04:48:36 2019.
