 Gaussian 09, Revision D.01,
 Gaussian 09:  ES64L-G09RevD.01 24-Apr-2013

 -------------------------------------
 # td=(NStates=1) CAM-B3LYP/6-31G(d,p)
 -------------------------------------

 --
 TD
 --
 Symbolic Z-matrix:
 Charge =  0 Multiplicity = 1

                         Standard orientation:
 ---------------------------------------------------------------------
 Center     Atomic      Atomic             Coordinates (Angstroms)
 Number     Number       Type             X           Y           Z
 ---------------------------------------------------------------------
      1         12           0       -7.220253    0.534154    0.018351
      2          6           0       -4.893544   -1.890442    0.445085
      3          6           0       -4.848387    2.885245    1.124500
      4          6           0       -9.389554    3.067667   -0.400335
      5          6           0       -9.557505   -1.765376   -0.816826
      6          7           0       -5.195691    0.500902    0.820541
      7          6           0       -4.353418   -0.630996    0.771082
      8          6           0       -2.935057   -0.331428    1.224737
      9          6           0       -2.984656    1.200296    1.791690
     10          6           0       -4.474873    1.550930    1.161661
     11          6           0       -2.908837    1.302995    3.294439
     12          6           0       -1.918122   -0.406155    0.087812
     13          6           0       -0.508051   -0.343205    0.497910
     14          6           0        0.549607   -0.654476   -0.682543
     15          8           0        0.242928   -1.007500   -1.735327
     16          8           0        1.832688   -0.277453   -0.240161
     17          7           0       -7.092843    2.562218    0.161169
     18          6           0       -6.072793    3.362538    0.697212
     19          6           0       -6.530999    4.816143    0.661308
     20          6           0       -7.810968    4.825631    0.260460
     21          6           0       -8.186247    3.372036   -0.043382
     22          6           0       -5.479867    5.918512    1.128527
     23          6           0       -8.695066    5.939249    0.128086
     24          6           0       -8.467217    7.177746    0.724812
     25          7           0       -9.107720    0.617942   -0.552851
     26          6           0       -9.863749    1.777028   -0.681419
     27          6           0      -11.193764    1.423255   -1.123261
     28          6           0      -11.235126    0.036361   -1.224796
     29          6           0      -10.015005   -0.382488   -0.907287
     30          6           0      -12.333606    2.501244   -1.266727
     31          6           0      -12.294706   -0.751320   -1.757684
     32          6           0      -12.209494   -1.192502   -3.149112
     33          7           0       -7.211906   -1.408977   -0.096013
     34          6           0       -8.331720   -2.140880   -0.414650
     35          6           0       -7.838729   -3.563686   -0.418866
     36          6           0       -6.594360   -3.475944   -0.014077
     37          6           0       -6.169371   -2.155508    0.176029
     38          6           0       -8.740889   -4.754646   -0.754245
     39          6           0       -5.457501   -4.330886    0.186408
     40          8           0       -5.262282   -5.501115    0.120033
     41          6           0       -4.272494   -3.298755    0.544628
     42          6           0       -3.500930   -3.611818    1.834858
     43          8           0       -3.761942   -3.088113    2.957001
     44          8           0       -2.693683   -4.685233    1.642964
     45          6           0       -2.209702   -5.340318    2.923063
     46          6           0        2.799589   -0.576518   -1.274521
     47          6           0        4.183551   -0.540202   -0.740410
     48          6           0        5.272442    0.209794   -1.060470
     49          6           0        5.278522    1.052027   -2.315087
     50          6           0        6.436632    0.134274   -0.178236
     51          6           0        7.726155   -0.282273   -0.987168
     52          6           0        8.942012   -0.258920   -0.104417
     53          6           0       10.225513   -0.704679   -0.794975
     54          6           0       10.154429   -2.167906   -1.237685
     55          6           0       11.360569   -0.365960    0.182208
     56          6           0       12.748539   -0.540626   -0.570371
     57          6           0       14.012221   -0.119784    0.317253
     58          6           0       15.320314   -0.250137   -0.345384
     59          6           0       15.747419   -1.664574   -0.727343
     60          6           0       16.508356    0.356068    0.450746
     61          6           0       17.854862    0.677182   -0.302358
     62          6           0       18.875305    1.477293    0.638607
     63          6           0       20.326207    1.373616    0.220320
     64          6           0       20.456321    2.213701   -1.071336
     65          6           0       21.204524    2.026122    1.173375
     66          1           0       -4.159688    3.709279    1.376904
     67          1           0      -10.046091    3.907663   -0.614060
     68          1           0      -10.374006   -2.437720   -0.836296
     69          1           0       -2.628781   -0.960257    2.050294
     70          1           0       -2.229674    1.677681    1.334811
     71          1           0       -1.950269    0.885868    3.675368
     72          1           0       -3.122337    2.353948    3.663097
     73          1           0       -3.580812    0.733027    3.849654
     74          1           0       -2.111528   -1.424542   -0.347057
     75          1           0       -2.157067    0.136096   -0.786451
     76          1           0       -0.313773    0.692297    0.788137
     77          1           0       -0.214436   -1.025937    1.374858
     78          1           0       -5.743812    6.780672    0.490380
     79          1           0       -5.530019    6.412456    2.168557
     80          1           0       -4.387338    5.677859    1.050416
     81          1           0       -9.752948    5.622820   -0.245304
     82          1           0       -9.206565    8.028513    0.492944
     83          1           0       -7.523786    7.270359    1.476597
     84          1           0      -12.314527    3.068747   -2.156238
     85          1           0      -13.340811    1.898520   -1.211987
     86          1           0      -12.575023    3.163231   -0.383885
     87          1           0      -12.337769   -1.729789   -1.394644
     88          1           0      -13.276742   -0.252187   -1.584173
     89          1           0      -12.974837   -1.738146   -3.438818
     90          1           0      -12.390923   -0.406520   -3.934842
     91          1           0      -11.212890   -1.635959   -3.481008
     92          1           0       -9.251699   -4.691855   -1.641851
     93          1           0       -8.278281   -5.693829   -0.568274
     94          1           0       -9.497594   -4.859708   -0.051157
     95          1           0       -3.580168   -3.392907   -0.230031
     96          1           0       -1.581424   -4.485767    3.529460
     97          1           0       -3.173116   -5.777061    3.344459
     98          1           0       -1.464974   -5.990281    2.557455
     99          1           0        2.628287   -1.587125   -1.681768
    100          1           0        2.426367    0.271242   -2.011842
    101          1           0        4.316437   -1.222244    0.080923
    102          1           0        4.396894    1.007563   -2.757071
    103          1           0        5.663158    2.083396   -1.976968
    104          1           0        6.162852    0.693959   -3.000192
    105          1           0        6.806432    1.246610    0.359837
    106          1           0        6.348035   -0.667591    0.626668
    107          1           0        7.547050   -1.433623   -1.230796
    108          1           0        7.864211    0.452042   -1.972426
    109          1           0        9.098410    0.802719   -0.084166
    110          1           0        8.658746   -0.871744    0.747624
    111          1           0       10.311706   -0.140931   -1.666732
    112          1           0        9.331096   -2.227385   -2.038043
    113          1           0       11.076251   -2.197586   -1.686010
    114          1           0       10.321444   -2.962213   -0.575130
    115          1           0       11.223762    0.561362    0.586914
    116          1           0       11.351371   -0.990508    1.056612
    117          1           0       12.773008   -1.510996   -0.998499
    118          1           0       12.899638    0.071845   -1.452605
    119          1           0       13.939016    0.900767    1.001862
    120          1           0       13.891226   -0.780536    1.246146
    121          1           0       15.180801    0.196678   -1.375574
    122          1           0       15.758052   -2.189974    0.187825
    123          1           0       15.008403   -2.180930   -1.383542
    124          1           0       16.511029   -1.862624   -1.226695
    125          1           0       15.785498    1.339812    0.665008
    126          1           0       16.795399   -0.214644    1.238601
    127          1           0       18.418578   -0.310984   -0.502141
    128          1           0       17.835563    1.241371   -1.102593
    129          1           0       18.615194    2.522832    0.803872
    130          1           0       18.797463    0.949881    1.533339
    131          1           0       20.612435    0.400999   -0.099255
    132          1           0       19.811176    3.162532   -1.027958
    133          1           0       21.565658    2.521480   -1.437693
    134          1           0       20.167204    1.584861   -1.744685
    135          1           0       20.934438    1.838168    2.409075
    136          1           0       22.268440    1.886446    0.900080
    137          1           0       20.980752    3.152086    1.073381
 ---------------------------------------------------------------------

 SCF Done:  E(RCAM-B3LYP) =  -2932.63572221     A.U. after   16 cycles

 Excitation energies and oscillator strengths:

 Excited State   1:      Singlet-A      2.2461 eV  551.99 nm  f=0.1473  <S**2>=0.000
     240 -> 242       -0.10341
     240 -> 243        0.30168
     241 -> 242        0.60697
     241 -> 243        0.13677
 This state for optimization and/or second-order correction.
 Total Energy, E(TD-HF/TD-KS) =  -2932.55317818
 Copying the excited state density for this state as the 1-particle RhoCI density.

 The electronic state is 1-A.
 Alpha  occ. eigenvalues --  -46.82511 -19.26472 -19.25583 -19.22819 -19.20997
 Alpha  occ. eigenvalues --  -19.20309 -14.41885 -14.39309 -14.38724 -14.37855
 Alpha  occ. eigenvalues --  -10.39615 -10.39381 -10.35097 -10.33242 -10.32233
 Alpha  occ. eigenvalues --  -10.31781 -10.31333 -10.30451 -10.28713 -10.28681
 Alpha  occ. eigenvalues --  -10.28296 -10.28267 -10.28238 -10.28172 -10.28141
 Alpha  occ. eigenvalues --  -10.28014 -10.27899 -10.27863 -10.27534 -10.27482
 Alpha  occ. eigenvalues --  -10.27462 -10.27386 -10.27362 -10.27278 -10.27051
 Alpha  occ. eigenvalues --  -10.26974 -10.26773 -10.26772 -10.26406 -10.26270
 Alpha  occ. eigenvalues --  -10.26071 -10.26003 -10.25914 -10.25859 -10.25840
 Alpha  occ. eigenvalues --  -10.25563 -10.25539 -10.25419 -10.25328 -10.25134
 Alpha  occ. eigenvalues --  -10.25125 -10.25111 -10.24997 -10.24864 -10.24853
 Alpha  occ. eigenvalues --  -10.24652 -10.24490 -10.24379 -10.24242 -10.24149
 Alpha  occ. eigenvalues --  -10.24121 -10.23883 -10.23637 -10.23578 -10.22067
 Alpha  occ. eigenvalues --   -3.11922  -1.86602  -1.86181  -1.86109  -1.19242
 Alpha  occ. eigenvalues --   -1.15756  -1.12937  -1.11191  -1.06300  -1.05544
 Alpha  occ. eigenvalues --   -1.03388  -1.02220  -1.01080  -0.93010  -0.91728
 Alpha  occ. eigenvalues --   -0.90884  -0.90446  -0.90220  -0.90058  -0.89390
 Alpha  occ. eigenvalues --   -0.89037  -0.88327  -0.87776  -0.86645  -0.85338
 Alpha  occ. eigenvalues --   -0.84754  -0.83747  -0.82902  -0.82792  -0.82104
 Alpha  occ. eigenvalues --   -0.81419  -0.81135  -0.80817  -0.80276  -0.78914
 Alpha  occ. eigenvalues --   -0.78149  -0.77161  -0.76933  -0.76586  -0.76221
 Alpha  occ. eigenvalues --   -0.75258  -0.75053  -0.74797  -0.72848  -0.72216
 Alpha  occ. eigenvalues --   -0.71653  -0.70524  -0.70236  -0.69158  -0.68488
 Alpha  occ. eigenvalues --   -0.66799  -0.66583  -0.65900  -0.65292  -0.65190
 Alpha  occ. eigenvalues --   -0.63679  -0.63311  -0.62933  -0.62597  -0.62190
 Alpha  occ. eigenvalues --   -0.61505  -0.60599  -0.60370  -0.59622  -0.58697
 Alpha  occ. eigenvalues --   -0.58510  -0.58031  -0.57400  -0.56905  -0.56634
 Alpha  occ. eigenvalues --   -0.56482  -0.55696  -0.55555  -0.55418  -0.55257
 Alpha  occ. eigenvalues --   -0.55190  -0.54314  -0.54183  -0.53833  -0.53065
 Alpha  occ. eigenvalues --   -0.52760  -0.52701  -0.52504  -0.52197  -0.52032
 Alpha  occ. eigenvalues --   -0.51268  -0.51110  -0.51044  -0.50891  -0.50643
 Alpha  occ. eigenvalues --   -0.50304  -0.50186  -0.50093  -0.49661  -0.49161
 Alpha  occ. eigenvalues --   -0.48907  -0.48849  -0.48530  -0.48343  -0.48276
 Alpha  occ. eigenvalues --   -0.48146  -0.47915  -0.47721  -0.47577  -0.47537
 Alpha  occ. eigenvalues --   -0.47265  -0.47052  -0.46785  -0.46645  -0.46345
 Alpha  occ. eigenvalues --   -0.46234  -0.45946  -0.45902  -0.45167  -0.45086
 Alpha  occ. eigenvalues --   -0.44986  -0.44705  -0.44610  -0.44387  -0.44275
 Alpha  occ. eigenvalues --   -0.44227  -0.44159  -0.43918  -0.43914  -0.43750
 Alpha  occ. eigenvalues --   -0.43352  -0.43174  -0.42625  -0.42532  -0.42419
 Alpha  occ. eigenvalues --   -0.42200  -0.42068  -0.41769  -0.41690  -0.41608
 Alpha  occ. eigenvalues --   -0.41330  -0.41121  -0.40891  -0.40807  -0.40411
 Alpha  occ. eigenvalues --   -0.40354  -0.40184  -0.40013  -0.39576  -0.39308
 Alpha  occ. eigenvalues --   -0.39117  -0.38969  -0.38520  -0.38273  -0.38016
 Alpha  occ. eigenvalues --   -0.37660  -0.37296  -0.37070  -0.36727  -0.36312
 Alpha  occ. eigenvalues --   -0.35836  -0.35698  -0.35595  -0.35539  -0.35043
 Alpha  occ. eigenvalues --   -0.34935  -0.34638  -0.34150  -0.33911  -0.33340
 Alpha  occ. eigenvalues --   -0.33161  -0.32902  -0.32358  -0.31551  -0.30309
 Alpha  occ. eigenvalues --   -0.30114  -0.28712  -0.27492  -0.27153  -0.23446
 Alpha  occ. eigenvalues --   -0.20947
 Alpha virt. eigenvalues --   -0.04902  -0.03740   0.01408   0.03668   0.05153
 Alpha virt. eigenvalues --    0.05268   0.06576   0.07126   0.07418   0.08247
 Alpha virt. eigenvalues --    0.08741   0.11247   0.11351   0.11730   0.12160

 Mulliken charges:
               1
     1  Mg   0.817769
     2  C    0.054074
     3  C   -0.209982
     4  C   -0.172354
     5  C   -0.154187
     6  N   -0.610156
     7  C    0.299536
     8  C   -0.174422
     9  C   -0.102614
    10  C    0.326952
    11  C   -0.317529
    12  C   -0.181312
    13  C   -0.264176
    14  C    0.587888
    15  O   -0.404506
    16  O   -0.499826
    17  N   -0.720746
    18  C    0.298904
    19  C    0.011813
    20  C    0.032150
    21  C    0.367645
    22  C   -0.386774
    23  C   -0.073614
    24  C   -0.261987
    25  N   -0.723944
    26  C    0.278181
    27  C   -0.018318
    28  C    0.086239
    29  C    0.245242
    30  C   -0.376998
    31  C   -0.245266
    32  C   -0.305436
    33  N   -0.785969
    34  C    0.288536
    35  C    0.009068
    36  C    0.008585
    37  C    0.350123
    38  C   -0.377454
    39  C    0.359466
    40  O   -0.431229
    41  C   -0.314267
    42  C    0.606158
    43  O   -0.505967
    44  O   -0.467806
    45  C   -0.077769
    46  C    0.015315
    47  C   -0.155264
    48  C    0.168453
    49  C   -0.341563
    50  C   -0.220967
    51  C   -0.188159
    52  C   -0.147782
    53  C   -0.068288
    54  C   -0.322219
    55  C   -0.174960
    56  C   -0.198341
    57  C   -0.176930
    58  C   -0.065840
    59  C   -0.299591
    60  C   -0.150916
    61  C   -0.193060
    62  C   -0.171671
    63  C   -0.062770
    64  C   -0.299327
    65  C   -0.270249
    66  H    0.075313
    67  H    0.084610
    68  H    0.096708
    69  H    0.129114
    70  H    0.105049
    71  H    0.106032
    72  H    0.103180
    73  H    0.137462
    74  H    0.106387
    75  H    0.124510
    76  H    0.131816
    77  H    0.124856
    78  H    0.129011
    79  H    0.117293
    80  H    0.118806
    81  H    0.092521
    82  H    0.111325
    83  H    0.108960
    84  H    0.129492
    85  H    0.091338
    86  H    0.115077
    87  H    0.107667
    88  H    0.097796
    89  H    0.113589
    90  H    0.086097
    91  H    0.101761
    92  H    0.133321
    93  H    0.142436
    94  H    0.135542
    95  H    0.157214
    96  H    0.124470
    97  H    0.154650
    98  H    0.142138
    99  H    0.128639
   100  H    0.106413
   101  H    0.086517
   102  H    0.117114
   103  H    0.105753
   104  H    0.111427
   105  H    0.067077
   106  H    0.100705
   107  H    0.080334
   108  H    0.064635
   109  H    0.092830
   110  H    0.092376
   111  H    0.090958
   112  H    0.101811
   113  H    0.104456
   114  H    0.107918
   115  H    0.100380
   116  H    0.095746
   117  H    0.110101
   118  H    0.092537
   119  H    0.072069
   120  H    0.076818
   121  H    0.078242
   122  H    0.097513
   123  H    0.075917
   124  H    0.111106
   125  H    0.062835
   126  H    0.101908
   127  H    0.081396
   128  H    0.109027
   129  H    0.093198
   130  H    0.092800
   131  H    0.091207
   132  H    0.092877
   133  H    0.071398
   134  H    0.113479
   135  H    0.052238
   136  H    0.102052
   137  H    0.091061
 Sum of Mulliken charges =   0.00000

 Dipole moment (field-independent basis, Debye):
    X=              2.3611    Y=              1.9583    Z=              0.2352  Tot=              3.0765
 Quadrupole moment (field-independent basis, Debye-Ang):
   XX=           -360.4363   YY=           -383.8829   ZZ=           -399.2071
   XY=            -18.7461   XZ=             -1.8560   YZ=             -3.1816

 Normal termination of Gaussian 09 at Fri Jul  5 22:37:12 2019.
