 Gaussian 16, Revision A.03,
 Gaussian 16:  ES64L-G16RevA.03 25-Dec-2016

 ----------------------------------------------------------------------
 # td=(NStates=1) iop(3/107=0140000000,3/108=0140000000) CAM-B3LYP/6-31
 G(d,p)
 ----------------------------------------------------------------------

 --
 TD
 --
 Symbolic Z-matrix:
 Charge =  0 Multiplicity = 1

                         Standard orientation:
 ---------------------------------------------------------------------
 Center     Atomic      Atomic             Coordinates (Angstroms)
 Number     Number       Type             X           Y           Z
 ---------------------------------------------------------------------
      1         12           0       -7.125611    0.646382    0.130219
      2          6           0       -4.828731   -1.937103    0.462292
      3          6           0       -4.778923    2.793251    1.059097
      4          6           0       -9.371144    3.181145   -0.377449
      5          6           0       -9.582682   -1.708070   -0.807291
      6          7           0       -5.170216    0.408980    0.748432
      7          6           0       -4.339414   -0.734187    0.911272
      8          6           0       -2.907913   -0.424729    1.207955
      9          6           0       -3.033090    1.061363    1.702138
     10          6           0       -4.404466    1.513127    1.121825
     11          6           0       -2.945084    1.207959    3.244683
     12          6           0       -1.948598   -0.760892    0.061736
     13          6           0       -0.490542   -0.535720    0.504420
     14          6           0        0.454364   -0.725927   -0.620515
     15          8           0        0.173593   -1.141382   -1.764797
     16          8           0        1.769658   -0.506100   -0.288442
     17          7           0       -7.093789    2.678754    0.369370
     18          6           0       -5.984281    3.479731    0.735982
     19          6           0       -6.329475    4.773730    0.682118
     20          6           0       -7.623060    4.879427    0.236266
     21          6           0       -8.021919    3.550193    0.064098
     22          6           0       -5.344722    5.881664    1.194700
     23          6           0       -8.413739    6.115273   -0.077577
     24          6           0       -8.448862    7.317848    0.526437
     25          7           0       -9.064256    0.693797   -0.395219
     26          6           0       -9.862256    1.871691   -0.596767
     27          6           0      -11.198754    1.549504   -0.989763
     28          6           0      -11.294169    0.201044   -1.101410
     29          6           0       -9.993118   -0.275700   -0.760738
     30          6           0      -12.302062    2.587891   -1.236769
     31          6           0      -12.445902   -0.724420   -1.519971
     32          6           0      -12.380601   -1.153952   -3.008391
     33          7           0       -7.248230   -1.377753   -0.191354
     34          6           0       -8.317479   -2.215835   -0.556197
     35          6           0       -7.830350   -3.592764   -0.508904
     36          6           0       -6.552830   -3.511748   -0.221083
     37          6           0       -6.146473   -2.156215    0.037042
     38          6           0       -8.901459   -4.681511   -0.725054
     39          6           0       -5.429052   -4.442016    0.094910
     40          8           0       -5.225450   -5.525648    0.018861
     41          6           0       -4.285169   -3.334969    0.415664
     42          6           0       -3.629264   -3.773732    1.690963
     43          8           0       -3.806523   -3.367149    2.712980
     44          8           0       -2.725514   -4.796180    1.533125
     45          6           0       -2.165088   -5.268216    2.744104
     46          6           0        2.764351   -0.640487   -1.232350
     47          6           0        4.100931   -0.561233   -0.566346
     48          6           0        5.079906    0.267903   -0.930359
     49          6           0        5.091256    1.104624   -2.120544
     50          6           0        6.392448    0.384326   -0.158632
     51          6           0        7.589638   -0.166319   -0.847346
     52          6           0        8.951099   -0.045840   -0.044901
     53          6           0       10.235759   -0.629075   -0.742668
     54          6           0       10.158960   -2.173041   -0.987186
     55          6           0       11.509757   -0.192288    0.046876
     56          6           0       12.880368   -0.424243   -0.678977
     57          6           0       13.992132   -0.028023    0.211069
     58          6           0       15.285617   -0.149797   -0.389081
     59          6           0       15.713807   -1.574934   -0.791190
     60          6           0       16.426939    0.540892    0.462642
     61          6           0       17.881026    0.553106   -0.186211
     62          6           0       18.852798    1.306160    0.630026
     63          6           0       20.385107    1.314555    0.154626
     64          6           0       20.466578    2.090129   -1.215001
     65          6           0       21.198453    1.948858    1.213264
     66          1           0       -3.774587    3.417102    1.359299
     67          1           0      -10.205961    3.949939   -0.653847
     68          1           0      -10.177467   -2.516780   -0.919017
     69          1           0       -2.794056   -1.081174    1.967996
     70          1           0       -2.130561    1.550532    1.250148
     71          1           0       -1.883686    0.628743    3.510070
     72          1           0       -2.816949    2.084736    3.720453
     73          1           0       -3.705905    0.513116    3.613939
     74          1           0       -2.156422   -1.857912   -0.256910
     75          1           0       -2.135845    0.112489   -0.668477
     76          1           0       -0.456188    0.514469    0.934368
     77          1           0       -0.083708   -1.271811    1.286087
     78          1           0       -5.653705    6.742410    0.787906
     79          1           0       -5.329513    6.204576    2.133316
     80          1           0       -4.282079    5.622433    1.041322
     81          1           0       -9.016039    5.794703   -0.777771
     82          1           0       -9.355751    8.044155    0.295246
     83          1           0       -7.803030    7.712562    1.348498
     84          1           0      -12.141412    3.339616   -2.085865
     85          1           0      -13.367452    2.152851   -1.288965
     86          1           0      -12.366583    3.310285   -0.515133
     87          1           0      -12.590387   -1.563137   -0.993492
     88          1           0      -13.439722   -0.180186   -1.332831
     89          1           0      -13.131620   -1.775477   -3.155140
     90          1           0      -12.305418   -0.234075   -3.717121
     91          1           0      -11.503977   -1.933134   -3.344017
     92          1           0       -9.303763   -4.536850   -1.747059
     93          1           0       -8.527527   -5.588107   -0.622097
     94          1           0       -9.570516   -4.683955   -0.095401
     95          1           0       -3.532061   -3.712666   -0.492031
     96          1           0       -1.553947   -4.614771    3.321734
     97          1           0       -3.145706   -5.432525    3.396548
     98          1           0       -1.811323   -6.208469    2.395730
     99          1           0        2.454357   -1.593306   -1.605338
    100          1           0        2.522462    0.016721   -2.127665
    101          1           0        4.033003   -1.168046    0.459531
    102          1           0        3.893617    1.305412   -2.505347
    103          1           0        5.591236    2.044727   -1.915334
    104          1           0        5.551595    0.665880   -2.979836
    105          1           0        6.678942    1.512264    0.145038
    106          1           0        6.209877   -0.244986    0.757196
    107          1           0        7.425317   -1.120211   -1.128607
    108          1           0        7.705512    0.487215   -1.766487
    109          1           0        9.166057    0.998514    0.258356
    110          1           0        8.814188   -0.828103    0.815561
    111          1           0       10.252074   -0.253406   -1.802974
    112          1           0        9.446325   -2.333269   -1.578744
    113          1           0       10.924375   -2.540489   -1.493846
    114          1           0        9.962489   -2.789068   -0.186723
    115          1           0       11.410704    0.655459    0.293285
    116          1           0       11.516940   -0.665319    1.023446
    117          1           0       12.869606   -1.512169   -1.174587
    118          1           0       12.952657   -0.000858   -1.611047
    119          1           0       13.886187    0.870368    0.567973
    120          1           0       14.014568   -0.601006    1.143055
    121          1           0       15.447216    0.548472   -1.291405
    122          1           0       15.710478   -2.008794    0.229702
    123          1           0       14.934333   -2.014027   -1.393095
    124          1           0       16.625356   -1.727655   -1.459325
    125          1           0       16.211604    1.450905    0.756066
    126          1           0       16.711378   -0.027457    1.421761
    127          1           0       18.120396   -0.657933   -0.368254
    128          1           0       17.768133    0.979979   -1.139011
    129          1           0       18.564080    2.311222    0.609246
    130          1           0       18.750196    0.875459    1.778155
    131          1           0       20.634662    0.338094    0.087981
    132          1           0       20.309430    3.086822   -0.911533
    133          1           0       21.501346    1.951165   -1.578849
    134          1           0       19.671530    1.562372   -1.911992
    135          1           0       21.141987    1.352090    1.986990
    136          1           0       22.343342    2.152872    0.913344
    137          1           0       21.098210    2.930601    1.505576
 ---------------------------------------------------------------------

 SCF Done:  E(RCAM-B3LYP) =  -2933.36729661     A.U. after   15 cycles

 Excitation energies and oscillator strengths:

 Excited State   1:      Singlet-A      2.0463 eV  605.90 nm  f=0.2199  <S**2>=0.000
     240 -> 243        0.22288
     241 -> 242        0.66576
 This state for optimization and/or second-order correction.
 Total Energy, E(TD-HF/TD-DFT) =  -2933.29209692
 Copying the excited state density for this state as the 1-particle RhoCI density.

 The electronic state is 1-A.
 Alpha  occ. eigenvalues --  -46.79062 -19.21001 -19.19485 -19.18361 -19.16432
 Alpha  occ. eigenvalues --  -19.16375 -14.37346 -14.35669 -14.34719 -14.34317
 Alpha  occ. eigenvalues --  -10.34696 -10.32501 -10.31018 -10.26585 -10.26314
 Alpha  occ. eigenvalues --  -10.25800 -10.25683 -10.25337 -10.24845 -10.24702
 Alpha  occ. eigenvalues --  -10.24632 -10.24593 -10.24408 -10.24207 -10.24196
 Alpha  occ. eigenvalues --  -10.24139 -10.23993 -10.23861 -10.23775 -10.22904
 Alpha  occ. eigenvalues --  -10.22903 -10.22820 -10.22666 -10.22646 -10.22610
 Alpha  occ. eigenvalues --  -10.22560 -10.22439 -10.22420 -10.22198 -10.22160
 Alpha  occ. eigenvalues --  -10.22158 -10.22112 -10.22090 -10.22060 -10.22045
 Alpha  occ. eigenvalues --  -10.21966 -10.21810 -10.21321 -10.21240 -10.21215
 Alpha  occ. eigenvalues --  -10.20915 -10.20885 -10.20855 -10.20738 -10.20578
 Alpha  occ. eigenvalues --  -10.20542 -10.20511 -10.20151 -10.20146 -10.19666
 Alpha  occ. eigenvalues --  -10.19166 -10.18815 -10.18562 -10.18534 -10.16540
 Alpha  occ. eigenvalues --   -3.07756  -1.82691  -1.82246  -1.82158  -1.15966
 Alpha  occ. eigenvalues --   -1.14423  -1.12695  -1.05515  -1.02968  -0.99326
 Alpha  occ. eigenvalues --   -0.98332  -0.96894  -0.96432  -0.87389  -0.86484
 Alpha  occ. eigenvalues --   -0.86235  -0.85439  -0.84139  -0.83645  -0.83326
 Alpha  occ. eigenvalues --   -0.83314  -0.83053  -0.82566  -0.81969  -0.81407
 Alpha  occ. eigenvalues --   -0.80061  -0.79604  -0.78847  -0.78704  -0.77350
 Alpha  occ. eigenvalues --   -0.76901  -0.76512  -0.76144  -0.75634  -0.74766
 Alpha  occ. eigenvalues --   -0.73660  -0.73228  -0.72849  -0.71930  -0.71371
 Alpha  occ. eigenvalues --   -0.70918  -0.70649  -0.70016  -0.69407  -0.68839
 Alpha  occ. eigenvalues --   -0.67328  -0.66320  -0.65725  -0.65038  -0.64218
 Alpha  occ. eigenvalues --   -0.62924  -0.62346  -0.61897  -0.61261  -0.60732
 Alpha  occ. eigenvalues --   -0.59276  -0.59260  -0.58916  -0.58734  -0.58093
 Alpha  occ. eigenvalues --   -0.57239  -0.56976  -0.56384  -0.56236  -0.55481
 Alpha  occ. eigenvalues --   -0.54667  -0.54450  -0.54138  -0.53166  -0.52811
 Alpha  occ. eigenvalues --   -0.52638  -0.51668  -0.51512  -0.51406  -0.51199
 Alpha  occ. eigenvalues --   -0.51123  -0.50578  -0.50033  -0.49904  -0.49531
 Alpha  occ. eigenvalues --   -0.49244  -0.48841  -0.48587  -0.48360  -0.48231
 Alpha  occ. eigenvalues --   -0.48048  -0.47846  -0.47528  -0.47452  -0.47267
 Alpha  occ. eigenvalues --   -0.46984  -0.46918  -0.46821  -0.46428  -0.46310
 Alpha  occ. eigenvalues --   -0.46059  -0.45815  -0.45357  -0.45235  -0.45207
 Alpha  occ. eigenvalues --   -0.44710  -0.44629  -0.44444  -0.44379  -0.44295
 Alpha  occ. eigenvalues --   -0.43954  -0.43759  -0.43427  -0.43134  -0.42850
 Alpha  occ. eigenvalues --   -0.42699  -0.42414  -0.42279  -0.42069  -0.41842
 Alpha  occ. eigenvalues --   -0.41682  -0.41338  -0.41139  -0.40932  -0.40643
 Alpha  occ. eigenvalues --   -0.40566  -0.40399  -0.40297  -0.40082  -0.39887
 Alpha  occ. eigenvalues --   -0.39822  -0.39655  -0.39436  -0.39353  -0.39133
 Alpha  occ. eigenvalues --   -0.38995  -0.38837  -0.38450  -0.38171  -0.38051
 Alpha  occ. eigenvalues --   -0.37927  -0.37526  -0.37508  -0.37336  -0.37275
 Alpha  occ. eigenvalues --   -0.37061  -0.36793  -0.36513  -0.36441  -0.35948
 Alpha  occ. eigenvalues --   -0.35909  -0.35704  -0.35620  -0.35177  -0.35099
 Alpha  occ. eigenvalues --   -0.34658  -0.34225  -0.33794  -0.33599  -0.33267
 Alpha  occ. eigenvalues --   -0.33257  -0.32878  -0.32579  -0.32547  -0.31859
 Alpha  occ. eigenvalues --   -0.31538  -0.31520  -0.31300  -0.30832  -0.30370
 Alpha  occ. eigenvalues --   -0.30254  -0.30052  -0.29682  -0.29193  -0.27743
 Alpha  occ. eigenvalues --   -0.27220  -0.27040  -0.26562  -0.24851  -0.21743
 Alpha  occ. eigenvalues --   -0.20050
 Alpha virt. eigenvalues --   -0.07114  -0.04071   0.00717   0.02882   0.03182
 Alpha virt. eigenvalues --    0.03965   0.04806   0.05464   0.05870   0.06345
 Alpha virt. eigenvalues --    0.07043   0.09018   0.09325   0.09897   0.10531

 Mulliken charges:
               1
     1  Mg   0.794165
     2  C    0.130979
     3  C   -0.218841
     4  C   -0.180263
     5  C   -0.142498
     6  N   -0.639605
     7  C    0.258296
     8  C   -0.122080
     9  C   -0.160186
    10  C    0.362070
    11  C   -0.286549
    12  C   -0.153616
    13  C   -0.263771
    14  C    0.603605
    15  O   -0.486993
    16  O   -0.470992
    17  N   -0.711289
    18  C    0.307542
    19  C    0.005627
    20  C   -0.024907
    21  C    0.325696
    22  C   -0.365017
    23  C   -0.016774
    24  C   -0.255596
    25  N   -0.665305
    26  C    0.279412
    27  C    0.041301
    28  C    0.062164
    29  C    0.262865
    30  C   -0.395701
    31  C   -0.233711
    32  C   -0.297862
    33  N   -0.738054
    34  C    0.255082
    35  C    0.016255
    36  C   -0.044677
    37  C    0.302133
    38  C   -0.342209
    39  C    0.372349
    40  O   -0.339593
    41  C   -0.406348
    42  C    0.605148
    43  O   -0.412075
    44  O   -0.477667
    45  C   -0.079160
    46  C    0.028948
    47  C   -0.134588
    48  C    0.151480
    49  C   -0.359245
    50  C   -0.224538
    51  C   -0.162740
    52  C   -0.174064
    53  C   -0.080074
    54  C   -0.314301
    55  C   -0.138453
    56  C   -0.186526
    57  C   -0.137269
    58  C   -0.073172
    59  C   -0.302764
    60  C   -0.182818
    61  C   -0.174772
    62  C   -0.156736
    63  C   -0.061835
    64  C   -0.309282
    65  C   -0.297536
    66  H    0.059217
    67  H    0.084860
    68  H    0.059954
    69  H    0.122094
    70  H    0.084689
    71  H    0.068348
    72  H    0.128795
    73  H    0.129997
    74  H    0.128235
    75  H    0.116792
    76  H    0.134771
    77  H    0.138178
    78  H    0.114820
    79  H    0.128645
    80  H    0.105588
    81  H    0.078669
    82  H    0.091035
    83  H    0.105494
    84  H    0.114208
    85  H    0.109414
    86  H    0.137125
    87  H    0.118697
    88  H    0.094430
    89  H    0.120287
    90  H    0.108272
    91  H    0.079049
    92  H    0.124839
    93  H    0.131713
    94  H    0.139673
    95  H    0.137550
    96  H    0.123901
    97  H    0.100550
    98  H    0.126729
    99  H    0.117277
   100  H    0.102991
   101  H    0.087870
   102  H    0.074785
   103  H    0.116637
   104  H    0.138993
   105  H    0.078631
   106  H    0.087854
   107  H    0.109481
   108  H    0.079771
   109  H    0.087330
   110  H    0.080327
   111  H    0.070534
   112  H    0.107062
   113  H    0.104139
   114  H    0.100491
   115  H    0.085951
   116  H    0.084258
   117  H    0.071535
   118  H    0.101304
   119  H    0.102234
   120  H    0.086272
   121  H    0.064468
   122  H    0.101164
   123  H    0.099428
   124  H    0.101568
   125  H    0.093241
   126  H    0.066663
   127  H    0.060332
   128  H    0.094455
   129  H    0.095338
   130  H    0.053594
   131  H    0.096694
   132  H    0.111218
   133  H    0.103192
   134  H    0.093303
   135  H    0.112364
   136  H    0.059267
   137  H    0.108301
 Sum of Mulliken charges =  -0.00000

 Dipole moment (field-independent basis, Debye):
    X=             -0.9387    Y=              2.3310    Z=              0.7102  Tot=              2.6114
 Quadrupole moment (field-independent basis, Debye-Ang):
   XX=           -334.1937   YY=           -389.9549   ZZ=           -398.6344
   XY=              5.8167   XZ=              8.8020   YZ=              1.2571

 Normal termination of Gaussian 16 at Wed Sep 18 13:32:23 2019.
