 Gaussian 16, Revision A.03,
 Gaussian 16:  ES64L-G16RevA.03 25-Dec-2016

 ----------------------------------------------------------------------
 # td=(NStates=1) iop(3/107=0140000000,3/108=0140000000) CAM-B3LYP/6-31
 G(d,p)
 ----------------------------------------------------------------------

 --
 TD
 --
 Symbolic Z-matrix:
 Charge =  0 Multiplicity = 1

                         Standard orientation:
 ---------------------------------------------------------------------
 Center     Atomic      Atomic             Coordinates (Angstroms)
 Number     Number       Type             X           Y           Z
 ---------------------------------------------------------------------
      1         12           0       -7.191394    0.615118    0.073250
      2          6           0       -4.848322   -1.938100    0.476377
      3          6           0       -4.804528    2.924246    1.064099
      4          6           0       -9.390058    3.128704   -0.283433
      5          6           0       -9.585875   -1.723415   -0.877727
      6          7           0       -5.172626    0.460810    0.581045
      7          6           0       -4.395765   -0.711501    0.896780
      8          6           0       -2.871355   -0.360880    1.284068
      9          6           0       -3.109783    1.092892    1.715508
     10          6           0       -4.475702    1.586007    1.065082
     11          6           0       -2.990420    1.336555    3.171554
     12          6           0       -1.875801   -0.590871    0.151704
     13          6           0       -0.411182   -0.389549    0.598244
     14          6           0        0.529296   -0.665740   -0.512570
     15          8           0        0.277451   -1.106287   -1.640236
     16          8           0        1.870279   -0.465145   -0.109081
     17          7           0       -7.135154    2.663707    0.278750
     18          6           0       -6.044501    3.429774    0.632099
     19          6           0       -6.411146    4.826253    0.656691
     20          6           0       -7.756333    4.978743    0.283579
     21          6           0       -8.136482    3.509645    0.056897
     22          6           0       -5.496676    5.952140    1.049260
     23          6           0       -8.586605    6.067667    0.052062
     24          6           0       -8.400622    7.232495    0.611240
     25          7           0       -9.134573    0.615394   -0.572920
     26          6           0       -9.863380    1.717759   -0.628320
     27          6           0      -11.203159    1.421203   -1.058626
     28          6           0      -11.264324    0.152034   -1.227385
     29          6           0       -9.989092   -0.431254   -0.902001
     30          6           0      -12.342213    2.368435   -1.171000
     31          6           0      -12.403753   -0.839717   -1.717040
     32          6           0      -12.228446   -1.212022   -3.289669
     33          7           0       -7.261984   -1.436656   -0.223339
     34          6           0       -8.331042   -2.288768   -0.478825
     35          6           0       -7.843266   -3.673659   -0.583862
     36          6           0       -6.489286   -3.572651   -0.157583
     37          6           0       -6.170943   -2.247451    0.003243
     38          6           0       -8.610317   -4.887844   -0.841210
     39          6           0       -5.441055   -4.372602    0.145177
     40          8           0       -5.210379   -5.552913    0.261634
     41          6           0       -4.199382   -3.279013    0.428086
     42          6           0       -3.442718   -3.667776    1.706593
     43          8           0       -3.653041   -3.128826    2.786154
     44          8           0       -2.678987   -4.791502    1.596002
     45          6           0       -2.186902   -5.254142    2.828855
     46          6           0        2.829070   -0.705546   -1.096056
     47          6           0        4.115524   -0.360435   -0.429221
     48          6           0        5.136121    0.408977   -0.801532
     49          6           0        5.166042    1.209902   -2.058105
     50          6           0        6.459443    0.365027   -0.034113
     51          6           0        7.686464   -0.207205   -0.716255
     52          6           0        8.928746   -0.058616    0.155719
     53          6           0       10.195011   -0.578175   -0.681640
     54          6           0       10.116364   -2.107689   -0.982872
     55          6           0       11.381426   -0.159713    0.099032
     56          6           0       12.861004   -0.345406   -0.675734
     57          6           0       13.953407   -0.077218    0.212374
     58          6           0       15.408866   -0.184885   -0.501621
     59          6           0       15.642923   -1.699461   -0.890659
     60          6           0       16.452840    0.491342    0.483672
     61          6           0       17.811516    0.448761   -0.184680
     62          6           0       18.798972    1.351356    0.531175
     63          6           0       20.287736    1.250581    0.002463
     64          6           0       20.397493    2.075050   -1.327433
     65          6           0       21.235652    1.882340    1.051315
     66          1           0       -3.918560    3.514808    1.507698
     67          1           0      -10.275239    3.774508   -0.420807
     68          1           0      -10.425096   -2.562331   -1.218157
     69          1           0       -2.521274   -1.199882    2.096497
     70          1           0       -2.512059    1.789307    1.169809
     71          1           0       -2.039389    1.282789    3.583998
     72          1           0       -3.361722    2.365048    3.506226
     73          1           0       -3.766894    0.853507    3.680173
     74          1           0       -1.966315   -1.667845   -0.239263
     75          1           0       -2.284084    0.242486   -0.654902
     76          1           0       -0.435134    0.713535    0.856541
     77          1           0       -0.306679   -1.179512    1.418703
     78          1           0       -5.815013    6.863444    0.660396
     79          1           0       -5.332311    6.366018    2.095289
     80          1           0       -4.410429    5.705706    0.768254
     81          1           0       -9.470718    5.920336   -0.658940
     82          1           0       -9.152569    7.863905    0.286854
     83          1           0       -7.575988    7.172076    1.416930
     84          1           0      -12.284701    3.339275   -1.861604
     85          1           0      -13.222469    1.912830   -1.457330
     86          1           0      -12.532146    2.842916   -0.236697
     87          1           0      -12.493356   -1.660727   -1.099494
     88          1           0      -13.260656   -0.410061   -1.428384
     89          1           0      -13.261118   -1.698462   -3.663928
     90          1           0      -11.937934   -0.119915   -3.853587
     91          1           0      -11.241467   -1.943221   -3.496170
     92          1           0       -9.438731   -4.965216   -1.806250
     93          1           0       -7.817257   -5.790112   -0.846157
     94          1           0       -9.217079   -5.099629   -0.008344
     95          1           0       -3.529434   -3.271809   -0.272079
     96          1           0       -1.823277   -4.251793    3.584414
     97          1           0       -2.980992   -5.680759    3.501793
     98          1           0       -1.376644   -5.939107    2.704300
     99          1           0        2.826349   -1.634033   -1.512551
    100          1           0        2.582070   -0.079902   -2.000475
    101          1           0        4.188486   -0.995580    0.436334
    102          1           0        4.201332    0.999952   -2.533484
    103          1           0        5.624452    2.343409   -2.084476
    104          1           0        5.868343    0.647328   -2.706461
    105          1           0        6.820860    1.392610    0.192507
    106          1           0        6.329349    0.012320    0.878776
    107          1           0        7.349919   -1.171950   -1.159288
    108          1           0        7.781975    0.298488   -1.758795
    109          1           0        9.240928    1.144978    0.384603
    110          1           0        8.813335   -0.647639    1.034594
    111          1           0       10.129462   -0.177656   -1.670971
    112          1           0        9.303376   -2.099348   -1.856529
    113          1           0       11.003319   -2.389020   -1.686352
    114          1           0        9.965014   -2.794080   -0.059802
    115          1           0       11.272510    0.771235    0.471900
    116          1           0       11.390475   -0.644456    1.186421
    117          1           0       13.003296   -1.212760   -1.118483
    118          1           0       12.738506    0.535679   -1.367553
    119          1           0       13.770928    0.913593    0.757051
    120          1           0       13.988948   -0.860902    0.918436
    121          1           0       15.220150    0.294616   -1.475842
    122          1           0       15.658868   -2.298080   -0.051866
    123          1           0       14.821504   -2.197518   -1.461108
    124          1           0       16.532023   -1.930161   -1.403360
    125          1           0       15.903875    1.430554    0.777718
    126          1           0       16.293014   -0.085602    1.300792
    127          1           0       18.204639   -0.692968   -0.185006
    128          1           0       17.581944    0.891392   -1.247828
    129          1           0       18.555883    2.277486    0.350262
    130          1           0       18.920055    0.881160    1.526599
    131          1           0       20.525826    0.314540   -0.084410
    132          1           0       19.973160    3.039218   -0.899021
    133          1           0       21.305609    2.272686   -1.853213
    134          1           0       19.599446    1.577806   -1.798804
    135          1           0       20.901789    1.289687    1.972242
    136          1           0       22.342839    1.693556    0.807629
    137          1           0       21.076482    2.960921    1.061858
 ---------------------------------------------------------------------

 SCF Done:  E(RCAM-B3LYP) =  -2933.44142156     A.U. after   15 cycles

 Excitation energies and oscillator strengths:

 Excited State   1:      Singlet-A      2.1229 eV  584.02 nm  f=0.2794  <S**2>=0.000
     240 -> 243        0.20607
     241 -> 242        0.66596
 This state for optimization and/or second-order correction.
 Total Energy, E(TD-HF/TD-DFT) =  -2933.36340528
 Copying the excited state density for this state as the 1-particle RhoCI density.

 The electronic state is 1-A.
 Alpha  occ. eigenvalues --  -46.80459 -19.21861 -19.21208 -19.17431 -19.15589
 Alpha  occ. eigenvalues --  -19.15325 -14.37904 -14.36424 -14.35846 -14.34971
 Alpha  occ. eigenvalues --  -10.35027 -10.33535 -10.29226 -10.27221 -10.27106
 Alpha  occ. eigenvalues --  -10.27046 -10.26108 -10.26017 -10.25960 -10.25899
 Alpha  occ. eigenvalues --  -10.25745 -10.24822 -10.24738 -10.24704 -10.24270
 Alpha  occ. eigenvalues --  -10.24090 -10.24080 -10.23945 -10.23875 -10.23843
 Alpha  occ. eigenvalues --  -10.23700 -10.23417 -10.23216 -10.23180 -10.23063
 Alpha  occ. eigenvalues --  -10.22866 -10.22692 -10.22658 -10.22551 -10.22273
 Alpha  occ. eigenvalues --  -10.22257 -10.22208 -10.22031 -10.22021 -10.22018
 Alpha  occ. eigenvalues --  -10.21927 -10.21847 -10.21764 -10.21564 -10.21521
 Alpha  occ. eigenvalues --  -10.21480 -10.21284 -10.20448 -10.20402 -10.20354
 Alpha  occ. eigenvalues --  -10.20345 -10.20280 -10.19914 -10.19756 -10.19636
 Alpha  occ. eigenvalues --  -10.19550 -10.19481 -10.19479 -10.19300 -10.19295
 Alpha  occ. eigenvalues --   -3.08985  -1.83932  -1.83451  -1.83392  -1.12404
 Alpha  occ. eigenvalues --   -1.11682  -1.05666  -1.03734  -1.03150  -1.00344
 Alpha  occ. eigenvalues --   -0.99603  -0.97641  -0.95447  -0.87299  -0.86395
 Alpha  occ. eigenvalues --   -0.85692  -0.85150  -0.84895  -0.84553  -0.84121
 Alpha  occ. eigenvalues --   -0.83979  -0.82878  -0.82694  -0.81853  -0.81471
 Alpha  occ. eigenvalues --   -0.80179  -0.79760  -0.78666  -0.78268  -0.78032
 Alpha  occ. eigenvalues --   -0.76617  -0.76111  -0.75280  -0.74983  -0.74029
 Alpha  occ. eigenvalues --   -0.73425  -0.73252  -0.71147  -0.70928  -0.70833
 Alpha  occ. eigenvalues --   -0.70470  -0.70326  -0.70017  -0.68368  -0.67673
 Alpha  occ. eigenvalues --   -0.66957  -0.65817  -0.65166  -0.64617  -0.64182
 Alpha  occ. eigenvalues --   -0.63778  -0.61668  -0.61415  -0.60481  -0.60297
 Alpha  occ. eigenvalues --   -0.59532  -0.59240  -0.59075  -0.58488  -0.58262
 Alpha  occ. eigenvalues --   -0.57647  -0.57052  -0.56149  -0.55921  -0.55572
 Alpha  occ. eigenvalues --   -0.55117  -0.54333  -0.53291  -0.53058  -0.52832
 Alpha  occ. eigenvalues --   -0.52788  -0.51613  -0.51533  -0.51346  -0.51117
 Alpha  occ. eigenvalues --   -0.50844  -0.50468  -0.49582  -0.49435  -0.49322
 Alpha  occ. eigenvalues --   -0.48907  -0.48770  -0.48341  -0.48038  -0.47592
 Alpha  occ. eigenvalues --   -0.47361  -0.47149  -0.46888  -0.46595  -0.46483
 Alpha  occ. eigenvalues --   -0.46342  -0.45993  -0.45770  -0.45582  -0.45446
 Alpha  occ. eigenvalues --   -0.45289  -0.45218  -0.45166  -0.44759  -0.44632
 Alpha  occ. eigenvalues --   -0.44396  -0.44382  -0.44127  -0.43897  -0.43859
 Alpha  occ. eigenvalues --   -0.43490  -0.43194  -0.42975  -0.42426  -0.42151
 Alpha  occ. eigenvalues --   -0.41936  -0.41824  -0.41582  -0.41497  -0.41317
 Alpha  occ. eigenvalues --   -0.41244  -0.41167  -0.40948  -0.40795  -0.40558
 Alpha  occ. eigenvalues --   -0.40309  -0.40287  -0.40110  -0.39930  -0.39846
 Alpha  occ. eigenvalues --   -0.39596  -0.39425  -0.39307  -0.39112  -0.39096
 Alpha  occ. eigenvalues --   -0.38972  -0.38676  -0.38624  -0.38298  -0.38113
 Alpha  occ. eigenvalues --   -0.37817  -0.37715  -0.37396  -0.36949  -0.36932
 Alpha  occ. eigenvalues --   -0.36858  -0.36621  -0.36400  -0.36223  -0.35937
 Alpha  occ. eigenvalues --   -0.35910  -0.35272  -0.35111  -0.35028  -0.34832
 Alpha  occ. eigenvalues --   -0.34536  -0.34062  -0.33943  -0.33554  -0.33517
 Alpha  occ. eigenvalues --   -0.33411  -0.32885  -0.32850  -0.32610  -0.32095
 Alpha  occ. eigenvalues --   -0.31960  -0.31380  -0.31356  -0.30860  -0.30609
 Alpha  occ. eigenvalues --   -0.30472  -0.29243  -0.28601  -0.28510  -0.27711
 Alpha  occ. eigenvalues --   -0.26452  -0.26349  -0.25921  -0.25881  -0.22100
 Alpha  occ. eigenvalues --   -0.20549
 Alpha virt. eigenvalues --   -0.07393  -0.04123  -0.00312   0.01836   0.02530
 Alpha virt. eigenvalues --    0.04173   0.04462   0.05034   0.05289   0.05671
 Alpha virt. eigenvalues --    0.06369   0.08082   0.08871   0.09547   0.09816

 Mulliken charges:
               1
     1  Mg   0.814637
     2  C    0.110501
     3  C   -0.201406
     4  C   -0.190724
     5  C   -0.183876
     6  N   -0.638370
     7  C    0.255576
     8  C   -0.128508
     9  C   -0.144455
    10  C    0.331970
    11  C   -0.306217
    12  C   -0.161746
    13  C   -0.258227
    14  C    0.617108
    15  O   -0.464424
    16  O   -0.479524
    17  N   -0.710699
    18  C    0.335640
    19  C    0.011118
    20  C    0.062326
    21  C    0.334152
    22  C   -0.401487
    23  C   -0.073223
    24  C   -0.232315
    25  N   -0.694107
    26  C    0.294539
    27  C    0.039351
    28  C    0.027255
    29  C    0.300518
    30  C   -0.395297
    31  C   -0.213914
    32  C   -0.284042
    33  N   -0.708032
    34  C    0.235260
    35  C    0.069708
    36  C    0.103131
    37  C    0.260339
    38  C   -0.399695
    39  C    0.294051
    40  O   -0.468076
    41  C   -0.336529
    42  C    0.597754
    43  O   -0.475076
    44  O   -0.424950
    45  C   -0.081404
    46  C    0.019728
    47  C   -0.135416
    48  C    0.126439
    49  C   -0.361571
    50  C   -0.211797
    51  C   -0.180856
    52  C   -0.166153
    53  C   -0.043209
    54  C   -0.300417
    55  C   -0.173235
    56  C   -0.167594
    57  C   -0.177465
    58  C   -0.078913
    59  C   -0.341546
    60  C   -0.161395
    61  C   -0.182570
    62  C   -0.148052
    63  C   -0.080810
    64  C   -0.308121
    65  C   -0.289496
    66  H    0.095957
    67  H    0.080142
    68  H    0.083189
    69  H    0.108922
    70  H    0.096637
    71  H    0.123361
    72  H    0.085423
    73  H    0.134360
    74  H    0.113630
    75  H    0.086686
    76  H    0.141271
    77  H    0.146165
    78  H    0.129440
    79  H    0.118624
    80  H    0.107659
    81  H    0.095047
    82  H    0.104416
    83  H    0.109516
    84  H    0.097071
    85  H    0.122888
    86  H    0.129867
    87  H    0.113230
    88  H    0.104411
    89  H    0.101658
    90  H    0.093108
    91  H    0.100957
    92  H    0.090531
    93  H    0.133536
    94  H    0.149014
    95  H    0.146675
    96  H    0.082814
    97  H    0.128998
    98  H    0.123407
    99  H    0.132221
   100  H    0.099119
   101  H    0.086111
   102  H    0.104455
   103  H    0.102458
   104  H    0.118770
   105  H    0.083604
   106  H    0.098203
   107  H    0.101413
   108  H    0.074106
   109  H    0.068995
   110  H    0.108869
   111  H    0.088157
   112  H    0.084369
   113  H    0.092848
   114  H    0.101482
   115  H    0.092909
   116  H    0.053440
   117  H    0.097564
   118  H    0.085822
   119  H    0.068977
   120  H    0.094324
   121  H    0.082141
   122  H    0.107953
   123  H    0.096564
   124  H    0.108721
   125  H    0.092218
   126  H    0.106147
   127  H    0.081672
   128  H    0.089549
   129  H    0.097365
   130  H    0.089600
   131  H    0.088780
   132  H    0.083164
   133  H    0.107156
   134  H    0.107848
   135  H    0.081893
   136  H    0.087747
   137  H    0.098493
 Sum of Mulliken charges =  -0.00000

 Dipole moment (field-independent basis, Debye):
    X=             -1.9870    Y=              5.7505    Z=              0.7216  Tot=              6.1267
 Quadrupole moment (field-independent basis, Debye-Ang):
   XX=           -318.5426   YY=           -392.8681   ZZ=           -401.1907
   XY=            -39.9391   XZ=              6.2220   YZ=              1.5851

 Normal termination of Gaussian 16 at Wed Sep  4 23:58:49 2019.
