 Gaussian 09, Revision D.01,
 Gaussian 09:  ES64L-G09RevD.01 24-Apr-2013

 -------------------------------------
 # td=(NStates=1) CAM-B3LYP/6-31G(d,p)
 -------------------------------------

 --
 TD
 --
 Symbolic Z-matrix:
 Charge =  0 Multiplicity = 1

                         Standard orientation:
 ---------------------------------------------------------------------
 Center     Atomic      Atomic             Coordinates (Angstroms)
 Number     Number       Type             X           Y           Z
 ---------------------------------------------------------------------
      1         12           0       -7.118768    0.524163    0.054198
      2          6           0       -4.835874   -2.058847    0.524447
      3          6           0       -4.717145    2.727498    1.206806
      4          6           0       -9.281561    3.123053   -0.560181
      5          6           0       -9.468793   -1.700452   -0.923934
      6          7           0       -5.085947    0.346961    0.742744
      7          6           0       -4.253882   -0.752960    0.828875
      8          6           0       -2.925937   -0.457022    1.273576
      9          6           0       -3.046971    1.002259    1.797674
     10          6           0       -4.375800    1.411341    1.243463
     11          6           0       -2.984528    1.137328    3.304803
     12          6           0       -1.968062   -0.583364    0.108827
     13          6           0       -0.495708   -0.582658    0.585381
     14          6           0        0.457467   -0.665156   -0.712656
     15          8           0        0.161567   -0.797635   -1.882839
     16          8           0        1.804190   -0.676793   -0.258289
     17          7           0       -7.062508    2.629752    0.424004
     18          6           0       -5.961959    3.314397    0.837081
     19          6           0       -6.413272    4.738216    0.866339
     20          6           0       -7.620820    4.901582    0.322060
     21          6           0       -8.021228    3.487228   -0.054197
     22          6           0       -5.495096    5.933753    1.349058
     23          6           0       -8.425808    6.004907    0.242837
     24          6           0       -8.399194    7.122774    0.961327
     25          7           0       -9.089967    0.748540   -0.672632
     26          6           0       -9.870319    1.837597   -0.725618
     27          6           0      -11.130370    1.508415   -1.191845
     28          6           0      -11.208136    0.139640   -1.292528
     29          6           0       -9.912053   -0.357144   -0.889644
     30          6           0      -12.130089    2.584976   -1.554486
     31          6           0      -12.368728   -0.720886   -1.729927
     32          6           0      -12.331723   -0.892532   -3.252156
     33          7           0       -7.227288   -1.312915   -0.189639
     34          6           0       -8.252593   -2.225410   -0.593095
     35          6           0       -7.804594   -3.577379   -0.555702
     36          6           0       -6.537892   -3.573414   -0.001177
     37          6           0       -6.092415   -2.162565    0.147687
     38          6           0       -8.644891   -4.785178   -0.957618
     39          6           0       -5.391371   -4.378817    0.300908
     40          8           0       -5.351872   -5.585075    0.374208
     41          6           0       -4.216979   -3.431615    0.565079
     42          6           0       -3.547436   -3.734043    1.893099
     43          8           0       -3.918627   -3.122587    2.955731
     44          8           0       -2.769545   -4.808472    1.805578
     45          6           0       -2.198773   -5.274837    3.005282
     46          6           0        2.745003   -0.677378   -1.238615
     47          6           0        4.097792   -0.478100   -0.633962
     48          6           0        5.029994    0.396487   -0.956575
     49          6           0        5.051456    1.378760   -2.092578
     50          6           0        6.431071    0.476875   -0.215558
     51          6           0        7.592295   -0.159448   -0.999031
     52          6           0        8.790367   -0.059214   -0.153130
     53          6           0       10.134228   -0.516515   -0.939128
     54          6           0       10.072631   -1.889001   -1.543397
     55          6           0       11.405877   -0.259745   -0.096330
     56          6           0       12.818835   -0.456875   -0.686565
     57          6           0       14.018642   -0.096961    0.137620
     58          6           0       15.397680   -0.231151   -0.513245
     59          6           0       15.693355   -1.689625   -1.048342
     60          6           0       16.558396    0.166305    0.529590
     61          6           0       17.817853    0.368863   -0.099633
     62          6           0       18.812621    1.187615    0.808218
     63          6           0       20.269391    1.365031    0.331184
     64          6           0       20.349032    1.995292   -1.035116
     65          6           0       21.092027    2.185557    1.311585
     66          1           0       -4.060066    3.530625    1.668537
     67          1           0      -10.118032    3.875009   -0.743783
     68          1           0      -10.425728   -2.380442   -1.174448
     69          1           0       -2.598496   -1.117097    2.009530
     70          1           0       -2.219277    1.684254    1.203970
     71          1           0       -2.068828    0.758732    3.700386
     72          1           0       -3.247875    2.042963    3.878281
     73          1           0       -3.650725    0.594435    3.724348
     74          1           0       -2.195037   -1.443373   -0.284723
     75          1           0       -1.930501    0.113057   -0.679047
     76          1           0       -0.490987    0.428478    0.921011
     77          1           0       -0.274510   -1.452662    1.270736
     78          1           0       -5.868377    6.751788    0.653545
     79          1           0       -5.590097    6.249440    2.380704
     80          1           0       -4.465031    5.991442    1.165233
     81          1           0       -9.247402    6.003204   -0.716365
     82          1           0       -9.087359    7.763004    0.571941
     83          1           0       -7.925868    7.497815    1.899106
     84          1           0      -11.773855    3.204859   -2.337516
     85          1           0      -13.137381    2.085031   -1.817017
     86          1           0      -12.270577    3.096606   -0.646869
     87          1           0      -12.283488   -1.883248   -1.255090
     88          1           0      -13.303933   -0.243426   -1.433637
     89          1           0      -13.180492   -1.648056   -3.538499
     90          1           0      -12.517067   -0.092882   -3.908754
     91          1           0      -11.361515   -1.327515   -3.626884
     92          1           0       -9.021927   -4.479387   -1.885585
     93          1           0       -8.126141   -5.683371   -0.794909
     94          1           0       -9.536504   -4.602708   -0.144340
     95          1           0       -3.469819   -3.384541   -0.336181
     96          1           0       -1.897830   -4.396808    3.726724
     97          1           0       -3.019425   -5.893439    3.363303
     98          1           0       -1.298514   -5.795977    2.676118
     99          1           0        2.652757   -1.499125   -1.788626
    100          1           0        2.413850    0.209824   -1.898776
    101          1           0        4.227347   -1.052896    0.334858
    102          1           0        4.027872    1.542532   -2.404714
    103          1           0        5.259972    2.431447   -1.836007
    104          1           0        5.609509    0.923734   -3.025538
    105          1           0        6.603516    1.517507   -0.034612
    106          1           0        6.145144   -0.121495    0.666357
    107          1           0        7.190249   -1.057091   -1.359729
    108          1           0        7.811289    0.305509   -1.841925
    109          1           0        8.951423    0.877190    0.348644
    110          1           0        8.651820   -0.681896    0.662377
    111          1           0       10.275398    0.112680   -1.885484
    112          1           0        9.199225   -1.858106   -2.109235
    113          1           0       10.893016   -2.028937   -2.287247
    114          1           0       10.033995   -2.650315   -0.934325
    115          1           0       11.427995    0.821914    0.413734
    116          1           0       11.406189   -1.038480    0.674849
    117          1           0       12.824347   -1.346415   -1.098523
    118          1           0       12.773574    0.283488   -1.637483
    119          1           0       13.906905    0.855190    0.563769
    120          1           0       14.082898   -0.819939    1.099250
    121          1           0       15.467762    0.472959   -1.240729
    122          1           0       15.601123   -2.314237   -0.118228
    123          1           0       14.933608   -1.998693   -1.764163
    124          1           0       16.600487   -1.926745   -1.532863
    125          1           0       16.093970    1.086202    1.006264
    126          1           0       16.708767   -0.498003    1.290395
    127          1           0       18.263180   -0.579119   -0.333449
    128          1           0       17.766492    1.097640   -1.027183
    129          1           0       18.596517    2.288526    1.065161
    130          1           0       19.122060    0.575197    1.792775
    131          1           0       20.940843    0.400247    0.237128
    132          1           0       19.990063    3.012816   -1.012085
    133          1           0       21.265833    2.183774   -1.515272
    134          1           0       19.773204    1.581470   -2.036801
    135          1           0       21.157941    1.919102    2.386247
    136          1           0       22.097855    2.298936    1.049351
    137          1           0       20.358089    3.171217    1.484171
 ---------------------------------------------------------------------

 SCF Done:  E(RCAM-B3LYP) =  -2932.67831429     A.U. after   15 cycles

 Excitation energies and oscillator strengths:

 Excited State   1:      Singlet-A      2.0517 eV  604.30 nm  f=0.2162  <S**2>=0.000
     240 -> 243       -0.28705
     241 -> 242        0.63860
 This state for optimization and/or second-order correction.
 Total Energy, E(TD-HF/TD-KS) =  -2932.60291546
 Copying the excited state density for this state as the 1-particle RhoCI density.

 The electronic state is 1-A.
 Alpha  occ. eigenvalues --  -46.83299 -19.28299 -19.25726 -19.23497 -19.21404
 Alpha  occ. eigenvalues --  -19.20268 -14.42360 -14.39809 -14.38955 -14.37834
 Alpha  occ. eigenvalues --  -10.41098 -10.40668 -10.34885 -10.32608 -10.31976
 Alpha  occ. eigenvalues --  -10.30650 -10.30372 -10.30302 -10.29630 -10.29534
 Alpha  occ. eigenvalues --  -10.29257 -10.29224 -10.29122 -10.28948 -10.28788
 Alpha  occ. eigenvalues --  -10.27901 -10.27889 -10.27868 -10.27820 -10.27638
 Alpha  occ. eigenvalues --  -10.27216 -10.27166 -10.26971 -10.26914 -10.26806
 Alpha  occ. eigenvalues --  -10.26677 -10.26660 -10.26611 -10.26527 -10.26307
 Alpha  occ. eigenvalues --  -10.26085 -10.25964 -10.25901 -10.25584 -10.25500
 Alpha  occ. eigenvalues --  -10.25478 -10.25474 -10.25446 -10.25392 -10.25372
 Alpha  occ. eigenvalues --  -10.25361 -10.25351 -10.25330 -10.25284 -10.25260
 Alpha  occ. eigenvalues --  -10.25245 -10.24696 -10.24517 -10.24482 -10.24372
 Alpha  occ. eigenvalues --  -10.24306 -10.24226 -10.23797 -10.23586 -10.22787
 Alpha  occ. eigenvalues --   -3.12525  -1.87201  -1.86765  -1.86734  -1.19771
 Alpha  occ. eigenvalues --   -1.18385  -1.11629  -1.11067  -1.07719  -1.04867
 Alpha  occ. eigenvalues --   -1.03100  -1.02307  -1.00677  -0.93635  -0.92049
 Alpha  occ. eigenvalues --   -0.91205  -0.90476  -0.89975  -0.89264  -0.88495
 Alpha  occ. eigenvalues --   -0.88304  -0.87711  -0.87187  -0.86764  -0.86309
 Alpha  occ. eigenvalues --   -0.85745  -0.84608  -0.84091  -0.83549  -0.82371
 Alpha  occ. eigenvalues --   -0.82090  -0.81562  -0.80672  -0.80327  -0.79229
 Alpha  occ. eigenvalues --   -0.77905  -0.77073  -0.76339  -0.76190  -0.75549
 Alpha  occ. eigenvalues --   -0.75481  -0.75337  -0.74684  -0.74113  -0.72712
 Alpha  occ. eigenvalues --   -0.72355  -0.71240  -0.69894  -0.69324  -0.68707
 Alpha  occ. eigenvalues --   -0.67818  -0.67541  -0.65951  -0.65528  -0.65341
 Alpha  occ. eigenvalues --   -0.64340  -0.64098  -0.63664  -0.62607  -0.61764
 Alpha  occ. eigenvalues --   -0.61636  -0.61080  -0.60239  -0.59489  -0.59163
 Alpha  occ. eigenvalues --   -0.58466  -0.58258  -0.57964  -0.57323  -0.56994
 Alpha  occ. eigenvalues --   -0.56644  -0.56325  -0.55735  -0.55388  -0.55087
 Alpha  occ. eigenvalues --   -0.54974  -0.54508  -0.54131  -0.53917  -0.53609
 Alpha  occ. eigenvalues --   -0.53342  -0.52962  -0.52805  -0.52540  -0.51947
 Alpha  occ. eigenvalues --   -0.51568  -0.51181  -0.50969  -0.50829  -0.50717
 Alpha  occ. eigenvalues --   -0.50498  -0.50442  -0.50189  -0.49979  -0.49805
 Alpha  occ. eigenvalues --   -0.49356  -0.49037  -0.48772  -0.48577  -0.48413
 Alpha  occ. eigenvalues --   -0.48295  -0.48093  -0.47912  -0.47822  -0.47624
 Alpha  occ. eigenvalues --   -0.47233  -0.47124  -0.46646  -0.46388  -0.46321
 Alpha  occ. eigenvalues --   -0.46314  -0.45999  -0.45726  -0.45060  -0.44965
 Alpha  occ. eigenvalues --   -0.44719  -0.44452  -0.44327  -0.44085  -0.44037
 Alpha  occ. eigenvalues --   -0.43851  -0.43751  -0.43603  -0.43442  -0.43227
 Alpha  occ. eigenvalues --   -0.43156  -0.43071  -0.42887  -0.42619  -0.42572
 Alpha  occ. eigenvalues --   -0.42405  -0.42199  -0.42124  -0.42017  -0.41554
 Alpha  occ. eigenvalues --   -0.41400  -0.41110  -0.40948  -0.40699  -0.40253
 Alpha  occ. eigenvalues --   -0.40113  -0.39961  -0.39508  -0.39323  -0.39100
 Alpha  occ. eigenvalues --   -0.39081  -0.38665  -0.38577  -0.38143  -0.37862
 Alpha  occ. eigenvalues --   -0.37478  -0.37155  -0.37115  -0.36921  -0.36656
 Alpha  occ. eigenvalues --   -0.36425  -0.36109  -0.36003  -0.35951  -0.35843
 Alpha  occ. eigenvalues --   -0.35069  -0.35029  -0.34531  -0.34183  -0.33944
 Alpha  occ. eigenvalues --   -0.33430  -0.33169  -0.32230  -0.30891  -0.30411
 Alpha  occ. eigenvalues --   -0.30366  -0.29244  -0.27482  -0.27139  -0.23364
 Alpha  occ. eigenvalues --   -0.20585
 Alpha virt. eigenvalues --   -0.05574  -0.03703   0.00771   0.03718   0.04681
 Alpha virt. eigenvalues --    0.04716   0.06381   0.07053   0.07171   0.07527
 Alpha virt. eigenvalues --    0.07842   0.10422   0.10704   0.11603   0.12110

 Mulliken charges:
               1
     1  Mg   0.836201
     2  C    0.039817
     3  C   -0.197009
     4  C   -0.178417
     5  C   -0.201350
     6  N   -0.634428
     7  C    0.331719
     8  C   -0.158070
     9  C   -0.148290
    10  C    0.351336
    11  C   -0.315083
    12  C   -0.176712
    13  C   -0.263321
    14  C    0.587020
    15  O   -0.444865
    16  O   -0.484440
    17  N   -0.675748
    18  C    0.315429
    19  C   -0.057098
    20  C    0.126196
    21  C    0.272211
    22  C   -0.383280
    23  C   -0.138160
    24  C   -0.220249
    25  N   -0.667637
    26  C    0.299546
    27  C   -0.000387
    28  C    0.032041
    29  C    0.264772
    30  C   -0.366656
    31  C   -0.235232
    32  C   -0.302607
    33  N   -0.804427
    34  C    0.312023
    35  C    0.010856
    36  C   -0.001283
    37  C    0.299847
    38  C   -0.334576
    39  C    0.366882
    40  O   -0.464244
    41  C   -0.317614
    42  C    0.619871
    43  O   -0.506346
    44  O   -0.421343
    45  C   -0.095431
    46  C    0.043197
    47  C   -0.145658
    48  C    0.085374
    49  C   -0.360695
    50  C   -0.221999
    51  C   -0.168540
    52  C   -0.174743
    53  C   -0.075271
    54  C   -0.310595
    55  C   -0.169172
    56  C   -0.166553
    57  C   -0.160752
    58  C   -0.058443
    59  C   -0.323224
    60  C   -0.165012
    61  C   -0.166285
    62  C   -0.160133
    63  C   -0.062472
    64  C   -0.304981
    65  C   -0.293260
    66  H    0.089910
    67  H    0.085064
    68  H    0.078937
    69  H    0.127544
    70  H    0.087562
    71  H    0.109258
    72  H    0.111316
    73  H    0.142053
    74  H    0.114864
    75  H    0.131792
    76  H    0.146460
    77  H    0.136483
    78  H    0.116803
    79  H    0.118751
    80  H    0.117427
    81  H    0.077910
    82  H    0.098239
    83  H    0.117009
    84  H    0.130928
    85  H    0.096565
    86  H    0.132511
    87  H    0.081061
    88  H    0.109919
    89  H    0.080635
    90  H    0.120470
    91  H    0.107820
    92  H    0.139410
    93  H    0.152837
    94  H    0.113189
    95  H    0.158593
    96  H    0.129073
    97  H    0.151479
    98  H    0.131462
    99  H    0.122312
   100  H    0.095215
   101  H    0.087613
   102  H    0.105740
   103  H    0.117173
   104  H    0.116059
   105  H    0.100732
   106  H    0.092285
   107  H    0.107199
   108  H    0.106410
   109  H    0.100003
   110  H    0.101659
   111  H    0.068563
   112  H    0.106532
   113  H    0.097751
   114  H    0.111692
   115  H    0.062392
   116  H    0.084807
   117  H    0.106361
   118  H    0.050882
   119  H    0.098121
   120  H    0.058592
   121  H    0.093318
   122  H    0.094941
   123  H    0.100496
   124  H    0.109711
   125  H    0.077579
   126  H    0.098369
   127  H    0.106770
   128  H    0.085081
   129  H    0.085003
   130  H    0.072334
   131  H    0.070300
   132  H    0.095346
   133  H    0.104874
   134  H    0.074138
   135  H    0.102854
   136  H    0.113712
   137  H    0.061498
 Sum of Mulliken charges =   0.00000

 Dipole moment (field-independent basis, Debye):
    X=              2.4861    Y=              2.6870    Z=              0.7243  Tot=              3.7317
 Quadrupole moment (field-independent basis, Debye-Ang):
   XX=           -373.2529   YY=           -390.2623   ZZ=           -395.3108
   XY=            -22.7858   XZ=              8.8529   YZ=              0.0924

 Normal termination of Gaussian 09 at Fri Jul  5 17:17:55 2019.
