 Gaussian 09, Revision D.01,
 Gaussian 09:  ES64L-G09RevD.01 24-Apr-2013

 -------------------------------------
 # td=(NStates=1) CAM-B3LYP/6-31G(d,p)
 -------------------------------------

 --
 TD
 --
 Symbolic Z-matrix:
 Charge =  0 Multiplicity = 1

                         Standard orientation:
 ---------------------------------------------------------------------
 Center     Atomic      Atomic             Coordinates (Angstroms)
 Number     Number       Type             X           Y           Z
 ---------------------------------------------------------------------
      1         12           0       -7.222122    0.611333    0.128354
      2          6           0       -4.803894   -1.871542    0.530091
      3          6           0       -4.777296    2.894097    1.129045
      4          6           0       -9.376301    3.023074   -0.542055
      5          6           0       -9.539172   -1.835646   -0.727398
      6          7           0       -5.058855    0.420545    0.737328
      7          6           0       -4.292579   -0.666126    0.844931
      8          6           0       -2.862255   -0.338680    1.306840
      9          6           0       -3.083867    1.119511    1.816137
     10          6           0       -4.401962    1.526783    1.243029
     11          6           0       -2.904345    1.334385    3.400739
     12          6           0       -1.882409   -0.449078    0.131427
     13          6           0       -0.456176   -0.254970    0.567311
     14          6           0        0.560392   -0.575389   -0.498506
     15          8           0        0.359238   -1.069629   -1.589282
     16          8           0        1.784176   -0.313140   -0.123700
     17          7           0       -7.143837    2.586743    0.201950
     18          6           0       -6.124378    3.370842    0.632416
     19          6           0       -6.444770    4.767738    0.617737
     20          6           0       -7.788094    4.821075    0.256874
     21          6           0       -8.214409    3.514632   -0.113938
     22          6           0       -5.465037    5.982411    0.996131
     23          6           0       -8.553461    5.983090    0.018015
     24          6           0       -8.624015    7.086639    0.737695
     25          7           0       -9.106532    0.633911   -0.617371
     26          6           0       -9.900446    1.749616   -0.772495
     27          6           0      -11.207886    1.357898   -1.152473
     28          6           0      -11.247172   -0.013197   -1.180565
     29          6           0       -9.978447   -0.447050   -0.793986
     30          6           0      -12.353784    2.391012   -1.408022
     31          6           0      -12.398646   -0.802833   -1.598578
     32          6           0      -12.397858   -1.219602   -3.110169
     33          7           0       -7.210008   -1.431686   -0.049532
     34          6           0       -8.288763   -2.283199   -0.427059
     35          6           0       -7.771172   -3.668149   -0.426172
     36          6           0       -6.477600   -3.529886   -0.171982
     37          6           0       -6.103865   -2.159455    0.115939
     38          6           0       -8.615077   -4.901956   -0.787222
     39          6           0       -5.282141   -4.369239    0.216791
     40          8           0       -5.034904   -5.597043    0.136998
     41          6           0       -4.138942   -3.184885    0.610624
     42          6           0       -3.454390   -3.569520    1.834030
     43          8           0       -3.654049   -3.084059    2.919854
     44          8           0       -2.742544   -4.755114    1.622147
     45          6           0       -2.226620   -5.225007    2.824388
     46          6           0        2.786252   -0.610133   -1.096459
     47          6           0        4.096077   -0.265841   -0.504074
     48          6           0        5.127300    0.503190   -0.983928
     49          6           0        5.057336    1.226149   -2.281692
     50          6           0        6.493828    0.533933   -0.228824
     51          6           0        7.685826   -0.197033   -1.009766
     52          6           0        8.994623   -0.247087   -0.180406
     53          6           0       10.211638   -0.679986   -0.974796
     54          6           0       10.155920   -2.249201   -1.289356
     55          6           0       11.489696   -0.168033   -0.102839
     56          6           0       12.809018   -0.378379   -0.877289
     57          6           0       13.914655   -0.168238    0.121977
     58          6           0       15.305332   -0.209941   -0.445607
     59          6           0       15.595434   -1.627576   -1.042444
     60          6           0       16.354722    0.247649    0.458612
     61          6           0       17.823821    0.515436   -0.224675
     62          6           0       18.716924    1.155903    0.785550
     63          6           0       20.291988    1.321334    0.259089
     64          6           0       20.259983    2.111622   -0.949319
     65          6           0       21.154153    2.057362    1.371533
     66          1           0       -3.939469    3.608911    1.565227
     67          1           0      -10.016553    3.779571   -0.763290
     68          1           0      -10.199023   -2.690286   -0.833816
     69          1           0       -2.585372   -1.098247    2.137008
     70          1           0       -2.174722    1.792243    1.367868
     71          1           0       -1.936951    1.031464    3.840355
     72          1           0       -3.159209    2.349122    3.663054
     73          1           0       -3.600811    0.618128    3.761646
     74          1           0       -2.084402   -1.439233   -0.379238
     75          1           0       -2.172719    0.257161   -0.546608
     76          1           0       -0.477063    0.648264    1.155061
     77          1           0       -0.286123   -0.986379    1.458921
     78          1           0       -5.804380    6.930467    0.348957
     79          1           0       -5.628560    6.301841    2.054962
     80          1           0       -4.330405    5.717291    0.975861
     81          1           0       -9.346073    5.893672   -0.831520
     82          1           0       -9.513563    7.764186    0.678276
     83          1           0       -8.085559    7.546997    1.541751
     84          1           0      -12.212420    2.997786   -2.371181
     85          1           0      -13.434956    2.013029   -1.441682
     86          1           0      -12.183938    2.949953   -0.503173
     87          1           0      -12.357099   -1.674318   -0.868427
     88          1           0      -13.146599   -0.245594   -1.499786
     89          1           0      -13.379832   -1.788536   -3.457832
     90          1           0      -12.514760   -0.407028   -3.677895
     91          1           0      -11.545583   -1.641589   -3.337853
     92          1           0       -9.383073   -4.790214   -1.832071
     93          1           0       -7.897001   -5.717085   -1.002234
     94          1           0       -9.288537   -5.372792   -0.096068
     95          1           0       -3.461982   -3.371402   -0.363977
     96          1           0       -1.947925   -4.421393    3.453222
     97          1           0       -3.127244   -5.815052    3.324326
     98          1           0       -1.413093   -5.888701    2.486441
     99          1           0        2.692695   -1.682121   -1.426567
    100          1           0        2.517991    0.019626   -1.978420
    101          1           0        4.269901   -0.629744    0.372218
    102          1           0        3.928835    1.391511   -2.442609
    103          1           0        5.837282    2.136229   -1.977730
    104          1           0        5.475143    0.832908   -3.168183
    105          1           0        6.724583    1.528656   -0.007209
    106          1           0        6.576457   -0.157580    0.658016
    107          1           0        7.365044   -1.204769   -1.236481
    108          1           0        7.927832    0.131921   -2.024746
    109          1           0        9.132934    0.649327    0.321531
    110          1           0        8.800083   -1.085636    0.538375
    111          1           0       10.153289   -0.148625   -1.943907
    112          1           0        9.330358   -2.510214   -1.799771
    113          1           0       10.903028   -2.175545   -2.065413
    114          1           0       10.278428   -2.833525   -0.284245
    115          1           0       11.322124    0.868046    0.174328
    116          1           0       11.685614   -0.589409    0.875396
    117          1           0       12.615632   -1.339234   -1.307846
    118          1           0       13.112880    0.152373   -1.760116
    119          1           0       13.862611    0.871131    0.796522
    120          1           0       13.858832   -1.030956    0.917488
    121          1           0       15.461998    0.461883   -1.559218
    122          1           0       15.747623   -2.341161   -0.260239
    123          1           0       14.995388   -2.075479   -1.711875
    124          1           0       16.558990   -1.602656   -1.471450
    125          1           0       16.072283    1.294355    0.732421
    126          1           0       16.537017   -0.389774    1.372524
    127          1           0       18.242549   -0.424849   -0.663159
    128          1           0       17.664222    1.262756   -1.004315
    129          1           0       18.420190    2.096868    1.437185
    130          1           0       18.692937    0.517605    1.704042
    131          1           0       20.722449    0.420504    0.039825
    132          1           0       19.758013    3.316232   -0.952972
    133          1           0       21.257192    2.368247   -1.354553
    134          1           0       19.699663    1.630006   -1.724503
    135          1           0       21.201756    1.569013    2.386226
    136          1           0       22.193044    2.098403    1.146971
    137          1           0       20.956728    2.929600    1.922012
 ---------------------------------------------------------------------

 SCF Done:  E(RCAM-B3LYP) =  -2932.67725703     A.U. after   18 cycles

 Excitation energies and oscillator strengths:

 Excited State   1:      Singlet-A      2.1865 eV  567.05 nm  f=0.1660  <S**2>=0.000
     240 -> 243       -0.30413
     241 -> 242        0.62708
 This state for optimization and/or second-order correction.
 Total Energy, E(TD-HF/TD-KS) =  -2932.59690574
 Copying the excited state density for this state as the 1-particle RhoCI density.

 The electronic state is 1-A.
 Alpha  occ. eigenvalues --  -46.84247 -19.26096 -19.25143 -19.22040 -19.21479
 Alpha  occ. eigenvalues --  -19.20097 -14.41087 -14.39877 -14.39541 -14.38969
 Alpha  occ. eigenvalues --  -10.38923 -10.38910 -10.37264 -10.31862 -10.31164
 Alpha  occ. eigenvalues --  -10.31049 -10.30505 -10.30083 -10.29761 -10.29678
 Alpha  occ. eigenvalues --  -10.29388 -10.29078 -10.28990 -10.28886 -10.28865
 Alpha  occ. eigenvalues --  -10.28718 -10.28684 -10.28140 -10.28064 -10.28032
 Alpha  occ. eigenvalues --  -10.27977 -10.27951 -10.27725 -10.27688 -10.27555
 Alpha  occ. eigenvalues --  -10.27387 -10.27092 -10.27064 -10.26932 -10.26712
 Alpha  occ. eigenvalues --  -10.26684 -10.26657 -10.26611 -10.26561 -10.26518
 Alpha  occ. eigenvalues --  -10.26482 -10.26067 -10.25899 -10.25839 -10.25813
 Alpha  occ. eigenvalues --  -10.25731 -10.25731 -10.25654 -10.25347 -10.25314
 Alpha  occ. eigenvalues --  -10.25205 -10.24930 -10.24624 -10.24568 -10.24254
 Alpha  occ. eigenvalues --  -10.24216 -10.24175 -10.23788 -10.23778 -10.22416
 Alpha  occ. eigenvalues --   -3.13283  -1.87986  -1.87512  -1.87472  -1.20050
 Alpha  occ. eigenvalues --   -1.17810  -1.09920  -1.09664  -1.08682  -1.04607
 Alpha  occ. eigenvalues --   -1.03386  -1.03054  -1.01940  -0.92603  -0.90803
 Alpha  occ. eigenvalues --   -0.90557  -0.90067  -0.89934  -0.89466  -0.88951
 Alpha  occ. eigenvalues --   -0.88122  -0.88070  -0.87974  -0.86757  -0.85737
 Alpha  occ. eigenvalues --   -0.85097  -0.84136  -0.83402  -0.82785  -0.82587
 Alpha  occ. eigenvalues --   -0.81595  -0.80862  -0.80417  -0.80245  -0.78327
 Alpha  occ. eigenvalues --   -0.77918  -0.76980  -0.76341  -0.76182  -0.75814
 Alpha  occ. eigenvalues --   -0.75277  -0.74632  -0.74448  -0.73396  -0.72900
 Alpha  occ. eigenvalues --   -0.72083  -0.71528  -0.70390  -0.69179  -0.68593
 Alpha  occ. eigenvalues --   -0.67544  -0.67050  -0.65593  -0.65338  -0.64612
 Alpha  occ. eigenvalues --   -0.64172  -0.63689  -0.63554  -0.63470  -0.61685
 Alpha  occ. eigenvalues --   -0.61325  -0.60988  -0.60754  -0.59823  -0.59455
 Alpha  occ. eigenvalues --   -0.58809  -0.58526  -0.57892  -0.57449  -0.56903
 Alpha  occ. eigenvalues --   -0.56700  -0.55405  -0.55136  -0.54782  -0.54527
 Alpha  occ. eigenvalues --   -0.54329  -0.53975  -0.53792  -0.53570  -0.53444
 Alpha  occ. eigenvalues --   -0.52901  -0.52828  -0.52360  -0.51884  -0.51683
 Alpha  occ. eigenvalues --   -0.51487  -0.51333  -0.51129  -0.50864  -0.50549
 Alpha  occ. eigenvalues --   -0.50321  -0.50264  -0.49819  -0.49623  -0.49123
 Alpha  occ. eigenvalues --   -0.48712  -0.48634  -0.48526  -0.48303  -0.48060
 Alpha  occ. eigenvalues --   -0.47893  -0.47876  -0.47798  -0.47318  -0.46967
 Alpha  occ. eigenvalues --   -0.46825  -0.46596  -0.46523  -0.46361  -0.45896
 Alpha  occ. eigenvalues --   -0.45837  -0.45782  -0.45261  -0.45099  -0.44945
 Alpha  occ. eigenvalues --   -0.44741  -0.44648  -0.44528  -0.44260  -0.44114
 Alpha  occ. eigenvalues --   -0.43961  -0.43827  -0.43615  -0.43269  -0.43214
 Alpha  occ. eigenvalues --   -0.43082  -0.43030  -0.42710  -0.42563  -0.42517
 Alpha  occ. eigenvalues --   -0.42046  -0.41911  -0.41692  -0.41612  -0.41520
 Alpha  occ. eigenvalues --   -0.41173  -0.40895  -0.40790  -0.40391  -0.40265
 Alpha  occ. eigenvalues --   -0.40239  -0.39983  -0.39860  -0.39192  -0.39184
 Alpha  occ. eigenvalues --   -0.38804  -0.38662  -0.38148  -0.38080  -0.37769
 Alpha  occ. eigenvalues --   -0.37487  -0.37439  -0.37111  -0.36855  -0.36794
 Alpha  occ. eigenvalues --   -0.36439  -0.36264  -0.36133  -0.36024  -0.35773
 Alpha  occ. eigenvalues --   -0.35143  -0.34795  -0.34282  -0.33961  -0.33922
 Alpha  occ. eigenvalues --   -0.33558  -0.32777  -0.32519  -0.31611  -0.30539
 Alpha  occ. eigenvalues --   -0.29943  -0.28995  -0.28134  -0.27508  -0.23059
 Alpha  occ. eigenvalues --   -0.22111
 Alpha virt. eigenvalues --   -0.06300  -0.03729   0.01155   0.04016   0.04988
 Alpha virt. eigenvalues --    0.05734   0.05807   0.06226   0.06913   0.07249
 Alpha virt. eigenvalues --    0.08382   0.10215   0.11072   0.11696   0.11775

 Mulliken charges:
               1
     1  Mg   0.830241
     2  C    0.127410
     3  C   -0.216152
     4  C   -0.181647
     5  C   -0.162192
     6  N   -0.643592
     7  C    0.314229
     8  C   -0.158953
     9  C   -0.179075
    10  C    0.360869
    11  C   -0.309791
    12  C   -0.156514
    13  C   -0.277722
    14  C    0.618870
    15  O   -0.490995
    16  O   -0.449513
    17  N   -0.723281
    18  C    0.321203
    19  C    0.015409
    20  C    0.054831
    21  C    0.285433
    22  C   -0.359424
    23  C   -0.112743
    24  C   -0.242767
    25  N   -0.702191
    26  C    0.315639
    27  C    0.005208
    28  C    0.012190
    29  C    0.258978
    30  C   -0.365535
    31  C   -0.198435
    32  C   -0.308942
    33  N   -0.749266
    34  C    0.255294
    35  C    0.063784
    36  C   -0.021230
    37  C    0.307509
    38  C   -0.381683
    39  C    0.385581
    40  O   -0.452194
    41  C   -0.369380
    42  C    0.628766
    43  O   -0.475354
    44  O   -0.452612
    45  C   -0.078973
    46  C    0.009738
    47  C   -0.107741
    48  C    0.095330
    49  C   -0.340047
    50  C   -0.228024
    51  C   -0.203254
    52  C   -0.159194
    53  C   -0.096297
    54  C   -0.307571
    55  C   -0.188400
    56  C   -0.172782
    57  C   -0.158920
    58  C   -0.039768
    59  C   -0.318953
    60  C   -0.180752
    61  C   -0.192225
    62  C   -0.177970
    63  C   -0.036428
    64  C   -0.280615
    65  C   -0.341111
    66  H    0.086063
    67  H    0.065837
    68  H    0.098847
    69  H    0.121555
    70  H    0.082250
    71  H    0.110232
    72  H    0.113955
    73  H    0.131952
    74  H    0.116746
    75  H    0.125948
    76  H    0.138094
    77  H    0.125494
    78  H    0.115742
    79  H    0.126410
    80  H    0.114388
    81  H    0.099673
    82  H    0.097838
    83  H    0.112789
    84  H    0.116058
    85  H    0.110021
    86  H    0.131343
    87  H    0.090218
    88  H    0.097291
    89  H    0.080597
    90  H    0.120265
    91  H    0.120350
    92  H    0.091374
    93  H    0.150353
    94  H    0.145386
    95  H    0.157027
    96  H    0.133671
    97  H    0.106304
    98  H    0.117614
    99  H    0.136250
   100  H    0.113853
   101  H    0.077950
   102  H    0.108625
   103  H    0.081037
   104  H    0.135922
   105  H    0.108286
   106  H    0.102775
   107  H    0.101287
   108  H    0.082173
   109  H    0.094702
   110  H    0.083163
   111  H    0.086810
   112  H    0.115917
   113  H    0.108446
   114  H    0.103129
   115  H    0.095582
   116  H    0.100918
   117  H    0.104347
   118  H    0.096380
   119  H    0.063071
   120  H    0.080733
   121  H    0.031935
   122  H    0.092734
   123  H    0.111375
   124  H    0.098341
   125  H    0.096180
   126  H    0.090635
   127  H    0.099343
   128  H    0.107764
   129  H    0.085522
   130  H    0.080272
   131  H    0.106260
   132  H    0.053745
   133  H    0.096893
   134  H    0.107164
   135  H    0.077696
   136  H    0.102278
   137  H    0.112526
 Sum of Mulliken charges =   0.00000

 Dipole moment (field-independent basis, Debye):
    X=              0.4339    Y=              3.9370    Z=              0.9237  Tot=              4.0671
 Quadrupole moment (field-independent basis, Debye-Ang):
   XX=           -332.6391   YY=           -392.8769   ZZ=           -395.6627
   XY=            -28.3686   XZ=              7.7739   YZ=              4.4352

 Normal termination of Gaussian 09 at Sat Jul  6 15:34:33 2019.
