 Gaussian 16, Revision A.03,
 Gaussian 16:  ES64L-G16RevA.03 25-Dec-2016

 ----------------------------------------------------------------------
 # td=(NStates=1) iop(3/107=0140000000,3/108=0140000000) CAM-B3LYP/6-31
 G(d,p)
 ----------------------------------------------------------------------

 --
 TD
 --
 Symbolic Z-matrix:
 Charge =  0 Multiplicity = 1

                         Standard orientation:
 ---------------------------------------------------------------------
 Center     Atomic      Atomic             Coordinates (Angstroms)
 Number     Number       Type             X           Y           Z
 ---------------------------------------------------------------------
      1         12           0       -7.106798    0.610738    0.033770
      2          6           0       -4.876707   -1.908074    0.422665
      3          6           0       -4.736250    2.770921    1.077480
      4          6           0       -9.411439    3.158701   -0.366144
      5          6           0       -9.532757   -1.673549   -0.915565
      6          7           0       -5.149467    0.434292    0.488230
      7          6           0       -4.278736   -0.649295    0.528786
      8          6           0       -2.932081   -0.441091    1.069467
      9          6           0       -3.005084    1.064631    1.514366
     10          6           0       -4.355266    1.498489    0.973027
     11          6           0       -2.982649    1.244082    3.090306
     12          6           0       -1.837163   -0.553662   -0.027194
     13          6           0       -0.403329   -0.572954    0.441195
     14          6           0        0.559465   -0.882578   -0.673199
     15          8           0        0.272507   -1.251693   -1.767143
     16          8           0        1.861557   -0.554611   -0.219582
     17          7           0       -7.147916    2.681057    0.288596
     18          6           0       -5.935243    3.358636    0.704526
     19          6           0       -6.374586    4.821328    0.755697
     20          6           0       -7.686457    4.852667    0.319821
     21          6           0       -8.158047    3.486917    0.062288
     22          6           0       -5.572006    5.967609    1.095790
     23          6           0       -8.476922    6.073709    0.116118
     24          6           0       -8.477641    7.215003    0.804751
     25          7           0       -9.131240    0.663951   -0.514286
     26          6           0       -9.902150    1.793175   -0.523081
     27          6           0      -11.248358    1.524382   -1.005048
     28          6           0      -11.289533    0.209505   -1.125207
     29          6           0       -9.923412   -0.360582   -0.803302
     30          6           0      -12.276805    2.491870   -1.267394
     31          6           0      -12.440084   -0.675302   -1.600741
     32          6           0      -12.135582   -1.301433   -3.028447
     33          7           0       -7.325701   -1.401224   -0.080565
     34          6           0       -8.315626   -2.181137   -0.513825
     35          6           0       -7.958642   -3.554204   -0.517976
     36          6           0       -6.564039   -3.574317   -0.049919
     37          6           0       -6.177641   -2.148179    0.120368
     38          6           0       -8.905684   -4.791847   -0.769390
     39          6           0       -5.382905   -4.404749    0.215300
     40          8           0       -5.202058   -5.521102    0.180640
     41          6           0       -4.179344   -3.378394    0.463901
     42          6           0       -3.696099   -3.686197    1.886186
     43          8           0       -3.757557   -2.964831    2.871243
     44          8           0       -2.945738   -4.773967    1.843795
     45          6           0       -2.142598   -5.150832    3.072392
     46          6           0        2.849209   -0.830181   -1.124241
     47          6           0        4.215185   -0.622495   -0.508553
     48          6           0        5.087608    0.271855   -0.912987
     49          6           0        5.050831    1.259090   -2.210426
     50          6           0        6.465476    0.295337   -0.298628
     51          6           0        7.720959   -0.150413   -0.949891
     52          6           0        8.830711   -0.109261   -0.099825
     53          6           0       10.108413   -0.635499   -0.883038
     54          6           0       10.119419   -2.065774   -1.303275
     55          6           0       11.435063   -0.231203   -0.057397
     56          6           0       12.824018   -0.334091   -0.705054
     57          6           0       14.022523   -0.047641    0.252474
     58          6           0       15.345142   -0.131879   -0.480278
     59          6           0       15.769938   -1.521480   -0.899956
     60          6           0       16.459743    0.479165    0.456015
     61          6           0       17.894575    0.590910   -0.163249
     62          6           0       18.841045    1.252426    0.741628
     63          6           0       20.249550    1.274204    0.272344
     64          6           0       20.373871    2.209082   -0.966425
     65          6           0       21.237405    1.729737    1.358508
     66          1           0       -4.057113    3.586232    1.624164
     67          1           0      -10.162019    3.946767   -0.712473
     68          1           0      -10.464378   -2.436083   -1.100757
     69          1           0       -2.844246   -1.100791    1.912720
     70          1           0       -2.249209    1.611589    0.873114
     71          1           0       -1.906810    0.822210    3.378609
     72          1           0       -3.024264    2.242529    3.626410
     73          1           0       -3.739781    0.722464    3.733306
     74          1           0       -1.789143   -1.621391   -0.586705
     75          1           0       -2.014645    0.223453   -0.830964
     76          1           0        0.073355    0.261812    0.955414
     77          1           0       -0.362476   -1.442191    1.130017
     78          1           0       -5.616712    6.990532    0.796192
     79          1           0       -5.858751    6.203673    2.338576
     80          1           0       -4.500176    5.763130    0.870926
     81          1           0       -9.201322    5.939785   -0.549856
     82          1           0       -8.932402    8.179770    0.741870
     83          1           0       -7.833727    7.050955    1.584887
     84          1           0      -11.900196    3.161494   -2.064609
     85          1           0      -13.259904    1.997764   -1.792453
     86          1           0      -12.585200    3.113382   -0.586912
     87          1           0      -12.375731   -1.426057   -0.803213
     88          1           0      -13.351891   -0.052857   -1.425738
     89          1           0      -13.074188   -1.826871   -3.384152
     90          1           0      -12.274762   -0.530139   -3.817882
     91          1           0      -11.256451   -1.856028   -2.985228
     92          1           0       -9.288531   -4.654860   -1.655186
     93          1           0       -8.255797   -5.637239   -0.629616
     94          1           0       -9.720253   -4.635898   -0.087728
     95          1           0       -3.439619   -3.528413   -0.261867
     96          1           0       -1.377223   -4.433062    3.465505
     97          1           0       -2.853286   -5.203180    3.883551
     98          1           0       -1.689315   -6.129521    2.822763
     99          1           0        2.928393   -1.765605   -1.419983
    100          1           0        2.691001   -0.222706   -2.088655
    101          1           0        4.404333   -1.008140    0.487617
    102          1           0        3.919750    1.314874   -2.497284
    103          1           0        5.382095    2.315106   -2.080810
    104          1           0        5.544292    0.933896   -3.118830
    105          1           0        6.700849    1.323029    0.043738
    106          1           0        6.411954   -0.297384    0.790973
    107          1           0        7.708495   -1.385288   -1.292913
    108          1           0        7.803883    0.532097   -1.962703
    109          1           0        8.999846    0.948739    0.174837
    110          1           0        8.692557   -0.761754    0.790493
    111          1           0       10.229843    0.115071   -1.790148
    112          1           0        9.345744   -2.517133   -1.922605
    113          1           0       11.063017   -2.502699   -1.890655
    114          1           0       10.203577   -2.627229   -0.333290
    115          1           0       11.357244    0.666879    0.380388
    116          1           0       11.316889   -1.065811    0.783035
    117          1           0       12.762791   -1.332347   -1.081245
    118          1           0       12.679756    0.418543   -1.496614
    119          1           0       13.778797    0.941680    0.548315
    120          1           0       14.024678   -0.709044    1.164511
    121          1           0       15.289525    0.425889   -1.347611
    122          1           0       16.275325   -2.162767   -0.087311
    123          1           0       14.898564   -1.965816   -1.282981
    124          1           0       16.590326   -1.395465   -1.668577
    125          1           0       15.833326    1.572172    0.537098
    126          1           0       16.324723   -0.135186    1.368333
    127          1           0       18.283416   -0.372156   -0.460408
    128          1           0       17.681328    1.236506   -1.064898
    129          1           0       18.499764    2.372680    1.098652
    130          1           0       18.937805    0.779961    1.811492
    131          1           0       20.332994    0.392557   -0.197560
    132          1           0       20.223172    3.470755   -0.462532
    133          1           0       21.426360    2.203241   -1.159080
    134          1           0       19.707824    1.955067   -1.716038
    135          1           0       21.199378    1.044532    2.343917
    136          1           0       22.227861    1.915368    0.698973
    137          1           0       20.901144    2.648343    1.592538
 ---------------------------------------------------------------------

 SCF Done:  E(RCAM-B3LYP) =  -2933.45627665     A.U. after   16 cycles

 Excitation energies and oscillator strengths:

 Excited State   1:      Singlet-A      1.9910 eV  622.74 nm  f=0.2778  <S**2>=0.000
     240 -> 243       -0.21918
     241 -> 242        0.67196
 This state for optimization and/or second-order correction.
 Total Energy, E(TD-HF/TD-DFT) =  -2933.38311015
 Copying the excited state density for this state as the 1-particle RhoCI density.

 The electronic state is 1-A.
 Alpha  occ. eigenvalues --  -46.79441 -19.22077 -19.22006 -19.18593 -19.16052
 Alpha  occ. eigenvalues --  -19.15990 -14.38198 -14.35092 -14.34918 -14.34368
 Alpha  occ. eigenvalues --  -10.35206 -10.34129 -10.29548 -10.27956 -10.26378
 Alpha  occ. eigenvalues --  -10.26058 -10.25918 -10.25900 -10.24766 -10.24683
 Alpha  occ. eigenvalues --  -10.24317 -10.24189 -10.23988 -10.23886 -10.23781
 Alpha  occ. eigenvalues --  -10.23673 -10.23519 -10.23515 -10.23467 -10.23381
 Alpha  occ. eigenvalues --  -10.23151 -10.23045 -10.23041 -10.22960 -10.22884
 Alpha  occ. eigenvalues --  -10.22853 -10.22755 -10.22730 -10.22417 -10.22368
 Alpha  occ. eigenvalues --  -10.22199 -10.22172 -10.22017 -10.21732 -10.21543
 Alpha  occ. eigenvalues --  -10.21526 -10.21449 -10.21397 -10.21371 -10.21289
 Alpha  occ. eigenvalues --  -10.21282 -10.21175 -10.21167 -10.21059 -10.20980
 Alpha  occ. eigenvalues --  -10.20943 -10.20807 -10.20648 -10.20460 -10.20447
 Alpha  occ. eigenvalues --  -10.20433 -10.20217 -10.20010 -10.19983 -10.19979
 Alpha  occ. eigenvalues --   -3.08098  -1.83040  -1.82586  -1.82488  -1.13719
 Alpha  occ. eigenvalues --   -1.12591  -1.10865  -1.06969  -1.03044  -0.99087
 Alpha  occ. eigenvalues --   -0.98314  -0.97530  -0.96780  -0.86558  -0.86496
 Alpha  occ. eigenvalues --   -0.85833  -0.85519  -0.84594  -0.84040  -0.83860
 Alpha  occ. eigenvalues --   -0.83783  -0.83527  -0.82179  -0.81541  -0.80878
 Alpha  occ. eigenvalues --   -0.80404  -0.79454  -0.78416  -0.78255  -0.77575
 Alpha  occ. eigenvalues --   -0.76680  -0.76402  -0.75746  -0.75118  -0.73385
 Alpha  occ. eigenvalues --   -0.72927  -0.72335  -0.71853  -0.71241  -0.70886
 Alpha  occ. eigenvalues --   -0.70701  -0.70440  -0.69627  -0.69027  -0.67980
 Alpha  occ. eigenvalues --   -0.67558  -0.66124  -0.65566  -0.64513  -0.63687
 Alpha  occ. eigenvalues --   -0.62667  -0.61739  -0.61580  -0.60677  -0.59916
 Alpha  occ. eigenvalues --   -0.59393  -0.58976  -0.58417  -0.58329  -0.57926
 Alpha  occ. eigenvalues --   -0.57730  -0.56152  -0.55874  -0.55639  -0.55310
 Alpha  occ. eigenvalues --   -0.54349  -0.54022  -0.53863  -0.53353  -0.53111
 Alpha  occ. eigenvalues --   -0.52803  -0.51957  -0.51310  -0.51078  -0.51021
 Alpha  occ. eigenvalues --   -0.50472  -0.50337  -0.49963  -0.49649  -0.49592
 Alpha  occ. eigenvalues --   -0.49346  -0.49118  -0.48873  -0.48818  -0.48472
 Alpha  occ. eigenvalues --   -0.47824  -0.47694  -0.47570  -0.46977  -0.46762
 Alpha  occ. eigenvalues --   -0.46632  -0.46447  -0.46189  -0.46046  -0.45858
 Alpha  occ. eigenvalues --   -0.45607  -0.45441  -0.45259  -0.45015  -0.44665
 Alpha  occ. eigenvalues --   -0.44419  -0.44166  -0.44070  -0.43775  -0.43589
 Alpha  occ. eigenvalues --   -0.43562  -0.43540  -0.43253  -0.43114  -0.42863
 Alpha  occ. eigenvalues --   -0.42541  -0.42469  -0.42328  -0.41944  -0.41651
 Alpha  occ. eigenvalues --   -0.41455  -0.41271  -0.41058  -0.41043  -0.40710
 Alpha  occ. eigenvalues --   -0.40504  -0.40440  -0.40300  -0.40148  -0.40067
 Alpha  occ. eigenvalues --   -0.39747  -0.39715  -0.39485  -0.39469  -0.39125
 Alpha  occ. eigenvalues --   -0.38996  -0.38740  -0.38536  -0.38140  -0.37819
 Alpha  occ. eigenvalues --   -0.37734  -0.37684  -0.37668  -0.37278  -0.37187
 Alpha  occ. eigenvalues --   -0.36634  -0.36566  -0.36207  -0.35900  -0.35754
 Alpha  occ. eigenvalues --   -0.35637  -0.35399  -0.35053  -0.34747  -0.34385
 Alpha  occ. eigenvalues --   -0.34122  -0.33923  -0.33864  -0.33707  -0.33211
 Alpha  occ. eigenvalues --   -0.32995  -0.32685  -0.32663  -0.32285  -0.32005
 Alpha  occ. eigenvalues --   -0.31584  -0.31475  -0.31418  -0.31065  -0.30124
 Alpha  occ. eigenvalues --   -0.30024  -0.29947  -0.29478  -0.28487  -0.27937
 Alpha  occ. eigenvalues --   -0.26392  -0.26141  -0.25661  -0.24179  -0.21757
 Alpha  occ. eigenvalues --   -0.19401
 Alpha virt. eigenvalues --   -0.06740  -0.03397   0.00381   0.02561   0.03426
 Alpha virt. eigenvalues --    0.04004   0.04616   0.05125   0.05684   0.05995
 Alpha virt. eigenvalues --    0.07083   0.09063   0.09337   0.09401   0.09637

 Mulliken charges:
               1
     1  Mg   0.808348
     2  C    0.040768
     3  C   -0.192018
     4  C   -0.181753
     5  C   -0.198364
     6  N   -0.628221
     7  C    0.300994
     8  C   -0.155629
     9  C   -0.134455
    10  C    0.329009
    11  C   -0.317617
    12  C   -0.180112
    13  C   -0.273929
    14  C    0.616464
    15  O   -0.437871
    16  O   -0.477793
    17  N   -0.738710
    18  C    0.278671
    19  C    0.042650
    20  C   -0.033620
    21  C    0.394168
    22  C   -0.380703
    23  C   -0.060532
    24  C   -0.235063
    25  N   -0.660362
    26  C    0.251130
    27  C    0.097611
    28  C   -0.021763
    29  C    0.333963
    30  C   -0.388855
    31  C   -0.245735
    32  C   -0.305517
    33  N   -0.738746
    34  C    0.327506
    35  C   -0.041642
    36  C   -0.023653
    37  C    0.297687
    38  C   -0.346744
    39  C    0.337720
    40  O   -0.388253
    41  C   -0.330447
    42  C    0.613457
    43  O   -0.485404
    44  O   -0.437069
    45  C   -0.102600
    46  C    0.035531
    47  C   -0.154114
    48  C    0.145204
    49  C   -0.378791
    50  C   -0.214455
    51  C   -0.118279
    52  C   -0.146641
    53  C   -0.056030
    54  C   -0.316809
    55  C   -0.180473
    56  C   -0.189025
    57  C   -0.163506
    58  C   -0.062879
    59  C   -0.306864
    60  C   -0.156808
    61  C   -0.184634
    62  C   -0.128567
    63  C   -0.051772
    64  C   -0.282665
    65  C   -0.297420
    66  H    0.090874
    67  H    0.091035
    68  H    0.078110
    69  H    0.145213
    70  H    0.113756
    71  H    0.090681
    72  H    0.111490
    73  H    0.137800
    74  H    0.106414
    75  H    0.111657
    76  H    0.136329
    77  H    0.141293
    78  H    0.143491
    79  H    0.080230
    80  H    0.104433
    81  H    0.065449
    82  H    0.111617
    83  H    0.086388
    84  H    0.118691
    85  H    0.088908
    86  H    0.138592
    87  H    0.110584
    88  H    0.093901
    89  H    0.096604
    90  H    0.112194
    91  H    0.124161
    92  H    0.134741
    93  H    0.143556
    94  H    0.130024
    95  H    0.156617
    96  H    0.128588
    97  H    0.147223
    98  H    0.136648
    99  H    0.125648
   100  H    0.094783
   101  H    0.095565
   102  H    0.096340
   103  H    0.117414
   104  H    0.131950
   105  H    0.090540
   106  H    0.047022
   107  H    0.053097
   108  H    0.068847
   109  H    0.090682
   110  H    0.097591
   111  H    0.059548
   112  H    0.117607
   113  H    0.091718
   114  H    0.099437
   115  H    0.091139
   116  H    0.051314
   117  H    0.100830
   118  H    0.090844
   119  H    0.095371
   120  H    0.088380
   121  H    0.089849
   122  H    0.086281
   123  H    0.105371
   124  H    0.094194
   125  H    0.052614
   126  H    0.089136
   127  H    0.102373
   128  H    0.098420
   129  H    0.059125
   130  H    0.064912
   131  H    0.091764
   132  H    0.029297
   133  H    0.106266
   134  H    0.112092
   135  H    0.090789
   136  H    0.080128
   137  H    0.126463
 Sum of Mulliken charges =  -0.00000

 Dipole moment (field-independent basis, Debye):
    X=              1.4117    Y=              2.8793    Z=              0.3753  Tot=              3.2286
 Quadrupole moment (field-independent basis, Debye-Ang):
   XX=           -369.0820   YY=           -393.2207   ZZ=           -395.3570
   XY=            -27.5576   XZ=              5.3270   YZ=             -5.8306

 Normal termination of Gaussian 16 at Tue Sep 24 11:59:57 2019.
