 Gaussian 16, Revision A.03,
 Gaussian 16:  ES64L-G16RevA.03 25-Dec-2016

 ----------------------------------------------------------------------
 # td=(NStates=1) iop(3/107=0140000000,3/108=0140000000) CAM-B3LYP/6-31
 G(d,p)
 ----------------------------------------------------------------------

 --
 TD
 --
 Symbolic Z-matrix:
 Charge =  0 Multiplicity = 1

                         Standard orientation:
 ---------------------------------------------------------------------
 Center     Atomic      Atomic             Coordinates (Angstroms)
 Number     Number       Type             X           Y           Z
 ---------------------------------------------------------------------
      1         12           0       -7.089330    0.590138    0.076798
      2          6           0       -4.809614   -1.943411    0.533133
      3          6           0       -4.787587    2.841054    1.164345
      4          6           0       -9.428861    3.147760   -0.445905
      5          6           0       -9.453089   -1.649079   -0.988826
      6          7           0       -5.076858    0.374465    0.769271
      7          6           0       -4.346496   -0.647790    0.851772
      8          6           0       -2.884065   -0.380132    1.262748
      9          6           0       -3.052136    1.088115    1.760778
     10          6           0       -4.326179    1.469025    1.296561
     11          6           0       -3.037987    1.268617    3.212528
     12          6           0       -1.960078   -0.583256    0.085827
     13          6           0       -0.491903   -0.532915    0.613259
     14          6           0        0.460677   -0.630381   -0.540845
     15          8           0        0.210759   -0.812822   -1.748230
     16          8           0        1.794160   -0.376757   -0.250625
     17          7           0       -7.077717    2.575421    0.339839
     18          6           0       -6.062416    3.343202    0.743010
     19          6           0       -6.394357    4.737535    0.750060
     20          6           0       -7.704729    4.859335    0.342216
     21          6           0       -8.092319    3.444440    0.041375
     22          6           0       -5.315990    5.862351    1.121293
     23          6           0       -8.502992    6.055029    0.207798
     24          6           0       -8.323388    7.271442    0.683987
     25          7           0       -9.148879    0.786701   -0.578952
     26          6           0       -9.822402    1.918703   -0.698170
     27          6           0      -11.204170    1.458718   -1.061741
     28          6           0      -11.181194    0.115350   -1.248416
     29          6           0       -9.874858   -0.256625   -1.021424
     30          6           0      -12.367067    2.482220   -1.223885
     31          6           0      -12.322376   -0.746473   -1.659127
     32          6           0      -12.393162   -1.017846   -3.191604
     33          7           0       -7.225056   -1.382011   -0.079167
     34          6           0       -8.134617   -2.238359   -0.628794
     35          6           0       -7.782679   -3.598142   -0.559239
     36          6           0       -6.451187   -3.577306   -0.085325
     37          6           0       -6.150766   -2.244982    0.138382
     38          6           0       -8.624908   -4.793655   -0.933844
     39          6           0       -5.293245   -4.385337    0.206187
     40          8           0       -5.167765   -5.609476    0.176740
     41          6           0       -4.095861   -3.280204    0.558997
     42          6           0       -3.442679   -3.735718    1.839631
     43          8           0       -3.820041   -3.246093    2.930208
     44          8           0       -2.695493   -4.784392    1.719430
     45          6           0       -2.107181   -5.330154    2.813323
     46          6           0        2.835961   -0.584746   -1.176208
     47          6           0        4.137506   -0.425253   -0.561515
     48          6           0        5.137991    0.357958   -1.011833
     49          6           0        5.092560    1.299218   -2.216110
     50          6           0        6.389064    0.355040   -0.214876
     51          6           0        7.630034   -0.176061   -1.063337
     52          6           0        8.854585   -0.254380   -0.139239
     53          6           0       10.204032   -0.723806   -0.856376
     54          6           0       10.165612   -2.234557   -1.385288
     55          6           0       11.423237   -0.439524    0.018775
     56          6           0       12.670125   -0.659802   -0.606110
     57          6           0       13.954473   -0.237864    0.284911
     58          6           0       15.295887   -0.139267   -0.502710
     59          6           0       15.604249   -1.598014   -0.930160
     60          6           0       16.370013    0.356676    0.530707
     61          6           0       17.736808    0.645599   -0.062244
     62          6           0       18.746028    1.334263    0.820437
     63          6           0       20.145223    1.552142    0.172797
     64          6           0       20.073705    2.191330   -1.240873
     65          6           0       21.155842    2.174007    1.196991
     66          1           0       -4.109847    3.547880    1.602807
     67          1           0       -9.965105    4.009957   -0.699652
     68          1           0      -10.278528   -2.487596   -1.223430
     69          1           0       -2.565587   -1.109047    1.971780
     70          1           0       -2.280645    1.544460    1.298170
     71          1           0       -1.907211    1.272195    3.670710
     72          1           0       -3.517734    2.295592    3.555324
     73          1           0       -4.004768    0.475389    3.722276
     74          1           0       -2.354863   -1.636926   -0.384336
     75          1           0       -2.086321    0.088848   -0.708782
     76          1           0       -0.202021    0.417562    1.206175
     77          1           0       -0.316696   -1.317495    1.402445
     78          1           0       -5.573076    6.606685    0.321102
     79          1           0       -5.279785    6.287847    2.124007
     80          1           0       -4.303728    5.489514    1.037466
     81          1           0       -9.192589    6.002793   -0.494622
     82          1           0       -9.062636    7.905702    0.431811
     83          1           0       -7.418921    7.478052    1.276905
     84          1           0      -12.335238    3.078412   -2.060197
     85          1           0      -13.157080    1.766288   -1.412206
     86          1           0      -12.489957    2.831731   -0.298951
     87          1           0      -12.411588   -1.635298   -1.040349
     88          1           0      -13.336088   -0.111545   -1.202737
     89          1           0      -13.121074   -1.709312   -3.574864
     90          1           0      -12.556440   -0.122936   -3.866735
     91          1           0      -11.338833   -1.719939   -3.299145
     92          1           0       -8.912307   -4.992422   -1.988390
     93          1           0       -7.959412   -5.715595   -0.438607
     94          1           0       -9.685213   -4.884034   -0.438553
     95          1           0       -3.373743   -3.355087   -0.146667
     96          1           0       -1.417691   -4.735549    3.209812
     97          1           0       -2.881501   -5.628569    3.492044
     98          1           0       -1.573689   -6.333017    2.330418
     99          1           0        2.743971   -1.633106   -1.565725
    100          1           0        2.839642    0.000580   -1.979472
    101          1           0        4.233380   -1.116271    0.266826
    102          1           0        4.098899    1.202694   -2.601960
    103          1           0        5.111625    2.259261   -1.877319
    104          1           0        5.703693    1.002538   -3.136169
    105          1           0        6.784981    1.240208    0.195698
    106          1           0        6.067457   -0.201939    0.721290
    107          1           0        7.386106   -1.166264   -1.401746
    108          1           0        7.754419    0.685667   -1.838589
    109          1           0        9.142124    0.560477    0.424215
    110          1           0        8.759237   -0.904822    0.716075
    111          1           0       10.387844   -0.135189   -1.774926
    112          1           0        9.265783   -2.356828   -1.863741
    113          1           0       10.966095   -2.519002   -1.923600
    114          1           0       10.097556   -2.819960   -0.465666
    115          1           0       11.557083    0.522706    0.664205
    116          1           0       11.188679   -1.043789    0.765686
    117          1           0       12.821374   -1.613548   -0.830422
    118          1           0       12.952246    0.086153   -1.365380
    119          1           0       13.613751    0.728885    0.565704
    120          1           0       14.201866   -0.797055    1.120632
    121          1           0       15.358313    0.440074   -1.449473
    122          1           0       15.810993   -2.205084    0.070387
    123          1           0       14.988297   -2.163930   -1.570061
    124          1           0       16.613203   -1.523242   -1.494977
    125          1           0       15.962654    1.307838    0.909854
    126          1           0       16.356983   -0.275397    1.414260
    127          1           0       17.973570   -0.359294   -0.328687
    128          1           0       17.477127    1.269084   -1.033659
    129          1           0       18.372188    2.314183    1.082223
    130          1           0       18.875308    0.741531    1.771322
    131          1           0       20.331328    0.484451   -0.189799
    132          1           0       19.804927    3.331588   -0.987935
    133          1           0       21.202116    2.157824   -1.532308
    134          1           0       19.310505    1.842165   -1.983241
    135          1           0       21.107642    1.383105    2.062410
    136          1           0       22.024869    2.261140    0.717881
    137          1           0       20.754190    2.976151    1.665646
 ---------------------------------------------------------------------

 SCF Done:  E(RCAM-B3LYP) =  -2933.47191405     A.U. after   16 cycles

 Excitation energies and oscillator strengths:

 Excited State   1:      Singlet-A      1.9728 eV  628.46 nm  f=0.2631  <S**2>=0.000
     240 -> 243       -0.24348
     241 -> 242        0.65372
 This state for optimization and/or second-order correction.
 Total Energy, E(TD-HF/TD-DFT) =  -2933.39941369
 Copying the excited state density for this state as the 1-particle RhoCI density.

 The electronic state is 1-A.
 Alpha  occ. eigenvalues --  -46.80553 -19.23027 -19.20831 -19.16703 -19.16560
 Alpha  occ. eigenvalues --  -19.15130 -14.38048 -14.36006 -14.35157 -14.34320
 Alpha  occ. eigenvalues --  -10.35293 -10.34051 -10.31111 -10.26962 -10.26665
 Alpha  occ. eigenvalues --  -10.26008 -10.25786 -10.25756 -10.25429 -10.25429
 Alpha  occ. eigenvalues --  -10.25181 -10.25134 -10.24603 -10.24531 -10.24350
 Alpha  occ. eigenvalues --  -10.24085 -10.23874 -10.23830 -10.23657 -10.23394
 Alpha  occ. eigenvalues --  -10.23378 -10.23051 -10.22998 -10.22879 -10.22753
 Alpha  occ. eigenvalues --  -10.22723 -10.22605 -10.22560 -10.22432 -10.22375
 Alpha  occ. eigenvalues --  -10.22221 -10.21958 -10.21874 -10.21855 -10.21800
 Alpha  occ. eigenvalues --  -10.21621 -10.21529 -10.21294 -10.21214 -10.21193
 Alpha  occ. eigenvalues --  -10.20886 -10.20842 -10.20805 -10.20704 -10.20672
 Alpha  occ. eigenvalues --  -10.20597 -10.20469 -10.20255 -10.20231 -10.19908
 Alpha  occ. eigenvalues --  -10.19571 -10.19474 -10.18938 -10.18876 -10.18830
 Alpha  occ. eigenvalues --   -3.09112  -1.84054  -1.83556  -1.83547  -1.16246
 Alpha  occ. eigenvalues --   -1.11587  -1.05480  -1.02565  -1.02452  -1.01444
 Alpha  occ. eigenvalues --   -0.99835  -0.99055  -0.98458  -0.87362  -0.86821
 Alpha  occ. eigenvalues --   -0.86235  -0.85630  -0.84766  -0.84364  -0.84314
 Alpha  occ. eigenvalues --   -0.83994  -0.82602  -0.82535  -0.81823  -0.81005
 Alpha  occ. eigenvalues --   -0.80407  -0.80038  -0.79175  -0.78463  -0.77758
 Alpha  occ. eigenvalues --   -0.77025  -0.76460  -0.76038  -0.75329  -0.73919
 Alpha  occ. eigenvalues --   -0.73090  -0.72933  -0.72474  -0.71931  -0.71395
 Alpha  occ. eigenvalues --   -0.70672  -0.70312  -0.69788  -0.68717  -0.68038
 Alpha  occ. eigenvalues --   -0.66912  -0.66159  -0.65293  -0.64812  -0.64502
 Alpha  occ. eigenvalues --   -0.63629  -0.62437  -0.61858  -0.61326  -0.60595
 Alpha  occ. eigenvalues --   -0.60519  -0.59773  -0.59369  -0.59138  -0.58476
 Alpha  occ. eigenvalues --   -0.57811  -0.57189  -0.56710  -0.56263  -0.55731
 Alpha  occ. eigenvalues --   -0.54975  -0.54910  -0.54418  -0.53706  -0.53427
 Alpha  occ. eigenvalues --   -0.52987  -0.52456  -0.52402  -0.52087  -0.51231
 Alpha  occ. eigenvalues --   -0.50958  -0.50602  -0.50342  -0.49867  -0.49690
 Alpha  occ. eigenvalues --   -0.49264  -0.49147  -0.48775  -0.48606  -0.48457
 Alpha  occ. eigenvalues --   -0.47859  -0.47630  -0.47388  -0.47267  -0.46939
 Alpha  occ. eigenvalues --   -0.46710  -0.46370  -0.46324  -0.46073  -0.45949
 Alpha  occ. eigenvalues --   -0.45879  -0.45815  -0.45319  -0.45006  -0.44967
 Alpha  occ. eigenvalues --   -0.44761  -0.44405  -0.44315  -0.43877  -0.43785
 Alpha  occ. eigenvalues --   -0.43468  -0.43385  -0.43310  -0.43031  -0.42917
 Alpha  occ. eigenvalues --   -0.42801  -0.42354  -0.42001  -0.41939  -0.41753
 Alpha  occ. eigenvalues --   -0.41669  -0.41337  -0.41140  -0.41101  -0.40850
 Alpha  occ. eigenvalues --   -0.40516  -0.40363  -0.40142  -0.40015  -0.39666
 Alpha  occ. eigenvalues --   -0.39592  -0.39434  -0.39304  -0.39235  -0.39152
 Alpha  occ. eigenvalues --   -0.38996  -0.38967  -0.38693  -0.38298  -0.38070
 Alpha  occ. eigenvalues --   -0.37951  -0.37908  -0.37714  -0.37666  -0.37357
 Alpha  occ. eigenvalues --   -0.36993  -0.36735  -0.36592  -0.36169  -0.36018
 Alpha  occ. eigenvalues --   -0.35653  -0.35620  -0.34981  -0.34954  -0.34703
 Alpha  occ. eigenvalues --   -0.34319  -0.34071  -0.33921  -0.33844  -0.33494
 Alpha  occ. eigenvalues --   -0.33314  -0.32913  -0.32689  -0.32622  -0.32379
 Alpha  occ. eigenvalues --   -0.31808  -0.31559  -0.30998  -0.30145  -0.29976
 Alpha  occ. eigenvalues --   -0.29745  -0.29660  -0.28853  -0.28668  -0.27118
 Alpha  occ. eigenvalues --   -0.26977  -0.26686  -0.25909  -0.25570  -0.21088
 Alpha  occ. eigenvalues --   -0.20102
 Alpha virt. eigenvalues --   -0.07604  -0.03640  -0.00297   0.01836   0.02472
 Alpha virt. eigenvalues --    0.03881   0.03949   0.04375   0.04540   0.05401
 Alpha virt. eigenvalues --    0.06728   0.08500   0.09236   0.09606   0.10258

 Mulliken charges:
               1
     1  Mg   0.820066
     2  C    0.076940
     3  C   -0.189427
     4  C   -0.159878
     5  C   -0.194487
     6  N   -0.615933
     7  C    0.342832
     8  C   -0.142390
     9  C   -0.106149
    10  C    0.276642
    11  C   -0.283911
    12  C   -0.167945
    13  C   -0.278128
    14  C    0.604423
    15  O   -0.476720
    16  O   -0.488689
    17  N   -0.709255
    18  C    0.327806
    19  C   -0.000612
    20  C    0.011519
    21  C    0.262674
    22  C   -0.375231
    23  C   -0.067543
    24  C   -0.223214
    25  N   -0.689209
    26  C    0.367103
    27  C   -0.071365
    28  C    0.098932
    29  C    0.298122
    30  C   -0.355061
    31  C   -0.247174
    32  C   -0.289633
    33  N   -0.707023
    34  C    0.257726
    35  C    0.049905
    36  C    0.066546
    37  C    0.250049
    38  C   -0.391947
    39  C    0.345164
    40  O   -0.464962
    41  C   -0.333823
    42  C    0.584468
    43  O   -0.508556
    44  O   -0.376476
    45  C   -0.080491
    46  C    0.049243
    47  C   -0.132888
    48  C    0.120608
    49  C   -0.375225
    50  C   -0.235991
    51  C   -0.174093
    52  C   -0.187346
    53  C   -0.082364
    54  C   -0.323289
    55  C   -0.158993
    56  C   -0.170760
    57  C   -0.186339
    58  C   -0.077406
    59  C   -0.299360
    60  C   -0.179862
    61  C   -0.173220
    62  C   -0.161862
    63  C   -0.061937
    64  C   -0.297780
    65  C   -0.302623
    66  H    0.071226
    67  H    0.085196
    68  H    0.077874
    69  H    0.119266
    70  H    0.111279
    71  H    0.087821
    72  H    0.106040
    73  H    0.091805
    74  H    0.105794
    75  H    0.133093
    76  H    0.141307
    77  H    0.144194
    78  H    0.125174
    79  H    0.125808
    80  H    0.114381
    81  H    0.081978
    82  H    0.096048
    83  H    0.097365
    84  H    0.129381
    85  H    0.103467
    86  H    0.134895
    87  H    0.115100
    88  H    0.059067
    89  H    0.115384
    90  H    0.113735
    91  H    0.077834
    92  H    0.134439
    93  H    0.126179
    94  H    0.111337
    95  H    0.145488
    96  H    0.129117
    97  H    0.138590
    98  H    0.100442
    99  H    0.102693
   100  H    0.104771
   101  H    0.085430
   102  H    0.111666
   103  H    0.135795
   104  H    0.123122
   105  H    0.105301
   106  H    0.085447
   107  H    0.110054
   108  H    0.098772
   109  H    0.100206
   110  H    0.089170
   111  H    0.072850
   112  H    0.109973
   113  H    0.116602
   114  H    0.094010
   115  H    0.061562
   116  H    0.098115
   117  H    0.101321
   118  H    0.094902
   119  H    0.085793
   120  H    0.090831
   121  H    0.080549
   122  H    0.077168
   123  H    0.113053
   124  H    0.081132
   125  H    0.083591
   126  H    0.087242
   127  H    0.101928
   128  H    0.071741
   129  H    0.086011
   130  H    0.079792
   131  H    0.076574
   132  H    0.068856
   133  H    0.090582
   134  H    0.114128
   135  H    0.091835
   136  H    0.112198
   137  H    0.120930
 Sum of Mulliken charges =  -0.00000

 Dipole moment (field-independent basis, Debye):
    X=              1.7606    Y=              4.1742    Z=              0.3177  Tot=              4.5414
 Quadrupole moment (field-independent basis, Debye-Ang):
   XX=           -360.3991   YY=           -393.9384   ZZ=           -399.1976
   XY=            -22.4759   XZ=             21.7333   YZ=             -0.3322

 Normal termination of Gaussian 16 at Sat Sep  7 20:03:28 2019.
