 Gaussian 16, Revision A.03,
 Gaussian 16:  ES64L-G16RevA.03 25-Dec-2016

 ----------------------------------------------------------------------
 # td=(NStates=1) iop(3/107=0140000000,3/108=0140000000) CAM-B3LYP/6-31
 G(d,p)
 ----------------------------------------------------------------------

 --
 TD
 --
 Symbolic Z-matrix:
 Charge =  0 Multiplicity = 1

                         Standard orientation:
 ---------------------------------------------------------------------
 Center     Atomic      Atomic             Coordinates (Angstroms)
 Number     Number       Type             X           Y           Z
 ---------------------------------------------------------------------
      1         12           0       -7.082766    0.591340    0.085084
      2          6           0       -4.831564   -1.893660    0.519960
      3          6           0       -4.767170    2.922194    1.152608
      4          6           0       -9.474534    3.012534   -0.408330
      5          6           0       -9.622607   -1.747323   -0.711118
      6          7           0       -5.072092    0.558944    0.625230
      7          6           0       -4.297456   -0.701952    0.734869
      8          6           0       -2.897433   -0.270596    1.145396
      9          6           0       -3.005532    1.233351    1.629388
     10          6           0       -4.328758    1.603080    1.089632
     11          6           0       -2.967924    1.458708    3.214245
     12          6           0       -1.918944   -0.531598    0.081130
     13          6           0       -0.437651   -0.408287    0.443022
     14          6           0        0.545977   -0.710946   -0.713598
     15          8           0        0.207963   -0.998960   -1.858274
     16          8           0        1.775771   -0.568585   -0.264551
     17          7           0       -7.114048    2.580468    0.196562
     18          6           0       -6.130351    3.431119    0.783815
     19          6           0       -6.507634    4.747168    0.804700
     20          6           0       -7.748328    4.890598    0.267525
     21          6           0       -8.148766    3.497116   -0.054902
     22          6           0       -5.593257    5.902779    1.077507
     23          6           0       -8.496937    5.980737    0.094134
     24          6           0       -8.447621    7.135493    0.741576
     25          7           0       -9.100608    0.631622   -0.446924
     26          6           0       -9.849241    1.747198   -0.554206
     27          6           0      -11.189295    1.460269   -1.027574
     28          6           0      -11.287509    0.035582   -1.203830
     29          6           0       -9.974276   -0.404666   -0.746927
     30          6           0      -12.251614    2.329620   -1.415761
     31          6           0      -12.475292   -0.800786   -1.613359
     32          6           0      -12.381844   -1.293578   -3.072805
     33          7           0       -7.188160   -1.385757   -0.237125
     34          6           0       -8.285098   -2.304526   -0.543894
     35          6           0       -7.802804   -3.588642   -0.454717
     36          6           0       -6.540081   -3.549065   -0.083993
     37          6           0       -6.207889   -2.149482    0.105117
     38          6           0       -8.555991   -4.977416   -0.809226
     39          6           0       -5.371531   -4.326401    0.214827
     40          8           0       -5.104217   -5.564051    0.222894
     41          6           0       -4.086293   -3.290811    0.592202
     42          6           0       -3.577707   -3.633164    1.942340
     43          8           0       -3.734475   -2.945790    2.905493
     44          8           0       -2.852186   -4.770467    1.893632
     45          6           0       -2.225596   -5.176607    3.195593
     46          6           0        2.870650   -0.630583   -1.333301
     47          6           0        4.160999   -0.435478   -0.664865
     48          6           0        5.149750    0.243642   -1.125687
     49          6           0        5.070554    1.049443   -2.381417
     50          6           0        6.516124    0.371062   -0.373829
     51          6           0        7.675260   -0.095014   -1.051899
     52          6           0        8.922146   -0.048385   -0.218864
     53          6           0       10.159318   -0.626391   -0.781137
     54          6           0       10.180447   -2.157242   -1.126953
     55          6           0       11.429259   -0.224412    0.002255
     56          6           0       12.742882   -0.448236   -0.641635
     57          6           0       14.010344   -0.091217    0.205311
     58          6           0       15.360294   -0.145276   -0.453070
     59          6           0       15.752561   -1.510219   -1.058901
     60          6           0       16.446473    0.374565    0.484285
     61          6           0       17.785230    0.402752   -0.079394
     62          6           0       18.753325    1.215193    0.794810
     63          6           0       20.209146    1.362877    0.343443
     64          6           0       20.379077    2.007954   -0.962601
     65          6           0       21.125499    1.945075    1.377313
     66          1           0       -4.313385    3.693064    1.336891
     67          1           0      -10.199249    3.831530   -0.832161
     68          1           0      -10.473532   -2.318195   -0.991821
     69          1           0       -2.697052   -0.813362    2.031886
     70          1           0       -2.285148    1.854607    1.081376
     71          1           0       -1.791135    1.226409    3.521069
     72          1           0       -3.207413    2.488825    3.612343
     73          1           0       -3.486193    0.573236    3.792476
     74          1           0       -1.908974   -1.452674   -0.347883
     75          1           0       -2.283368    0.019113   -0.849097
     76          1           0       -0.281189    0.673234    0.865498
     77          1           0       -0.169982   -1.149093    1.120297
     78          1           0       -5.675675    6.777754    0.197619
     79          1           0       -5.895590    6.400922    1.986932
     80          1           0       -4.608651    5.599023    1.142891
     81          1           0       -9.389577    5.855261   -0.546731
     82          1           0       -9.093120    7.900759    0.575757
     83          1           0       -7.921756    7.480774    1.513739
     84          1           0      -12.044619    3.143857   -2.081946
     85          1           0      -13.074692    1.944255   -1.809949
     86          1           0      -12.449960    2.832234   -0.462843
     87          1           0      -12.443683   -1.573026   -0.873354
     88          1           0      -13.302452   -0.189735   -1.381964
     89          1           0      -13.151292   -1.917925   -3.233005
     90          1           0      -12.612324   -0.551638   -3.776827
     91          1           0      -11.377114   -1.855844   -3.289188
     92          1           0       -8.838666   -5.177604   -1.720663
     93          1           0       -8.129469   -6.014468   -0.671011
     94          1           0       -9.572431   -4.965228   -0.225105
     95          1           0       -3.461646   -3.366362   -0.232176
     96          1           0       -1.307904   -4.509348    3.445749
     97          1           0       -3.069942   -5.020537    3.967852
     98          1           0       -1.853448   -6.218107    2.962856
     99          1           0        2.901810   -1.617888   -1.709522
    100          1           0        2.472528    0.191033   -1.917852
    101          1           0        4.330777   -1.097996   -0.044139
    102          1           0        4.066664    1.149334   -2.939807
    103          1           0        5.509581    2.017008   -2.186240
    104          1           0        5.541919    0.486411   -3.035642
    105          1           0        6.567304    1.474914   -0.125557
    106          1           0        6.406436   -0.027975    0.661836
    107          1           0        7.411121   -1.304025   -1.416518
    108          1           0        7.742351    0.566296   -1.923356
    109          1           0        9.167758    1.015547    0.028568
    110          1           0        8.664135   -0.629696    0.698202
    111          1           0       10.472712   -0.091839   -1.614877
    112          1           0        9.229815   -2.505981   -1.833713
    113          1           0       11.054681   -2.309799   -1.732347
    114          1           0       10.098533   -2.664956   -0.348893
    115          1           0       11.527580    0.806173    0.245711
    116          1           0       11.449165   -0.741260    0.965148
    117          1           0       12.837180   -1.591467   -0.944962
    118          1           0       12.992081    0.101915   -1.550310
    119          1           0       13.941241    1.123036    0.400290
    120          1           0       13.971458   -0.831535    0.983993
    121          1           0       15.381741    0.684573   -1.271128
    122          1           0       15.929960   -2.258872   -0.139813
    123          1           0       14.897164   -2.058788   -1.826383
    124          1           0       16.792956   -1.266609   -1.356458
    125          1           0       15.975629    1.377668    0.783334
    126          1           0       16.472772   -0.161275    1.452223
    127          1           0       18.076990   -0.510087   -0.169561
    128          1           0       17.778788    0.778319   -1.280646
    129          1           0       18.439790    2.171772    0.896346
    130          1           0       18.790575    0.877475    1.891521
    131          1           0       20.536233    0.341951    0.169096
    132          1           0       20.280057    3.069643   -0.936857
    133          1           0       21.406695    1.881424   -1.452987
    134          1           0       19.733913    1.835583   -1.753042
    135          1           0       21.067133    1.423020    2.227411
    136          1           0       22.338733    1.998039    1.134151
    137          1           0       20.724652    2.958107    1.749261
 ---------------------------------------------------------------------

 SCF Done:  E(RCAM-B3LYP) =  -2933.42103688     A.U. after   16 cycles

 Excitation energies and oscillator strengths:

 Excited State   1:      Singlet-A      1.8940 eV  654.63 nm  f=0.2873  <S**2>=0.000
     240 -> 243        0.17349
     241 -> 242        0.68214
 This state for optimization and/or second-order correction.
 Total Energy, E(TD-HF/TD-DFT) =  -2933.35143531
 Copying the excited state density for this state as the 1-particle RhoCI density.

 The electronic state is 1-A.
 Alpha  occ. eigenvalues --  -46.78813 -19.21322 -19.20774 -19.15654 -19.15424
 Alpha  occ. eigenvalues --  -19.14896 -14.36658 -14.35305 -14.35042 -14.34588
 Alpha  occ. eigenvalues --  -10.33518 -10.33166 -10.29993 -10.28012 -10.27110
 Alpha  occ. eigenvalues --  -10.25752 -10.25512 -10.25235 -10.25029 -10.25009
 Alpha  occ. eigenvalues --  -10.24315 -10.24046 -10.24015 -10.23776 -10.23275
 Alpha  occ. eigenvalues --  -10.23267 -10.23144 -10.22882 -10.22852 -10.22695
 Alpha  occ. eigenvalues --  -10.22646 -10.22533 -10.22426 -10.22243 -10.22117
 Alpha  occ. eigenvalues --  -10.22092 -10.22074 -10.22022 -10.21933 -10.21831
 Alpha  occ. eigenvalues --  -10.21791 -10.21774 -10.21609 -10.21505 -10.21432
 Alpha  occ. eigenvalues --  -10.21363 -10.21349 -10.21255 -10.21230 -10.21011
 Alpha  occ. eigenvalues --  -10.20974 -10.20931 -10.20798 -10.20763 -10.20695
 Alpha  occ. eigenvalues --  -10.20605 -10.20441 -10.20304 -10.20155 -10.20070
 Alpha  occ. eigenvalues --  -10.19950 -10.19932 -10.19815 -10.18960 -10.18724
 Alpha  occ. eigenvalues --   -3.07541  -1.82475  -1.82035  -1.81941  -1.11892
 Alpha  occ. eigenvalues --   -1.11664  -1.03550  -1.02603  -1.02013  -0.99218
 Alpha  occ. eigenvalues --   -0.97732  -0.96643  -0.95614  -0.87865  -0.86776
 Alpha  occ. eigenvalues --   -0.85922  -0.85676  -0.85494  -0.84372  -0.84164
 Alpha  occ. eigenvalues --   -0.84115  -0.83445  -0.82805  -0.82490  -0.81819
 Alpha  occ. eigenvalues --   -0.80093  -0.79863  -0.79095  -0.78702  -0.77796
 Alpha  occ. eigenvalues --   -0.77224  -0.76132  -0.75699  -0.75416  -0.73434
 Alpha  occ. eigenvalues --   -0.73173  -0.73039  -0.72467  -0.71989  -0.71417
 Alpha  occ. eigenvalues --   -0.70830  -0.70411  -0.69968  -0.69729  -0.69280
 Alpha  occ. eigenvalues --   -0.67531  -0.66532  -0.66003  -0.65521  -0.64876
 Alpha  occ. eigenvalues --   -0.63191  -0.62763  -0.60728  -0.60273  -0.60079
 Alpha  occ. eigenvalues --   -0.59893  -0.59565  -0.59007  -0.58226  -0.57489
 Alpha  occ. eigenvalues --   -0.57319  -0.57137  -0.56485  -0.55946  -0.55276
 Alpha  occ. eigenvalues --   -0.54940  -0.53833  -0.53390  -0.53159  -0.53064
 Alpha  occ. eigenvalues --   -0.51763  -0.51464  -0.50939  -0.50859  -0.50748
 Alpha  occ. eigenvalues --   -0.50466  -0.50158  -0.50099  -0.49943  -0.49631
 Alpha  occ. eigenvalues --   -0.49140  -0.48767  -0.48615  -0.48511  -0.48405
 Alpha  occ. eigenvalues --   -0.48282  -0.47755  -0.47458  -0.47332  -0.47055
 Alpha  occ. eigenvalues --   -0.46750  -0.46608  -0.46411  -0.46142  -0.46055
 Alpha  occ. eigenvalues --   -0.45847  -0.45604  -0.45485  -0.45217  -0.45043
 Alpha  occ. eigenvalues --   -0.44815  -0.44336  -0.44219  -0.43885  -0.43706
 Alpha  occ. eigenvalues --   -0.43463  -0.43181  -0.43175  -0.42558  -0.42547
 Alpha  occ. eigenvalues --   -0.42205  -0.42124  -0.41775  -0.41593  -0.41337
 Alpha  occ. eigenvalues --   -0.41153  -0.41095  -0.40632  -0.40405  -0.40001
 Alpha  occ. eigenvalues --   -0.39946  -0.39745  -0.39666  -0.39617  -0.39598
 Alpha  occ. eigenvalues --   -0.39357  -0.39315  -0.39180  -0.39092  -0.39054
 Alpha  occ. eigenvalues --   -0.38628  -0.38566  -0.38226  -0.38022  -0.37936
 Alpha  occ. eigenvalues --   -0.37693  -0.37615  -0.37545  -0.37322  -0.37055
 Alpha  occ. eigenvalues --   -0.36835  -0.36455  -0.36438  -0.36358  -0.35958
 Alpha  occ. eigenvalues --   -0.35862  -0.35606  -0.35341  -0.35153  -0.34776
 Alpha  occ. eigenvalues --   -0.34232  -0.34115  -0.33805  -0.33643  -0.33576
 Alpha  occ. eigenvalues --   -0.33513  -0.33364  -0.33351  -0.32742  -0.32479
 Alpha  occ. eigenvalues --   -0.32132  -0.32061  -0.31937  -0.31235  -0.30392
 Alpha  occ. eigenvalues --   -0.29627  -0.29498  -0.29317  -0.28208  -0.27930
 Alpha  occ. eigenvalues --   -0.27483  -0.25245  -0.24883  -0.24578  -0.21448
 Alpha  occ. eigenvalues --   -0.19750
 Alpha virt. eigenvalues --   -0.07722  -0.03080   0.00649   0.02549   0.04899
 Alpha virt. eigenvalues --    0.05008   0.05456   0.05627   0.05802   0.06304
 Alpha virt. eigenvalues --    0.06810   0.08779   0.09584   0.09882   0.10667

 Mulliken charges:
               1
     1  Mg   0.797242
     2  C    0.056094
     3  C   -0.089141
     4  C   -0.203717
     5  C   -0.164505
     6  N   -0.640549
     7  C    0.266977
     8  C   -0.150986
     9  C   -0.135785
    10  C    0.359278
    11  C   -0.307909
    12  C   -0.166978
    13  C   -0.259770
    14  C    0.593877
    15  O   -0.494661
    16  O   -0.480917
    17  N   -0.689097
    18  C    0.244935
    19  C    0.023192
    20  C    0.114863
    21  C    0.248792
    22  C   -0.367345
    23  C   -0.127327
    24  C   -0.231880
    25  N   -0.688670
    26  C    0.396873
    27  C   -0.002833
    28  C    0.030302
    29  C    0.276197
    30  C   -0.381444
    31  C   -0.245067
    32  C   -0.309670
    33  N   -0.722920
    34  C    0.211133
    35  C    0.001987
    36  C    0.116570
    37  C    0.322964
    38  C   -0.375353
    39  C    0.300201
    40  O   -0.488611
    41  C   -0.306534
    42  C    0.642649
    43  O   -0.470523
    44  O   -0.455825
    45  C   -0.092059
    46  C    0.011977
    47  C   -0.100022
    48  C    0.118864
    49  C   -0.367003
    50  C   -0.229350
    51  C   -0.135198
    52  C   -0.158587
    53  C   -0.056677
    54  C   -0.300799
    55  C   -0.172864
    56  C   -0.190755
    57  C   -0.148476
    58  C   -0.060450
    59  C   -0.297421
    60  C   -0.156904
    61  C   -0.165075
    62  C   -0.181004
    63  C   -0.046204
    64  C   -0.311448
    65  C   -0.301711
    66  H   -0.008498
    67  H    0.081644
    68  H    0.077554
    69  H    0.121335
    70  H    0.110475
    71  H    0.077598
    72  H    0.121517
    73  H    0.130456
    74  H    0.122525
    75  H    0.104447
    76  H    0.112527
    77  H    0.138464
    78  H    0.101271
    79  H    0.128363
    80  H    0.122472
    81  H    0.083317
    82  H    0.096537
    83  H    0.099163
    84  H    0.120377
    85  H    0.114906
    86  H    0.122010
    87  H    0.118005
    88  H    0.110631
    89  H    0.117831
    90  H    0.118264
    91  H    0.107244
    92  H    0.138717
    93  H    0.137450
    94  H    0.095359
    95  H    0.164236
    96  H    0.116638
    97  H    0.143591
    98  H    0.135047
    99  H    0.143379
   100  H    0.130632
   101  H    0.068308
   102  H    0.100651
   103  H    0.113524
   104  H    0.146287
   105  H    0.094761
   106  H    0.093489
   107  H    0.055299
   108  H    0.096408
   109  H    0.088469
   110  H    0.084142
   111  H    0.092752
   112  H    0.068257
   113  H    0.114009
   114  H    0.118529
   115  H    0.092034
   116  H    0.082993
   117  H    0.066235
   118  H    0.088193
   119  H    0.057764
   120  H    0.093741
   121  H    0.069577
   122  H    0.077751
   123  H    0.086740
   124  H    0.109387
   125  H    0.077877
   126  H    0.089059
   127  H    0.120000
   128  H    0.061368
   129  H    0.104009
   130  H    0.076562
   131  H    0.086250
   132  H    0.096606
   133  H    0.086559
   134  H    0.103278
   135  H    0.113386
   136  H    0.080378
   137  H    0.084944
 Sum of Mulliken charges =  -0.00000

 Dipole moment (field-independent basis, Debye):
    X=              1.8976    Y=              4.8451    Z=              0.4101  Tot=              5.2196
 Quadrupole moment (field-independent basis, Debye-Ang):
   XX=           -312.3825   YY=           -392.3558   ZZ=           -394.4854
   XY=            -26.7366   XZ=             17.7194   YZ=             -1.2245

 Normal termination of Gaussian 16 at Fri Sep 13 17:05:34 2019.
