 Gaussian 09, Revision D.01,
 Gaussian 09:  ES64L-G09RevD.01 24-Apr-2013

 -------------------------------------
 # td=(NStates=1) CAM-B3LYP/6-31G(d,p)
 -------------------------------------

 --
 TD
 --
 Symbolic Z-matrix:
 Charge =  0 Multiplicity = 1

                         Standard orientation:
 ---------------------------------------------------------------------
 Center     Atomic      Atomic             Coordinates (Angstroms)
 Number     Number       Type             X           Y           Z
 ---------------------------------------------------------------------
      1         12           0       -7.115508    0.640552   -0.007953
      2          6           0       -4.843487   -1.942607    0.491717
      3          6           0       -4.810307    2.827160    1.148149
      4          6           0       -9.450188    3.020239   -0.321006
      5          6           0       -9.497962   -1.718628   -0.907752
      6          7           0       -5.119611    0.462354    0.719294
      7          6           0       -4.324171   -0.761082    0.813825
      8          6           0       -2.935587   -0.345973    1.227327
      9          6           0       -3.126614    1.144386    1.609729
     10          6           0       -4.457489    1.521546    1.153827
     11          6           0       -2.958523    1.442901    3.170427
     12          6           0       -1.937474   -0.734248    0.066069
     13          6           0       -0.473379   -0.498958    0.420986
     14          6           0        0.558076   -0.689382   -0.594686
     15          8           0        0.298300   -0.959550   -1.718772
     16          8           0        1.749273   -0.244497   -0.268633
     17          7           0       -7.151120    2.583692    0.359358
     18          6           0       -6.110120    3.346413    0.810453
     19          6           0       -6.376791    4.811919    0.619646
     20          6           0       -7.731822    4.803485    0.257423
     21          6           0       -8.261403    3.415036    0.138406
     22          6           0       -5.556300    5.917660    0.961273
     23          6           0       -8.540836    5.946294    0.139516
     24          6           0       -8.458299    7.070939    0.886946
     25          7           0       -9.193573    0.715568   -0.515044
     26          6           0       -9.962215    1.718947   -0.672682
     27          6           0      -11.252333    1.461595   -1.222956
     28          6           0      -11.245517   -0.011925   -1.192377
     29          6           0       -9.836014   -0.466921   -0.852529
     30          6           0      -12.349791    2.366934   -1.429174
     31          6           0      -12.426938   -0.785727   -1.744734
     32          6           0      -12.435507   -1.154519   -3.217144
     33          7           0       -7.237297   -1.459480   -0.130969
     34          6           0       -8.269480   -2.309316   -0.430130
     35          6           0       -7.795956   -3.628264   -0.518560
     36          6           0       -6.529059   -3.594499   -0.067102
     37          6           0       -6.232340   -2.226979    0.010662
     38          6           0       -8.544739   -4.836544   -0.923787
     39          6           0       -5.235028   -4.317720    0.213706
     40          8           0       -5.100873   -5.497696    0.257125
     41          6           0       -4.169830   -3.281485    0.645171
     42          6           0       -3.578367   -3.622046    1.968268
     43          8           0       -3.809456   -2.979452    3.052120
     44          8           0       -2.781286   -4.736315    1.969187
     45          6           0       -2.144745   -5.081603    3.171176
     46          6           0        2.776388   -0.412172   -1.220763
     47          6           0        4.085813   -0.310662   -0.493933
     48          6           0        5.213704    0.350690   -0.964163
     49          6           0        5.253115    1.148641   -2.186142
     50          6           0        6.500588    0.257181   -0.085260
     51          6           0        7.707266    0.010544   -1.101659
     52          6           0        8.961812   -0.106380   -0.316973
     53          6           0       10.239082   -0.619827   -0.993596
     54          6           0       10.243416   -2.117706   -1.456206
     55          6           0       11.446687   -0.391517   -0.090809
     56          6           0       12.768964   -0.681629   -0.727565
     57          6           0       13.997648   -0.347115    0.184337
     58          6           0       15.369557   -0.311084   -0.513288
     59          6           0       15.824624   -1.684602   -0.850816
     60          6           0       16.375099    0.451923    0.326091
     61          6           0       17.853967    0.623274   -0.175504
     62          6           0       18.836567    1.336200    0.783872
     63          6           0       20.200587    1.440450    0.263808
     64          6           0       20.352899    2.169565   -1.022498
     65          6           0       21.044892    1.989177    1.466248
     66          1           0       -4.057062    3.285098    1.576250
     67          1           0      -10.329519    3.862697   -0.691711
     68          1           0      -10.227232   -2.544991   -1.136983
     69          1           0       -2.715862   -0.923553    2.313295
     70          1           0       -2.361469    1.824932    1.171766
     71          1           0       -1.917888    1.205621    3.639084
     72          1           0       -2.921830    2.480703    3.394869
     73          1           0       -3.782231    0.930405    3.610495
     74          1           0       -2.088093   -1.694869   -0.313749
     75          1           0       -2.337882   -0.271049   -0.932681
     76          1           0       -0.420956    0.457918    0.692824
     77          1           0       -0.338334   -1.026891    1.253099
     78          1           0       -5.916521    6.810892    0.595681
     79          1           0       -5.548361    6.108317    2.032413
     80          1           0       -4.506440    5.639399    0.738772
     81          1           0       -9.275203    6.043899   -0.821852
     82          1           0       -9.339448    7.893205    0.792942
     83          1           0       -7.694896    7.338167    1.657555
     84          1           0      -12.254652    3.075250   -2.252716
     85          1           0      -13.129235    1.684297   -1.706098
     86          1           0      -12.328978    3.054702   -0.429388
     87          1           0      -12.471839   -1.713757   -1.085463
     88          1           0      -13.395037   -0.327270   -1.501831
     89          1           0      -13.359637   -1.580908   -3.646440
     90          1           0      -12.190123   -0.094731   -3.716917
     91          1           0      -11.705509   -1.990144   -3.473543
     92          1           0       -8.555639   -5.013547   -1.917429
     93          1           0       -8.128211   -5.765802   -0.569654
     94          1           0       -9.665024   -4.792696   -0.450043
     95          1           0       -3.287851   -3.296189   -0.164409
     96          1           0       -1.647728   -4.133294    3.551242
     97          1           0       -2.875712   -5.318342    3.828986
     98          1           0       -1.456528   -5.772861    3.094330
     99          1           0        2.709961   -1.530946   -1.769971
    100          1           0        2.775035    0.511050   -2.001234
    101          1           0        4.136254   -0.893538    0.230803
    102          1           0        4.174951    1.275816   -2.437097
    103          1           0        5.516133    2.109987   -1.838865
    104          1           0        5.882775    0.815408   -2.933786
    105          1           0        6.514842    1.305804    0.476041
    106          1           0        6.308058   -0.388314    0.592522
    107          1           0        7.568486   -0.958269   -1.602821
    108          1           0        7.880492    0.871882   -1.819017
    109          1           0        9.221168    0.773387    0.227914
    110          1           0        8.975196   -0.925205    0.406688
    111          1           0       10.529068   -0.009311   -1.901897
    112          1           0        9.353721   -2.261879   -2.189195
    113          1           0       11.195624   -2.224198   -1.994617
    114          1           0       10.059493   -2.719818   -0.421208
    115          1           0       11.524643    0.610218    0.451364
    116          1           0       11.315142   -0.973928    0.896671
    117          1           0       12.519506   -1.793958   -1.250709
    118          1           0       13.004691   -0.235823   -1.630154
    119          1           0       13.860479    0.635305    0.893599
    120          1           0       14.047846   -1.181209    0.966070
    121          1           0       15.062926    0.386956   -1.359121
    122          1           0       15.887317   -2.220604   -0.080954
    123          1           0       14.904850   -1.984276   -1.417342
    124          1           0       16.728890   -1.587352   -1.534871
    125          1           0       15.986782    1.354766    0.657017
    126          1           0       16.405987    0.097690    1.496670
    127          1           0       18.256120   -0.531639   -0.523413
    128          1           0       17.758682    1.210843   -1.116866
    129          1           0       18.556459    2.353413    0.853553
    130          1           0       18.800742    0.844820    1.612506
    131          1           0       20.452681    0.329773    0.226089
    132          1           0       19.979942    3.218715   -0.793840
    133          1           0       21.572660    1.894067   -1.116524
    134          1           0       19.931975    1.785597   -1.895544
    135          1           0       20.967331    1.446540    2.340163
    136          1           0       22.105393    1.982232    1.178023
    137          1           0       20.735429    3.098035    1.797838
 ---------------------------------------------------------------------

 SCF Done:  E(RCAM-B3LYP) =  -2932.56364130     A.U. after   16 cycles

 Excitation energies and oscillator strengths:

 Excited State   1:      Singlet-A      2.3727 eV  522.55 nm  f=0.1981  <S**2>=0.000
     240 -> 242       -0.33478
     240 -> 243       -0.16835
     241 -> 242        0.54965
     241 -> 243       -0.20741
 This state for optimization and/or second-order correction.
 Total Energy, E(TD-HF/TD-KS) =  -2932.47644628
 Copying the excited state density for this state as the 1-particle RhoCI density.

 The electronic state is 1-A.
 Alpha  occ. eigenvalues --  -46.84913 -19.26200 -19.26044 -19.20296 -19.19638
 Alpha  occ. eigenvalues --  -19.19576 -14.40291 -14.39815 -14.39594 -14.38627
 Alpha  occ. eigenvalues --  -10.39863 -10.37936 -10.34632 -10.33371 -10.31929
 Alpha  occ. eigenvalues --  -10.30489 -10.29569 -10.29364 -10.29284 -10.29132
 Alpha  occ. eigenvalues --  -10.29052 -10.28557 -10.28553 -10.28517 -10.28388
 Alpha  occ. eigenvalues --  -10.28150 -10.27929 -10.27922 -10.27919 -10.27728
 Alpha  occ. eigenvalues --  -10.27351 -10.27317 -10.27274 -10.27031 -10.27014
 Alpha  occ. eigenvalues --  -10.26972 -10.26917 -10.26906 -10.26837 -10.26830
 Alpha  occ. eigenvalues --  -10.26765 -10.26596 -10.26317 -10.26239 -10.26194
 Alpha  occ. eigenvalues --  -10.26185 -10.26041 -10.26033 -10.25993 -10.25917
 Alpha  occ. eigenvalues --  -10.25826 -10.25822 -10.25692 -10.25526 -10.25025
 Alpha  occ. eigenvalues --  -10.24997 -10.24913 -10.24873 -10.24607 -10.24440
 Alpha  occ. eigenvalues --  -10.23843 -10.23770 -10.23130 -10.23123 -10.22473
 Alpha  occ. eigenvalues --   -3.13813  -1.88528  -1.88021  -1.88007  -1.20324
 Alpha  occ. eigenvalues --   -1.16893  -1.11982  -1.09862  -1.06145  -1.05745
 Alpha  occ. eigenvalues --   -1.04806  -1.03269  -1.02156  -0.92161  -0.91590
 Alpha  occ. eigenvalues --   -0.91047  -0.90519  -0.90453  -0.89777  -0.89338
 Alpha  occ. eigenvalues --   -0.89253  -0.88581  -0.88247  -0.87414  -0.86335
 Alpha  occ. eigenvalues --   -0.85612  -0.84857  -0.84156  -0.83423  -0.82698
 Alpha  occ. eigenvalues --   -0.82107  -0.81709  -0.80570  -0.80304  -0.78409
 Alpha  occ. eigenvalues --   -0.78271  -0.77391  -0.77180  -0.76524  -0.76302
 Alpha  occ. eigenvalues --   -0.75849  -0.75618  -0.74477  -0.73822  -0.73177
 Alpha  occ. eigenvalues --   -0.71807  -0.70840  -0.69782  -0.69407  -0.67931
 Alpha  occ. eigenvalues --   -0.67326  -0.67045  -0.65128  -0.64703  -0.64082
 Alpha  occ. eigenvalues --   -0.63662  -0.63050  -0.62355  -0.62091  -0.61999
 Alpha  occ. eigenvalues --   -0.61589  -0.61155  -0.60653  -0.59745  -0.59583
 Alpha  occ. eigenvalues --   -0.59267  -0.58468  -0.57870  -0.57700  -0.57021
 Alpha  occ. eigenvalues --   -0.56199  -0.55982  -0.55892  -0.55556  -0.55367
 Alpha  occ. eigenvalues --   -0.55057  -0.54875  -0.54441  -0.53702  -0.53514
 Alpha  occ. eigenvalues --   -0.53214  -0.53008  -0.52529  -0.52390  -0.51917
 Alpha  occ. eigenvalues --   -0.51743  -0.51663  -0.51589  -0.51490  -0.51006
 Alpha  occ. eigenvalues --   -0.50682  -0.50538  -0.50412  -0.49709  -0.49645
 Alpha  occ. eigenvalues --   -0.49387  -0.49106  -0.48830  -0.48738  -0.48635
 Alpha  occ. eigenvalues --   -0.48603  -0.48518  -0.48287  -0.47539  -0.47459
 Alpha  occ. eigenvalues --   -0.47147  -0.46945  -0.46803  -0.46706  -0.46452
 Alpha  occ. eigenvalues --   -0.46157  -0.46020  -0.45674  -0.45415  -0.45007
 Alpha  occ. eigenvalues --   -0.44956  -0.44689  -0.44617  -0.44534  -0.44411
 Alpha  occ. eigenvalues --   -0.44109  -0.43949  -0.43803  -0.43342  -0.43291
 Alpha  occ. eigenvalues --   -0.43202  -0.42889  -0.42612  -0.42538  -0.42365
 Alpha  occ. eigenvalues --   -0.42101  -0.41929  -0.41426  -0.41325  -0.41234
 Alpha  occ. eigenvalues --   -0.41069  -0.40568  -0.40500  -0.40490  -0.40330
 Alpha  occ. eigenvalues --   -0.40276  -0.39914  -0.39870  -0.39430  -0.39117
 Alpha  occ. eigenvalues --   -0.39075  -0.38864  -0.38056  -0.37987  -0.37426
 Alpha  occ. eigenvalues --   -0.37299  -0.37176  -0.37008  -0.36910  -0.36293
 Alpha  occ. eigenvalues --   -0.35865  -0.35735  -0.35029  -0.34889  -0.34728
 Alpha  occ. eigenvalues --   -0.34634  -0.34453  -0.34350  -0.33246  -0.32905
 Alpha  occ. eigenvalues --   -0.32841  -0.32682  -0.32043  -0.30781  -0.29556
 Alpha  occ. eigenvalues --   -0.29094  -0.28379  -0.28053  -0.27472  -0.23402
 Alpha  occ. eigenvalues --   -0.21937
 Alpha virt. eigenvalues --   -0.05917  -0.02404   0.02798   0.03591   0.04745
 Alpha virt. eigenvalues --    0.05239   0.06251   0.06461   0.07431   0.07989
 Alpha virt. eigenvalues --    0.08447   0.09490   0.10758   0.10830   0.11507

 Mulliken charges:
               1
     1  Mg   0.829593
     2  C    0.069323
     3  C   -0.163598
     4  C   -0.221062
     5  C   -0.156147
     6  N   -0.685251
     7  C    0.259612
     8  C   -0.152903
     9  C   -0.189693
    10  C    0.421892
    11  C   -0.317805
    12  C   -0.192420
    13  C   -0.253503
    14  C    0.580101
    15  O   -0.457406
    16  O   -0.447239
    17  N   -0.728273
    18  C    0.307886
    19  C    0.066927
    20  C    0.000722
    21  C    0.371439
    22  C   -0.386395
    23  C   -0.111302
    24  C   -0.237792
    25  N   -0.691855
    26  C    0.344510
    27  C    0.033950
    28  C   -0.031559
    29  C    0.348512
    30  C   -0.366047
    31  C   -0.252453
    32  C   -0.287527
    33  N   -0.679735
    34  C    0.202018
    35  C   -0.009349
    36  C    0.012088
    37  C    0.287654
    38  C   -0.381213
    39  C    0.375996
    40  O   -0.436337
    41  C   -0.327222
    42  C    0.635607
    43  O   -0.506675
    44  O   -0.451443
    45  C   -0.058726
    46  C    0.017379
    47  C   -0.097139
    48  C    0.076573
    49  C   -0.353007
    50  C   -0.188660
    51  C   -0.187169
    52  C   -0.160186
    53  C   -0.091565
    54  C   -0.292078
    55  C   -0.163196
    56  C   -0.170813
    57  C   -0.189180
    58  C   -0.062346
    59  C   -0.276463
    60  C   -0.167933
    61  C   -0.178745
    62  C   -0.133081
    63  C   -0.072644
    64  C   -0.281098
    65  C   -0.305886
    66  H    0.046614
    67  H    0.071250
    68  H    0.105565
    69  H    0.120837
    70  H    0.106304
    71  H    0.096750
    72  H    0.113207
    73  H    0.138195
    74  H    0.118252
    75  H    0.108301
    76  H    0.143587
    77  H    0.137475
    78  H    0.131873
    79  H    0.133311
    80  H    0.119221
    81  H    0.094732
    82  H    0.093999
    83  H    0.108211
    84  H    0.125098
    85  H    0.116020
    86  H    0.111610
    87  H    0.092173
    88  H    0.112282
    89  H    0.109604
    90  H    0.092170
    91  H    0.105564
    92  H    0.135185
    93  H    0.141926
    94  H    0.087897
    95  H    0.156996
    96  H    0.105908
    97  H    0.137160
    98  H    0.125660
    99  H    0.113553
   100  H    0.095752
   101  H    0.064618
   102  H    0.094195
   103  H    0.121751
   104  H    0.136276
   105  H    0.088994
   106  H    0.107158
   107  H    0.106713
   108  H    0.102721
   109  H    0.097991
   110  H    0.084073
   111  H    0.071511
   112  H    0.092921
   113  H    0.116596
   114  H    0.089736
   115  H    0.080278
   116  H    0.076238
   117  H    0.063358
   118  H    0.103136
   119  H    0.074735
   120  H    0.085236
   121  H    0.078020
   122  H    0.115880
   123  H    0.093094
   124  H    0.099718
   125  H    0.094888
   126  H    0.041505
   127  H    0.049701
   128  H    0.087370
   129  H    0.083362
   130  H    0.098114
   131  H    0.075105
   132  H    0.098296
   133  H    0.076203
   134  H    0.123025
   135  H    0.115269
   136  H    0.095304
   137  H    0.075005
 Sum of Mulliken charges =   0.00000

 Dipole moment (field-independent basis, Debye):
    X=              1.3638    Y=              5.7436    Z=             -0.1551  Tot=              5.9053
 Quadrupole moment (field-independent basis, Debye-Ang):
   XX=           -354.0154   YY=           -390.6597   ZZ=           -396.8015
   XY=            -28.0865   XZ=             20.3261   YZ=              2.4563

 Normal termination of Gaussian 09 at Wed Jul  3 22:05:30 2019.
