 Gaussian 16, Revision A.03,
 Gaussian 16:  ES64L-G16RevA.03 25-Dec-2016

 -------------------------------------
 # td=(NStates=1) CAM-B3LYP/6-31G(d,p)
 -------------------------------------

 --
 TD
 --
 Symbolic Z-matrix:
 Charge =  0 Multiplicity = 1

                         Standard orientation:
 ---------------------------------------------------------------------
 Center     Atomic      Atomic             Coordinates (Angstroms)
 Number     Number       Type             X           Y           Z
 ---------------------------------------------------------------------
      1         12           0       -7.109377    0.542988    0.051146
      2          6           0       -4.849789   -1.885847    0.643214
      3          6           0       -4.798916    2.912508    1.160523
      4          6           0       -9.336689    3.161070   -0.355909
      5          6           0       -9.542707   -1.747314   -0.790240
      6          7           0       -5.086233    0.376097    0.733360
      7          6           0       -4.315165   -0.702404    0.812168
      8          6           0       -2.898723   -0.357271    1.341693
      9          6           0       -2.987645    1.079805    1.743868
     10          6           0       -4.429800    1.507942    1.093488
     11          6           0       -3.057761    1.269936    3.245125
     12          6           0       -1.962799   -0.610522    0.225336
     13          6           0       -0.408276   -0.540792    0.440633
     14          6           0        0.497356   -0.623065   -0.711706
     15          8           0        0.155019   -0.998978   -1.808600
     16          8           0        1.796714   -0.637197   -0.239308
     17          7           0       -7.016587    2.624687    0.186391
     18          6           0       -5.974561    3.337203    0.673975
     19          6           0       -6.412286    4.747131    0.734330
     20          6           0       -7.686922    4.879576    0.293324
     21          6           0       -8.073459    3.535529   -0.034405
     22          6           0       -5.494621    5.821477    1.224325
     23          6           0       -8.618493    6.012280    0.224730
     24          6           0       -8.336441    7.207919    0.882370
     25          7           0       -9.073832    0.719162   -0.638194
     26          6           0       -9.827102    1.840041   -0.624343
     27          6           0      -11.159190    1.612612   -1.126615
     28          6           0      -11.164600    0.178297   -1.164430
     29          6           0       -9.935345   -0.335977   -0.871478
     30          6           0      -12.224019    2.498079   -1.479439
     31          6           0      -12.271971   -0.738407   -1.761953
     32          6           0      -12.106066   -1.102133   -3.189017
     33          7           0       -7.226362   -1.399024   -0.191886
     34          6           0       -8.288174   -2.124255   -0.536969
     35          6           0       -7.835570   -3.607924   -0.585954
     36          6           0       -6.514031   -3.460801    0.005586
     37          6           0       -6.181217   -2.137004    0.114746
     38          6           0       -8.662675   -4.692663   -0.961337
     39          6           0       -5.290607   -4.252243    0.275246
     40          8           0       -5.122975   -5.459454    0.079060
     41          6           0       -4.213663   -3.310448    0.719811
     42          6           0       -3.642541   -3.695122    1.953208
     43          8           0       -3.811252   -3.241109    2.982577
     44          8           0       -2.804616   -4.826336    1.879556
     45          6           0       -2.307736   -5.283025    3.118272
     46          6           0        2.775406   -0.674115   -1.287048
     47          6           0        4.116894   -0.431234   -0.611780
     48          6           0        5.142838    0.302760   -1.023606
     49          6           0        5.181912    1.029326   -2.316461
     50          6           0        6.471936    0.428064   -0.185083
     51          6           0        7.576198   -0.276412   -1.000302
     52          6           0        8.888465   -0.463520   -0.133483
     53          6           0       10.206688   -0.577954   -0.917511
     54          6           0       10.118666   -2.012447   -1.583975
     55          6           0       11.349812   -0.431365   -0.042326
     56          6           0       12.738012   -0.463460   -0.702091
     57          6           0       13.961182   -0.102549    0.075896
     58          6           0       15.344363   -0.201647   -0.591655
     59          6           0       15.692174   -1.629050   -0.916232
     60          6           0       16.367016    0.392906    0.410993
     61          6           0       17.771075    0.536511   -0.101504
     62          6           0       18.734009    1.236261    0.776323
     63          6           0       20.218676    1.543824    0.303846
     64          6           0       20.256691    2.572846   -0.831764
     65          6           0       21.028700    1.856406    1.484013
     66          1           0       -3.973641    3.398515    1.309186
     67          1           0      -10.100552    4.100925   -0.306413
     68          1           0      -10.438143   -2.487978   -0.769387
     69          1           0       -2.786747   -1.109300    2.216176
     70          1           0       -2.255954    1.766673    1.281251
     71          1           0       -2.289849    0.932482    3.763874
     72          1           0       -3.341123    2.267241    3.573471
     73          1           0       -4.070992    0.645999    3.518453
     74          1           0       -1.949329   -1.520681   -0.301820
     75          1           0       -2.080202    0.211036   -0.676756
     76          1           0       -0.323314    0.402467    0.981744
     77          1           0       -0.216058   -1.202938    1.117079
     78          1           0       -5.523774    6.854277    0.634142
     79          1           0       -5.592240    5.945126    2.275390
     80          1           0       -4.442679    5.528139    1.096437
     81          1           0       -9.359502    5.926151   -0.442805
     82          1           0       -9.001117    8.003723    0.961609
     83          1           0       -7.518383    7.279652    1.607784
     84          1           0      -11.782045    3.313416   -2.154926
     85          1           0      -13.142845    2.025744   -2.174431
     86          1           0      -12.749227    2.822445   -0.292126
     87          1           0      -12.309166   -1.709969   -1.298710
     88          1           0      -13.304321   -0.295980   -1.745426
     89          1           0      -12.731542   -1.920265   -3.624972
     90          1           0      -12.399620   -0.190238   -3.954169
     91          1           0      -11.173737   -1.580836   -3.368249
     92          1           0       -9.052052   -4.680177   -2.033966
     93          1           0       -7.968619   -5.793634   -0.925069
     94          1           0       -9.537063   -5.113961   -0.077613
     95          1           0       -3.515058   -3.547658   -0.118024
     96          1           0       -1.852653   -4.480278    3.654557
     97          1           0       -3.068620   -5.582455    3.579073
     98          1           0       -1.489372   -5.865904    2.828077
     99          1           0        2.612177   -1.556889   -1.835543
    100          1           0        2.693731    0.341599   -2.008779
    101          1           0        4.502780   -0.892802    0.267287
    102          1           0        4.289858    0.813364   -2.810465
    103          1           0        5.546212    2.110400   -2.339686
    104          1           0        5.844460    0.686730   -3.052452
    105          1           0        6.775443    1.320724    0.046183
    106          1           0        6.525915   -0.124061    0.710617
    107          1           0        7.514206   -1.431616   -1.530249
    108          1           0        8.005824    0.273830   -1.867569
    109          1           0        8.908416    0.454822    0.563538
    110          1           0        8.667575   -1.230142    0.573360
    111          1           0       10.293714    0.154932   -1.842197
    112          1           0        9.160002   -2.172772   -2.057052
    113          1           0       10.909418   -2.161429   -2.253846
    114          1           0       10.054519   -2.778366   -0.674575
    115          1           0       11.353646    0.573724    0.282491
    116          1           0       11.503129   -1.197078    0.836575
    117          1           0       13.132950   -1.549502   -0.924586
    118          1           0       12.663302    0.216044   -1.662975
    119          1           0       13.888871    0.948483    0.335045
    120          1           0       14.107527   -0.655523    1.145199
    121          1           0       15.410496    0.283906   -1.723507
    122          1           0       15.850612   -2.068912    0.049024
    123          1           0       14.823196   -2.044556   -1.535932
    124          1           0       16.658210   -1.924551   -1.366642
    125          1           0       15.926322    1.465153    0.714422
    126          1           0       16.352944   -0.202863    1.241761
    127          1           0       18.120554   -0.518300   -0.046934
    128          1           0       17.686656    1.034408   -1.082667
    129          1           0       18.316713    2.222057    0.758056
    130          1           0       18.666311    0.627737    1.620431
    131          1           0       20.682445    0.553613   -0.040398
    132          1           0       19.842842    3.603581   -0.805140
    133          1           0       21.140567    2.723252   -1.453735
    134          1           0       19.540512    2.209131   -1.595854
    135          1           0       21.220195    0.978659    2.358604
    136          1           0       22.078911    2.112002    1.191089
    137          1           0       20.727833    2.825697    2.065376
 ---------------------------------------------------------------------

 SCF Done:  E(RCAM-B3LYP) =  -2932.55697174     A.U. after   17 cycles

 Excitation energies and oscillator strengths:

 Excited State   1:      Singlet-A      2.1639 eV  572.96 nm  f=0.2297  <S**2>=0.000
     240 -> 242       -0.11442
     240 -> 243        0.24602
     241 -> 242        0.63583
     241 -> 243        0.10805
 This state for optimization and/or second-order correction.
 Total Energy, E(TD-HF/TD-DFT) =  -2932.47744900
 Copying the excited state density for this state as the 1-particle RhoCI density.

 The electronic state is 1-A.
 Alpha  occ. eigenvalues --  -46.84446 -19.26327 -19.23145 -19.22008 -19.21341
 Alpha  occ. eigenvalues --  -19.20084 -14.42104 -14.39901 -14.39387 -14.38498
 Alpha  occ. eigenvalues --  -10.39739 -10.38223 -10.35166 -10.33259 -10.32596
 Alpha  occ. eigenvalues --  -10.30408 -10.30059 -10.29969 -10.29784 -10.29661
 Alpha  occ. eigenvalues --  -10.29344 -10.29336 -10.29181 -10.28779 -10.28678
 Alpha  occ. eigenvalues --  -10.28639 -10.28550 -10.28457 -10.27719 -10.27633
 Alpha  occ. eigenvalues --  -10.27553 -10.27525 -10.27519 -10.27405 -10.27256
 Alpha  occ. eigenvalues --  -10.27208 -10.27157 -10.27091 -10.27056 -10.26697
 Alpha  occ. eigenvalues --  -10.26691 -10.26613 -10.26359 -10.26323 -10.26132
 Alpha  occ. eigenvalues --  -10.25909 -10.25882 -10.25879 -10.25808 -10.25748
 Alpha  occ. eigenvalues --  -10.25493 -10.25483 -10.25415 -10.25357 -10.25325
 Alpha  occ. eigenvalues --  -10.25150 -10.25097 -10.25028 -10.25014 -10.24889
 Alpha  occ. eigenvalues --  -10.24739 -10.24725 -10.24347 -10.24308 -10.23805
 Alpha  occ. eigenvalues --   -3.13505  -1.88218  -1.87715  -1.87706  -1.19993
 Alpha  occ. eigenvalues --   -1.18072  -1.10254  -1.10117  -1.09516  -1.06308
 Alpha  occ. eigenvalues --   -1.05014  -1.03356  -1.02393  -0.94046  -0.91680
 Alpha  occ. eigenvalues --   -0.91370  -0.91075  -0.90204  -0.90053  -0.88850
 Alpha  occ. eigenvalues --   -0.88729  -0.88083  -0.87482  -0.87272  -0.86831
 Alpha  occ. eigenvalues --   -0.85676  -0.85279  -0.84270  -0.83927  -0.82757
 Alpha  occ. eigenvalues --   -0.82093  -0.81950  -0.81425  -0.80654  -0.79128
 Alpha  occ. eigenvalues --   -0.78534  -0.77621  -0.76564  -0.76413  -0.76147
 Alpha  occ. eigenvalues --   -0.75726  -0.75129  -0.74270  -0.74025  -0.71977
 Alpha  occ. eigenvalues --   -0.71604  -0.70319  -0.69288  -0.69009  -0.68516
 Alpha  occ. eigenvalues --   -0.68044  -0.66130  -0.65889  -0.65173  -0.64723
 Alpha  occ. eigenvalues --   -0.63987  -0.63292  -0.62481  -0.62085  -0.62004
 Alpha  occ. eigenvalues --   -0.61237  -0.61091  -0.60861  -0.60470  -0.59866
 Alpha  occ. eigenvalues --   -0.59263  -0.58978  -0.58104  -0.58070  -0.57839
 Alpha  occ. eigenvalues --   -0.56931  -0.56724  -0.56585  -0.55809  -0.55523
 Alpha  occ. eigenvalues --   -0.55075  -0.55005  -0.54917  -0.53741  -0.53487
 Alpha  occ. eigenvalues --   -0.53245  -0.52967  -0.52574  -0.52446  -0.52040
 Alpha  occ. eigenvalues --   -0.51941  -0.51605  -0.51414  -0.51098  -0.51016
 Alpha  occ. eigenvalues --   -0.50679  -0.50466  -0.50343  -0.50257  -0.50043
 Alpha  occ. eigenvalues --   -0.49953  -0.49744  -0.49345  -0.48878  -0.48768
 Alpha  occ. eigenvalues --   -0.48557  -0.48287  -0.47882  -0.47627  -0.47535
 Alpha  occ. eigenvalues --   -0.47056  -0.46783  -0.46749  -0.46423  -0.46210
 Alpha  occ. eigenvalues --   -0.46023  -0.45768  -0.45750  -0.45531  -0.45443
 Alpha  occ. eigenvalues --   -0.44965  -0.44652  -0.44375  -0.44294  -0.44242
 Alpha  occ. eigenvalues --   -0.44078  -0.43836  -0.43634  -0.43488  -0.43368
 Alpha  occ. eigenvalues --   -0.43151  -0.43010  -0.42803  -0.42550  -0.42402
 Alpha  occ. eigenvalues --   -0.42180  -0.41933  -0.41856  -0.41543  -0.40872
 Alpha  occ. eigenvalues --   -0.40626  -0.40602  -0.40584  -0.40510  -0.39851
 Alpha  occ. eigenvalues --   -0.39831  -0.39470  -0.39427  -0.39177  -0.38860
 Alpha  occ. eigenvalues --   -0.38708  -0.38335  -0.38168  -0.37972  -0.37512
 Alpha  occ. eigenvalues --   -0.37289  -0.36880  -0.36551  -0.36392  -0.36291
 Alpha  occ. eigenvalues --   -0.36265  -0.36006  -0.35701  -0.35561  -0.35258
 Alpha  occ. eigenvalues --   -0.34879  -0.34813  -0.34480  -0.34242  -0.33907
 Alpha  occ. eigenvalues --   -0.33789  -0.33280  -0.32595  -0.31430  -0.30274
 Alpha  occ. eigenvalues --   -0.30109  -0.29271  -0.27673  -0.26588  -0.24083
 Alpha  occ. eigenvalues --   -0.21548
 Alpha virt. eigenvalues --   -0.06318  -0.03736   0.01251   0.03201   0.04677
 Alpha virt. eigenvalues --    0.05449   0.06005   0.06624   0.06988   0.07345
 Alpha virt. eigenvalues --    0.08902   0.10097   0.10623   0.10955   0.11416

 Mulliken charges:
               1
     1  Mg   0.813696
     2  C    0.061831
     3  C   -0.158553
     4  C   -0.198322
     5  C   -0.150246
     6  N   -0.628679
     7  C    0.309873
     8  C   -0.148217
     9  C   -0.148219
    10  C    0.271240
    11  C   -0.292948
    12  C   -0.187484
    13  C   -0.275598
    14  C    0.614440
    15  O   -0.453012
    16  O   -0.484660
    17  N   -0.724195
    18  C    0.389944
    19  C   -0.047080
    20  C    0.072994
    21  C    0.291856
    22  C   -0.388301
    23  C   -0.059166
    24  C   -0.245741
    25  N   -0.687682
    26  C    0.275537
    27  C    0.075641
    28  C   -0.018371
    29  C    0.289626
    30  C   -0.364533
    31  C   -0.234774
    32  C   -0.292388
    33  N   -0.758682
    34  C    0.298555
    35  C    0.084149
    36  C   -0.020113
    37  C    0.323718
    38  C   -0.421411
    39  C    0.343075
    40  O   -0.465265
    41  C   -0.313402
    42  C    0.627389
    43  O   -0.422296
    44  O   -0.508650
    45  C   -0.049629
    46  C    0.028154
    47  C   -0.122291
    48  C    0.112210
    49  C   -0.373286
    50  C   -0.222350
    51  C   -0.175948
    52  C   -0.189454
    53  C   -0.062643
    54  C   -0.302959
    55  C   -0.139314
    56  C   -0.184438
    57  C   -0.159320
    58  C   -0.053895
    59  C   -0.305126
    60  C   -0.162668
    61  C   -0.185830
    62  C   -0.151113
    63  C   -0.034105
    64  C   -0.344260
    65  C   -0.287045
    66  H    0.073695
    67  H    0.088958
    68  H    0.122289
    69  H    0.132840
    70  H    0.104905
    71  H    0.124623
    72  H    0.114536
    73  H    0.096219
    74  H    0.129052
    75  H    0.089350
    76  H    0.120399
    77  H    0.150468
    78  H    0.112338
    79  H    0.132978
    80  H    0.107177
    81  H    0.100030
    82  H    0.107835
    83  H    0.110685
    84  H    0.120232
    85  H    0.100814
    86  H    0.084038
    87  H    0.097752
    88  H    0.094328
    89  H    0.093161
    90  H    0.076004
    91  H    0.108836
    92  H    0.138543
    93  H    0.120166
    94  H    0.107403
    95  H    0.188563
    96  H    0.106228
    97  H    0.126693
    98  H    0.122501
    99  H    0.145098
   100  H    0.097448
   101  H    0.085054
   102  H    0.103347
   103  H    0.106238
   104  H    0.133541
   105  H    0.120310
   106  H    0.107879
   107  H    0.068689
   108  H    0.095317
   109  H    0.064649
   110  H    0.105169
   111  H    0.075045
   112  H    0.100086
   113  H    0.112023
   114  H    0.080977
   115  H    0.100341
   116  H    0.085501
   117  H    0.080043
   118  H    0.073179
   119  H    0.089552
   120  H    0.066142
   121  H    0.056917
   122  H    0.091343
   123  H    0.097838
   124  H    0.105646
   125  H    0.063054
   126  H    0.095457
   127  H    0.080852
   128  H    0.089482
   129  H    0.092615
   130  H    0.090909
   131  H    0.083810
   132  H    0.105637
   133  H    0.110419
   134  H    0.103045
   135  H    0.070910
   136  H    0.095528
   137  H    0.087008
 Sum of Mulliken charges =  -0.00000

 Dipole moment (field-independent basis, Debye):
    X=              2.0969    Y=              4.5713    Z=              0.9722  Tot=              5.1224
 Quadrupole moment (field-independent basis, Debye-Ang):
   XX=           -358.3709   YY=           -395.9815   ZZ=           -397.1638
   XY=            -14.2353   XZ=             -1.4313   YZ=             -1.4181

 Normal termination of Gaussian 16 at Wed Jun 26 22:53:19 2019.
