 Gaussian 16, Revision A.03,
 Gaussian 16:  ES64L-G16RevA.03 25-Dec-2016

 ----------------------------------------------------------------------
 # td=(NStates=1) iop(3/107=0140000000,3/108=0140000000) CAM-B3LYP/6-31
 G(d,p)
 ----------------------------------------------------------------------

 --
 TD
 --
 Symbolic Z-matrix:
 Charge =  0 Multiplicity = 1

                         Standard orientation:
 ---------------------------------------------------------------------
 Center     Atomic      Atomic             Coordinates (Angstroms)
 Number     Number       Type             X           Y           Z
 ---------------------------------------------------------------------
      1         12           0       -7.155801    0.635206   -0.104227
      2          6           0       -4.869257   -2.016884    0.436250
      3          6           0       -4.800455    2.837716    1.180919
      4          6           0       -9.468428    3.095781   -0.435210
      5          6           0       -9.517029   -1.741379   -0.764941
      6          7           0       -5.106546    0.391790    0.745169
      7          6           0       -4.382981   -0.787355    0.802266
      8          6           0       -2.914675   -0.362573    1.244076
      9          6           0       -3.087488    1.105307    1.646248
     10          6           0       -4.393369    1.489038    1.107832
     11          6           0       -3.038957    1.170256    3.188497
     12          6           0       -1.860373   -0.539426    0.082125
     13          6           0       -0.427628   -0.255474    0.378611
     14          6           0        0.475338   -0.623098   -0.656937
     15          8           0        0.291503   -0.918254   -1.763776
     16          8           0        1.724128   -0.461393   -0.265081
     17          7           0       -7.140213    2.604333    0.377369
     18          6           0       -6.036055    3.351055    0.869453
     19          6           0       -6.488950    4.720399    0.846761
     20          6           0       -7.832691    4.825802    0.418215
     21          6           0       -8.221101    3.494689    0.133920
     22          6           0       -5.612013    5.873146    1.381300
     23          6           0       -8.553360    6.078527    0.077125
     24          6           0       -8.415639    7.324592    0.631714
     25          7           0       -9.192635    0.691059   -0.533805
     26          6           0      -10.008735    1.845789   -0.748441
     27          6           0      -11.315047    1.438144   -1.121347
     28          6           0      -11.336985    0.064794   -1.260382
     29          6           0      -10.003417   -0.393920   -0.842826
     30          6           0      -12.443396    2.369783   -1.488136
     31          6           0      -12.444405   -0.845950   -1.633363
     32          6           0      -12.263998   -1.338263   -3.081842
     33          7           0       -7.262433   -1.393873   -0.112512
     34          6           0       -8.224644   -2.218338   -0.517678
     35          6           0       -7.732840   -3.679419   -0.492400
     36          6           0       -6.420899   -3.548875   -0.247370
     37          6           0       -6.159372   -2.165433    0.046098
     38          6           0       -8.589379   -4.886334   -0.823427
     39          6           0       -5.237313   -4.273287    0.130382
     40          8           0       -5.148964   -5.515434    0.204969
     41          6           0       -4.198679   -3.302417    0.521989
     42          6           0       -3.553154   -3.671006    1.877798
     43          8           0       -3.714823   -3.261556    2.956718
     44          8           0       -2.674641   -4.684809    1.712591
     45          6           0       -2.124025   -5.290848    2.820677
     46          6           0        2.812872   -0.690485   -1.208839
     47          6           0        4.153478   -0.308622   -0.501216
     48          6           0        5.179235    0.496475   -0.952678
     49          6           0        5.167472    1.105089   -2.344966
     50          6           0        6.456381    0.581319   -0.152406
     51          6           0        7.643461   -0.111864   -0.844736
     52          6           0        8.952953    0.026546   -0.037002
     53          6           0       10.170258   -0.489126   -0.733324
     54          6           0        9.972343   -1.929524   -1.076915
     55          6           0       11.413262   -0.240961    0.267804
     56          6           0       12.812973   -0.692184   -0.475602
     57          6           0       14.007163   -0.148882    0.308475
     58          6           0       15.379522   -0.246122   -0.450080
     59          6           0       15.698217   -1.695299   -0.709256
     60          6           0       16.474299    0.510517    0.474820
     61          6           0       17.816740    0.559520   -0.272599
     62          6           0       18.892530    1.285557    0.706311
     63          6           0       20.325953    1.320416    0.069698
     64          6           0       20.434370    1.945796   -1.345013
     65          6           0       21.292335    1.997007    1.050881
     66          1           0       -4.170708    3.528250    1.540062
     67          1           0      -10.201036    3.983255   -0.673504
     68          1           0      -10.151864   -2.494257   -1.196295
     69          1           0       -2.562168   -1.027679    2.022942
     70          1           0       -2.400189    1.813364    0.988443
     71          1           0       -1.953570    1.123009    3.504139
     72          1           0       -3.650637    2.163517    3.401691
     73          1           0       -3.558220    0.455355    3.769048
     74          1           0       -1.909876   -1.512209   -0.366752
     75          1           0       -2.199955   -0.067820   -0.868215
     76          1           0       -0.560159    0.754691    0.589485
     77          1           0       -0.313647   -0.763537    1.221306
     78          1           0       -5.718084    6.669129    0.741107
     79          1           0       -5.881372    6.027512    2.511490
     80          1           0       -4.507149    5.655744    1.191646
     81          1           0       -9.262542    6.055071   -0.885005
     82          1           0       -9.040312    8.181027    0.342644
     83          1           0       -7.715633    7.208595    1.508895
     84          1           0      -12.324689    3.168729   -2.412987
     85          1           0      -13.451404    1.842534   -1.393405
     86          1           0      -12.321126    3.117946   -0.541938
     87          1           0      -12.478587   -1.688063   -1.080326
     88          1           0      -13.301080   -0.183681   -1.663163
     89          1           0      -13.214820   -1.992430   -3.326663
     90          1           0      -12.454179   -0.403238   -3.788726
     91          1           0      -11.422657   -1.722091   -3.192943
     92          1           0       -8.877757   -5.144202   -1.919762
     93          1           0       -8.077340   -5.809826   -0.440680
     94          1           0       -9.401837   -4.889116   -0.261198
     95          1           0       -3.324953   -3.441830   -0.159112
     96          1           0       -1.567394   -4.515766    3.264195
     97          1           0       -2.651302   -5.642987    3.668855
     98          1           0       -1.560114   -6.042923    2.314304
     99          1           0        2.738021   -1.687789   -1.503915
    100          1           0        2.486198   -0.072396   -2.163970
    101          1           0        4.254125   -0.799398    0.542129
    102          1           0        4.287536    1.282590   -2.815734
    103          1           0        5.879952    2.109470   -2.441083
    104          1           0        5.645620    0.429949   -3.212293
    105          1           0        6.703751    1.657099   -0.056507
    106          1           0        6.372494    0.073650    0.901013
    107          1           0        7.333089   -1.340375   -0.848939
    108          1           0        7.841902    0.299272   -1.821087
    109          1           0        8.757602    1.029768    0.254261
    110          1           0        8.703164   -0.666968    0.871575
    111          1           0       10.262846    0.118343   -1.664860
    112          1           0        9.366404   -2.183777   -1.947054
    113          1           0       11.170849   -2.603180   -1.185648
    114          1           0        9.419991   -2.214404   -0.169234
    115          1           0       11.509645    0.811382    0.404840
    116          1           0       11.341140   -0.653330    1.031615
    117          1           0       12.900019   -1.725451   -0.612170
    118          1           0       12.928369   -0.130022   -1.311142
    119          1           0       13.829226    0.933179    0.579968
    120          1           0       14.173499   -0.730771    1.201299
    121          1           0       15.270058    0.191347   -1.439194
    122          1           0       15.839633   -2.381652   -0.008336
    123          1           0       14.840420   -1.998443   -1.174715
    124          1           0       16.679091   -1.909234   -1.413363
    125          1           0       16.256847    1.541124    0.844926
    126          1           0       16.621187    0.123243    1.345877
    127          1           0       18.161582   -0.488596   -0.236655
    128          1           0       17.702567    0.993106   -1.354413
    129          1           0       18.814473    2.165616    0.898794
    130          1           0       18.917766    0.559464    1.651152
    131          1           0       20.737074    0.254097   -0.116316
    132          1           0       20.189616    2.985578   -1.286417
    133          1           0       21.494039    1.854421   -1.894642
    134          1           0       19.662770    1.529092   -1.983543
    135          1           0       21.254258    1.780716    2.254521
    136          1           0       22.245007    1.923689    0.692702
    137          1           0       21.232786    3.071176    1.042940
 ---------------------------------------------------------------------

 SCF Done:  E(RCAM-B3LYP) =  -2933.40363939     A.U. after   16 cycles

 Excitation energies and oscillator strengths:

 Excited State   1:      Singlet-A      2.0418 eV  607.23 nm  f=0.2193  <S**2>=0.000
     240 -> 243       -0.25629
     241 -> 242        0.64796
 This state for optimization and/or second-order correction.
 Total Energy, E(TD-HF/TD-DFT) =  -2933.32860508
 Copying the excited state density for this state as the 1-particle RhoCI density.

 The electronic state is 1-A.
 Alpha  occ. eigenvalues --  -46.80480 -19.21006 -19.20229 -19.17334 -19.15947
 Alpha  occ. eigenvalues --  -19.15815 -14.37938 -14.36090 -14.34996 -14.34838
 Alpha  occ. eigenvalues --  -10.34681 -10.33093 -10.30297 -10.28117 -10.26924
 Alpha  occ. eigenvalues --  -10.26198 -10.25648 -10.25188 -10.25101 -10.25065
 Alpha  occ. eigenvalues --  -10.24865 -10.24812 -10.24741 -10.24726 -10.24543
 Alpha  occ. eigenvalues --  -10.24421 -10.24296 -10.23956 -10.23827 -10.23819
 Alpha  occ. eigenvalues --  -10.23717 -10.23330 -10.23311 -10.23000 -10.22777
 Alpha  occ. eigenvalues --  -10.22633 -10.22625 -10.22565 -10.22472 -10.22439
 Alpha  occ. eigenvalues --  -10.22358 -10.22350 -10.22220 -10.22105 -10.22093
 Alpha  occ. eigenvalues --  -10.21962 -10.21873 -10.21742 -10.21737 -10.21635
 Alpha  occ. eigenvalues --  -10.21378 -10.21227 -10.21153 -10.21074 -10.20985
 Alpha  occ. eigenvalues --  -10.20917 -10.20873 -10.20585 -10.20170 -10.20094
 Alpha  occ. eigenvalues --  -10.19699 -10.19509 -10.19362 -10.19202 -10.19116
 Alpha  occ. eigenvalues --   -3.08928  -1.83860  -1.83380  -1.83343  -1.15403
 Alpha  occ. eigenvalues --   -1.14987  -1.06232  -1.04805  -1.04796  -1.00487
 Alpha  occ. eigenvalues --   -0.98487  -0.96374  -0.95407  -0.90602  -0.86515
 Alpha  occ. eigenvalues --   -0.86219  -0.84711  -0.84374  -0.83957  -0.83886
 Alpha  occ. eigenvalues --   -0.82907  -0.82824  -0.82435  -0.82293  -0.81532
 Alpha  occ. eigenvalues --   -0.80051  -0.79679  -0.79016  -0.78126  -0.77480
 Alpha  occ. eigenvalues --   -0.76921  -0.76668  -0.76312  -0.75430  -0.73870
 Alpha  occ. eigenvalues --   -0.73579  -0.72802  -0.71381  -0.71265  -0.70996
 Alpha  occ. eigenvalues --   -0.70651  -0.70605  -0.70427  -0.68895  -0.68314
 Alpha  occ. eigenvalues --   -0.67849  -0.66050  -0.65671  -0.65175  -0.64830
 Alpha  occ. eigenvalues --   -0.62301  -0.61906  -0.61449  -0.61192  -0.60939
 Alpha  occ. eigenvalues --   -0.60190  -0.59743  -0.59196  -0.59148  -0.58715
 Alpha  occ. eigenvalues --   -0.58105  -0.57031  -0.56435  -0.55881  -0.55534
 Alpha  occ. eigenvalues --   -0.54974  -0.54605  -0.54370  -0.54010  -0.53553
 Alpha  occ. eigenvalues --   -0.53454  -0.52030  -0.51937  -0.51468  -0.51319
 Alpha  occ. eigenvalues --   -0.51059  -0.50867  -0.50237  -0.49764  -0.49670
 Alpha  occ. eigenvalues --   -0.49610  -0.49207  -0.48725  -0.48489  -0.48374
 Alpha  occ. eigenvalues --   -0.48091  -0.47888  -0.47345  -0.47225  -0.46789
 Alpha  occ. eigenvalues --   -0.46697  -0.46317  -0.46213  -0.46150  -0.45956
 Alpha  occ. eigenvalues --   -0.45657  -0.45342  -0.45195  -0.44780  -0.44715
 Alpha  occ. eigenvalues --   -0.44559  -0.44277  -0.43959  -0.43931  -0.43708
 Alpha  occ. eigenvalues --   -0.43659  -0.43543  -0.43344  -0.42725  -0.42482
 Alpha  occ. eigenvalues --   -0.42236  -0.42068  -0.42041  -0.41724  -0.41639
 Alpha  occ. eigenvalues --   -0.41477  -0.41224  -0.41096  -0.40856  -0.40743
 Alpha  occ. eigenvalues --   -0.40302  -0.40093  -0.39999  -0.39869  -0.39725
 Alpha  occ. eigenvalues --   -0.39657  -0.39502  -0.39427  -0.39153  -0.38804
 Alpha  occ. eigenvalues --   -0.38600  -0.38593  -0.38537  -0.38054  -0.38015
 Alpha  occ. eigenvalues --   -0.37785  -0.37730  -0.37330  -0.37146  -0.37047
 Alpha  occ. eigenvalues --   -0.36771  -0.36547  -0.36534  -0.36356  -0.36035
 Alpha  occ. eigenvalues --   -0.35920  -0.35801  -0.35493  -0.35252  -0.34923
 Alpha  occ. eigenvalues --   -0.34573  -0.34497  -0.34248  -0.34014  -0.33640
 Alpha  occ. eigenvalues --   -0.33337  -0.32997  -0.32914  -0.32801  -0.32310
 Alpha  occ. eigenvalues --   -0.32206  -0.31928  -0.31490  -0.31008  -0.30399
 Alpha  occ. eigenvalues --   -0.30168  -0.29914  -0.29176  -0.28824  -0.28212
 Alpha  occ. eigenvalues --   -0.27187  -0.26900  -0.25468  -0.24295  -0.21947
 Alpha  occ. eigenvalues --   -0.19999
 Alpha virt. eigenvalues --   -0.07026  -0.04551  -0.00925   0.02157   0.02905
 Alpha virt. eigenvalues --    0.03003   0.04100   0.04772   0.05496   0.05856
 Alpha virt. eigenvalues --    0.07339   0.08547   0.08653   0.09095   0.09437

 Mulliken charges:
               1
     1  Mg   0.828537
     2  C    0.099776
     3  C   -0.153664
     4  C   -0.197374
     5  C   -0.193188
     6  N   -0.638374
     7  C    0.287989
     8  C   -0.153534
     9  C   -0.141750
    10  C    0.337641
    11  C   -0.304860
    12  C   -0.228610
    13  C   -0.235105
    14  C    0.592070
    15  O   -0.456857
    16  O   -0.475416
    17  N   -0.746587
    18  C    0.347209
    19  C   -0.037989
    20  C    0.041720
    21  C    0.296279
    22  C   -0.375820
    23  C   -0.078412
    24  C   -0.249042
    25  N   -0.689258
    26  C    0.305265
    27  C    0.036294
    28  C    0.039969
    29  C    0.291314
    30  C   -0.369371
    31  C   -0.231993
    32  C   -0.292446
    33  N   -0.718008
    34  C    0.274343
    35  C    0.006755
    36  C    0.058907
    37  C    0.294282
    38  C   -0.386503
    39  C    0.359727
    40  O   -0.482200
    41  C   -0.314550
    42  C    0.597604
    43  O   -0.441751
    44  O   -0.435147
    45  C   -0.078586
    46  C    0.017120
    47  C   -0.141110
    48  C    0.155130
    49  C   -0.359766
    50  C   -0.236894
    51  C   -0.167996
    52  C   -0.169426
    53  C   -0.056098
    54  C   -0.277963
    55  C   -0.137739
    56  C   -0.194523
    57  C   -0.188633
    58  C   -0.065430
    59  C   -0.308318
    60  C   -0.161771
    61  C   -0.186640
    62  C   -0.144923
    63  C   -0.060874
    64  C   -0.316432
    65  C   -0.312678
    66  H    0.066054
    67  H    0.077026
    68  H    0.074071
    69  H    0.109714
    70  H    0.101024
    71  H    0.108661
    72  H    0.090270
    73  H    0.145484
    74  H    0.103289
    75  H    0.106810
    76  H    0.145954
    77  H    0.137399
    78  H    0.137173
    79  H    0.122832
    80  H    0.097290
    81  H    0.077969
    82  H    0.113270
    83  H    0.098627
    84  H    0.113465
    85  H    0.116093
    86  H    0.101282
    87  H    0.119687
    88  H    0.097269
    89  H    0.086945
    90  H    0.090544
    91  H    0.122081
    92  H    0.122502
    93  H    0.140600
    94  H    0.137235
    95  H    0.173474
    96  H    0.110549
    97  H    0.130291
    98  H    0.124805
    99  H    0.135408
   100  H    0.109786
   101  H    0.089155
   102  H    0.131332
   103  H    0.083329
   104  H    0.106409
   105  H    0.098322
   106  H    0.093924
   107  H    0.061641
   108  H    0.099040
   109  H    0.095619
   110  H    0.072861
   111  H    0.076806
   112  H    0.118140
   113  H    0.043877
   114  H    0.101525
   115  H    0.093225
   116  H    0.088674
   117  H    0.102488
   118  H    0.103172
   119  H    0.080529
   120  H    0.088241
   121  H    0.084390
   122  H    0.113026
   123  H    0.107431
   124  H    0.069942
   125  H    0.073166
   126  H    0.096961
   127  H    0.101502
   128  H    0.081948
   129  H    0.096426
   130  H    0.077189
   131  H    0.071736
   132  H    0.102270
   133  H    0.087489
   134  H    0.108277
   135  H    0.075190
   136  H    0.108340
   137  H    0.097153
 Sum of Mulliken charges =  -0.00000

 Dipole moment (field-independent basis, Debye):
    X=              1.1528    Y=              3.0604    Z=             -0.6415  Tot=              3.3327
 Quadrupole moment (field-independent basis, Debye-Ang):
   XX=           -370.6266   YY=           -396.1283   ZZ=           -396.4472
   XY=             -7.6469   XZ=             17.0522   YZ=             -4.3934

 Normal termination of Gaussian 16 at Thu Sep  5 05:28:51 2019.
