 Gaussian 16, Revision A.03,
 Gaussian 16:  ES64L-G16RevA.03 25-Dec-2016

 ----------------------------------------------------------------------
 # td=(NStates=1) iop(3/107=0140000000,3/108=0140000000) CAM-B3LYP/6-31
 G(d,p)
 ----------------------------------------------------------------------

 --
 TD
 --
 Symbolic Z-matrix:
 Charge =  0 Multiplicity = 1

                         Standard orientation:
 ---------------------------------------------------------------------
 Center     Atomic      Atomic             Coordinates (Angstroms)
 Number     Number       Type             X           Y           Z
 ---------------------------------------------------------------------
      1         12           0       -7.101788    0.601205    0.051642
      2          6           0       -4.853136   -1.924090    0.523741
      3          6           0       -4.833471    2.902948    1.177216
      4          6           0       -9.402035    3.051776   -0.500172
      5          6           0       -9.537718   -1.685091   -0.890894
      6          7           0       -5.164227    0.504266    0.725963
      7          6           0       -4.310143   -0.701087    0.821653
      8          6           0       -2.911829   -0.381935    1.243038
      9          6           0       -3.060708    1.146744    1.723947
     10          6           0       -4.386305    1.566357    1.175957
     11          6           0       -2.974729    1.229192    3.198248
     12          6           0       -1.971171   -0.598755    0.139557
     13          6           0       -0.459835   -0.582112    0.553233
     14          6           0        0.480125   -0.821229   -0.502306
     15          8           0        0.192009   -1.113654   -1.673336
     16          8           0        1.789238   -0.475404   -0.098002
     17          7           0       -7.077012    2.575928    0.394839
     18          6           0       -6.091729    3.338547    0.843536
     19          6           0       -6.444205    4.822638    0.809606
     20          6           0       -7.805346    4.824427    0.323940
     21          6           0       -8.171722    3.454196   -0.008237
     22          6           0       -5.514658    5.881515    1.253890
     23          6           0       -8.685952    6.026187    0.136588
     24          6           0       -8.436400    7.188957    0.688835
     25          7           0       -9.104255    0.719311   -0.467499
     26          6           0       -9.813840    1.747585   -0.761246
     27          6           0      -11.170228    1.545798   -1.177809
     28          6           0      -11.225258    0.143319   -1.398501
     29          6           0       -9.955013   -0.301018   -0.845074
     30          6           0      -12.290929    2.562845   -1.412252
     31          6           0      -12.406405   -0.746285   -1.701366
     32          6           0      -12.379649   -1.057899   -3.286017
     33          7           0       -7.289497   -1.384980   -0.328024
     34          6           0       -8.322094   -2.205196   -0.545856
     35          6           0       -7.825912   -3.587962   -0.514776
     36          6           0       -6.538791   -3.514673   -0.101304
     37          6           0       -6.191944   -2.139262   -0.007883
     38          6           0       -8.661639   -4.811396   -0.904972
     39          6           0       -5.385312   -4.273996    0.208803
     40          8           0       -5.111752   -5.502685    0.296808
     41          6           0       -4.159277   -3.176164    0.561858
     42          6           0       -3.636406   -3.591270    1.918517
     43          8           0       -3.972569   -3.083199    2.967212
     44          8           0       -2.796804   -4.693194    1.759024
     45          6           0       -2.319042   -5.309875    2.992449
     46          6           0        2.754861   -0.744407   -1.126466
     47          6           0        4.058231   -0.543805   -0.498262
     48          6           0        5.130513    0.173386   -1.057618
     49          6           0        5.120650    1.039713   -2.242288
     50          6           0        6.468662    0.126022   -0.246428
     51          6           0        7.734495   -0.404651   -0.839483
     52          6           0        9.010424   -0.303781   -0.104117
     53          6           0       10.274830   -0.671972   -0.936574
     54          6           0       10.289576   -2.198098   -1.416646
     55          6           0       11.409710   -0.375521   -0.073879
     56          6           0       12.879965   -0.439001   -0.652088
     57          6           0       14.001848    0.001182    0.195001
     58          6           0       15.413820   -0.063683   -0.555165
     59          6           0       15.754753   -1.555420   -0.880518
     60          6           0       16.406957    0.506810    0.443981
     61          6           0       17.876780    0.614838   -0.172242
     62          6           0       18.947898    1.335463    0.692274
     63          6           0       20.320660    1.446081    0.210807
     64          6           0       20.361677    2.342423   -1.043909
     65          6           0       21.281552    1.900752    1.280378
     66          1           0       -4.105147    3.485065    1.485753
     67          1           0      -10.119241    3.651296   -0.673916
     68          1           0      -10.398006   -2.473796   -1.134012
     69          1           0       -2.798001   -1.210272    2.133096
     70          1           0       -2.361906    1.715125    1.176770
     71          1           0       -1.881408    1.094939    3.643280
     72          1           0       -3.300796    2.213693    3.773472
     73          1           0       -3.640940    0.453251    3.577969
     74          1           0       -2.298942   -1.473382   -0.432802
     75          1           0       -2.223450    0.109340   -0.538040
     76          1           0       -0.125235    0.431998    1.122661
     77          1           0       -0.273196   -1.219362    1.452928
     78          1           0       -5.859590    6.916579    0.688309
     79          1           0       -5.704603    6.121023    2.212383
     80          1           0       -4.411202    5.587292    1.140383
     81          1           0       -9.493471    5.838484   -0.592757
     82          1           0       -9.118177    7.918647    0.399816
     83          1           0       -7.604258    7.448196    1.222709
     84          1           0      -12.374356    3.222413   -2.433959
     85          1           0      -13.247732    2.025738   -1.618636
     86          1           0      -12.473946    3.273443   -0.622360
     87          1           0      -12.337000   -1.831133   -1.169639
     88          1           0      -13.250940   -0.319370   -1.337400
     89          1           0      -13.366119   -1.634811   -3.461395
     90          1           0      -12.588521    0.070859   -3.788119
     91          1           0      -11.429840   -1.641723   -3.596759
     92          1           0       -8.761118   -4.946733   -1.967073
     93          1           0       -8.137485   -5.727277   -0.629870
     94          1           0       -9.657628   -4.787121   -0.304608
     95          1           0       -3.447058   -3.438451   -0.173848
     96          1           0       -1.607692   -4.726089    3.683941
     97          1           0       -3.077759   -5.688828    3.675546
     98          1           0       -1.505657   -6.095500    2.484810
     99          1           0        2.635246   -1.827387   -1.560520
    100          1           0        2.652773   -0.039986   -1.981422
    101          1           0        4.211557   -0.930375    0.600931
    102          1           0        4.120053    1.236062   -2.645406
    103          1           0        5.341678    2.047876   -1.660984
    104          1           0        6.020783    0.939574   -3.056501
    105          1           0        6.885355    1.177463    0.379499
    106          1           0        6.334230   -0.174409    0.798624
    107          1           0        7.524815   -1.399614   -1.208798
    108          1           0        8.095809    0.222236   -1.730207
    109          1           0        9.085650    0.805283    0.298594
    110          1           0        9.021725   -0.774111    0.893402
    111          1           0       10.220870    0.017625   -1.635587
    112          1           0        9.461828   -2.311084   -2.243093
    113          1           0       11.019148   -2.474511   -1.879816
    114          1           0       10.159598   -2.864161   -0.555025
    115          1           0       11.021364    0.683364    0.246467
    116          1           0       11.283278   -0.991699    0.874468
    117          1           0       13.030702   -1.424896   -1.109627
    118          1           0       12.784269    0.305874   -1.588545
    119          1           0       13.834903    1.019341    0.655419
    120          1           0       14.161417   -0.747433    1.151300
    121          1           0       15.536649    0.489560   -1.580719
    122          1           0       15.942514   -2.366836   -0.170030
    123          1           0       15.129528   -2.023455   -1.776910
    124          1           0       16.774726   -1.487371   -1.222449
    125          1           0       16.148670    1.587260    0.659055
    126          1           0       16.492195   -0.041152    1.495141
    127          1           0       18.252735   -0.500857   -0.583559
    128          1           0       17.729483    1.300522   -1.135786
    129          1           0       18.465368    2.324520    0.838921
    130          1           0       18.658883    0.800125    1.717889
    131          1           0       20.721215    0.506755   -0.128847
    132          1           0       19.992768    3.349841   -0.825768
    133          1           0       21.398487    2.572365   -1.429325
    134          1           0       19.995340    1.968659   -2.087299
    135          1           0       21.239980    1.245236    2.082689
    136          1           0       22.245362    2.086789    0.886490
    137          1           0       21.143912    2.898012    1.632166
 ---------------------------------------------------------------------

 SCF Done:  E(RCAM-B3LYP) =  -2933.47799934     A.U. after   16 cycles

 Excitation energies and oscillator strengths:

 Excited State   1:      Singlet-A      2.1163 eV  585.85 nm  f=0.2256  <S**2>=0.000
     240 -> 243        0.23805
     241 -> 242        0.65768
 This state for optimization and/or second-order correction.
 Total Energy, E(TD-HF/TD-DFT) =  -2933.40022654
 Copying the excited state density for this state as the 1-particle RhoCI density.

 The electronic state is 1-A.
 Alpha  occ. eigenvalues --  -46.79483 -19.21867 -19.21865 -19.17407 -19.16858
 Alpha  occ. eigenvalues --  -19.15934 -14.37477 -14.35500 -14.35285 -14.35072
 Alpha  occ. eigenvalues --  -10.34928 -10.34254 -10.30683 -10.28135 -10.27535
 Alpha  occ. eigenvalues --  -10.26551 -10.26096 -10.25500 -10.25452 -10.25189
 Alpha  occ. eigenvalues --  -10.24985 -10.24753 -10.24301 -10.24289 -10.24243
 Alpha  occ. eigenvalues --  -10.24090 -10.24079 -10.23994 -10.23564 -10.23518
 Alpha  occ. eigenvalues --  -10.23512 -10.23503 -10.23497 -10.23301 -10.23236
 Alpha  occ. eigenvalues --  -10.23223 -10.23036 -10.23016 -10.22975 -10.22865
 Alpha  occ. eigenvalues --  -10.22860 -10.22741 -10.22581 -10.22501 -10.22496
 Alpha  occ. eigenvalues --  -10.22463 -10.22267 -10.22175 -10.22128 -10.22029
 Alpha  occ. eigenvalues --  -10.21597 -10.21523 -10.21285 -10.21166 -10.21040
 Alpha  occ. eigenvalues --  -10.21007 -10.20864 -10.20772 -10.20629 -10.20477
 Alpha  occ. eigenvalues --  -10.20473 -10.20372 -10.19967 -10.19358 -10.18660
 Alpha  occ. eigenvalues --   -3.08217  -1.83151  -1.82720  -1.82609  -1.11389
 Alpha  occ. eigenvalues --   -1.11103  -1.03973  -1.03608  -1.03262  -1.00518
 Alpha  occ. eigenvalues --   -0.99425  -0.97210  -0.95824  -0.88141  -0.86156
 Alpha  occ. eigenvalues --   -0.85806  -0.85002  -0.84409  -0.84265  -0.83624
 Alpha  occ. eigenvalues --   -0.83294  -0.83163  -0.83039  -0.81708  -0.81380
 Alpha  occ. eigenvalues --   -0.80147  -0.79408  -0.79238  -0.78166  -0.77561
 Alpha  occ. eigenvalues --   -0.76889  -0.75849  -0.75585  -0.74875  -0.74038
 Alpha  occ. eigenvalues --   -0.73592  -0.72279  -0.72200  -0.71456  -0.70890
 Alpha  occ. eigenvalues --   -0.70405  -0.70235  -0.69764  -0.68688  -0.67599
 Alpha  occ. eigenvalues --   -0.66987  -0.66006  -0.64991  -0.64615  -0.64194
 Alpha  occ. eigenvalues --   -0.63171  -0.61412  -0.61056  -0.60707  -0.60222
 Alpha  occ. eigenvalues --   -0.60184  -0.59158  -0.58724  -0.58092  -0.57783
 Alpha  occ. eigenvalues --   -0.57447  -0.56705  -0.56302  -0.55802  -0.54958
 Alpha  occ. eigenvalues --   -0.54577  -0.54071  -0.53921  -0.53181  -0.52589
 Alpha  occ. eigenvalues --   -0.52047  -0.51481  -0.51433  -0.51035  -0.50616
 Alpha  occ. eigenvalues --   -0.50113  -0.49989  -0.49467  -0.49182  -0.48961
 Alpha  occ. eigenvalues --   -0.48627  -0.48406  -0.48183  -0.48082  -0.47645
 Alpha  occ. eigenvalues --   -0.47274  -0.47110  -0.47041  -0.47036  -0.46747
 Alpha  occ. eigenvalues --   -0.46555  -0.46286  -0.46019  -0.45972  -0.45814
 Alpha  occ. eigenvalues --   -0.45594  -0.45154  -0.44945  -0.44536  -0.44453
 Alpha  occ. eigenvalues --   -0.44292  -0.44161  -0.43966  -0.43703  -0.43649
 Alpha  occ. eigenvalues --   -0.43358  -0.43229  -0.43205  -0.42891  -0.42562
 Alpha  occ. eigenvalues --   -0.42454  -0.42274  -0.42002  -0.41775  -0.41459
 Alpha  occ. eigenvalues --   -0.41324  -0.41099  -0.41011  -0.40913  -0.40788
 Alpha  occ. eigenvalues --   -0.40602  -0.40474  -0.40409  -0.40081  -0.39780
 Alpha  occ. eigenvalues --   -0.39706  -0.39500  -0.39415  -0.39000  -0.38813
 Alpha  occ. eigenvalues --   -0.38520  -0.38451  -0.38120  -0.37918  -0.37795
 Alpha  occ. eigenvalues --   -0.37476  -0.37384  -0.37342  -0.37196  -0.37107
 Alpha  occ. eigenvalues --   -0.36606  -0.36320  -0.36146  -0.35826  -0.35756
 Alpha  occ. eigenvalues --   -0.35735  -0.35499  -0.35307  -0.34705  -0.34600
 Alpha  occ. eigenvalues --   -0.34461  -0.34253  -0.34075  -0.33848  -0.33224
 Alpha  occ. eigenvalues --   -0.32996  -0.32910  -0.32852  -0.32782  -0.32452
 Alpha  occ. eigenvalues --   -0.32338  -0.31995  -0.31099  -0.30928  -0.30709
 Alpha  occ. eigenvalues --   -0.30572  -0.30231  -0.29659  -0.28462  -0.27515
 Alpha  occ. eigenvalues --   -0.26257  -0.26115  -0.25635  -0.24816  -0.21726
 Alpha  occ. eigenvalues --   -0.20156
 Alpha virt. eigenvalues --   -0.06763  -0.03894  -0.00655   0.01822   0.02366
 Alpha virt. eigenvalues --    0.02900   0.03802   0.04686   0.04857   0.05319
 Alpha virt. eigenvalues --    0.06379   0.08293   0.09303   0.09786   0.09936

 Mulliken charges:
               1
     1  Mg   0.798062
     2  C    0.116220
     3  C   -0.162949
     4  C   -0.114491
     5  C   -0.183943
     6  N   -0.632697
     7  C    0.268045
     8  C   -0.168605
     9  C   -0.132239
    10  C    0.321550
    11  C   -0.296279
    12  C   -0.155010
    13  C   -0.288594
    14  C    0.641917
    15  O   -0.477323
    16  O   -0.490618
    17  N   -0.712601
    18  C    0.364722
    19  C    0.019847
    20  C   -0.001821
    21  C    0.278969
    22  C   -0.388576
    23  C   -0.053687
    24  C   -0.225673
    25  N   -0.645998
    26  C    0.315479
    27  C    0.029823
    28  C    0.040226
    29  C    0.242779
    30  C   -0.385552
    31  C   -0.242232
    32  C   -0.293648
    33  N   -0.726599
    34  C    0.300807
    35  C   -0.004353
    36  C    0.120121
    37  C    0.266185
    38  C   -0.384538
    39  C    0.299475
    40  O   -0.483789
    41  C   -0.354967
    42  C    0.635322
    43  O   -0.472511
    44  O   -0.451618
    45  C   -0.085555
    46  C    0.025551
    47  C   -0.130209
    48  C    0.127433
    49  C   -0.363716
    50  C   -0.217406
    51  C   -0.140514
    52  C   -0.202163
    53  C   -0.040801
    54  C   -0.297795
    55  C   -0.158629
    56  C   -0.170184
    57  C   -0.142853
    58  C   -0.043102
    59  C   -0.320604
    60  C   -0.164913
    61  C   -0.177366
    62  C   -0.146980
    63  C   -0.041352
    64  C   -0.327715
    65  C   -0.311949
    66  H    0.041248
    67  H    0.036981
    68  H    0.081185
    69  H    0.116131
    70  H    0.109062
    71  H    0.094242
    72  H    0.095141
    73  H    0.139108
    74  H    0.127312
    75  H    0.124605
    76  H    0.131312
    77  H    0.148693
    78  H    0.099211
    79  H    0.152263
    80  H    0.116800
    81  H    0.093868
    82  H    0.096645
    83  H    0.092773
    84  H    0.096363
    85  H    0.113029
    86  H    0.130862
    87  H    0.087183
    88  H    0.118884
    89  H    0.098862
    90  H    0.088008
    91  H    0.122717
    92  H    0.136087
    93  H    0.143964
    94  H    0.114134
    95  H    0.158606
    96  H    0.110416
    97  H    0.144886
    98  H    0.106458
    99  H    0.121545
   100  H    0.112945
   101  H    0.090974
   102  H    0.117833
   103  H    0.119107
   104  H    0.114450
   105  H    0.029743
   106  H    0.104079
   107  H    0.106274
   108  H    0.077209
   109  H    0.071937
   110  H    0.084899
   111  H    0.093442
   112  H    0.078511
   113  H    0.114155
   114  H    0.103138
   115  H    0.064207
   116  H    0.074077
   117  H    0.100988
   118  H    0.064016
   119  H    0.086456
   120  H    0.068341
   121  H    0.086407
   122  H    0.106845
   123  H    0.083558
   124  H    0.102543
   125  H    0.089657
   126  H    0.080543
   127  H    0.060678
   128  H    0.072307
   129  H    0.088720
   130  H    0.066461
   131  H    0.096062
   132  H    0.104076
   133  H    0.089055
   134  H    0.098539
   135  H    0.111508
   136  H    0.100564
   137  H    0.099294
 Sum of Mulliken charges =  -0.00000

 Dipole moment (field-independent basis, Debye):
    X=              0.5540    Y=              4.6769    Z=              0.0883  Tot=              4.7104
 Quadrupole moment (field-independent basis, Debye-Ang):
   XX=           -321.7124   YY=           -394.3709   ZZ=           -397.6243
   XY=            -18.6387   XZ=             10.9591   YZ=              0.3167

 Normal termination of Gaussian 16 at Sat Sep 14 06:59:04 2019.
