 Gaussian 16, Revision A.03,
 Gaussian 16:  ES64L-G16RevA.03 25-Dec-2016

 ----------------------------------------------------------------------
 # td=(NStates=1) iop(3/107=0140000000,3/108=0140000000) CAM-B3LYP/6-31
 G(d,p)
 ----------------------------------------------------------------------

 --
 TD
 --
 Symbolic Z-matrix:
 Charge =  0 Multiplicity = 1

                         Standard orientation:
 ---------------------------------------------------------------------
 Center     Atomic      Atomic             Coordinates (Angstroms)
 Number     Number       Type             X           Y           Z
 ---------------------------------------------------------------------
      1         12           0       -7.107541    0.651601   -0.002395
      2          6           0       -4.901450   -1.937316    0.590754
      3          6           0       -4.692734    2.853785    1.290030
      4          6           0       -9.274504    3.071787   -0.384659
      5          6           0       -9.551798   -1.857829   -0.935140
      6          7           0       -5.085503    0.456470    0.647143
      7          6           0       -4.357093   -0.763207    0.842533
      8          6           0       -2.933873   -0.414433    1.277502
      9          6           0       -3.029785    1.042259    1.688363
     10          6           0       -4.336307    1.538322    1.139235
     11          6           0       -3.002987    1.142736    3.210715
     12          6           0       -1.894344   -0.570463    0.078076
     13          6           0       -0.488932   -0.520341    0.468110
     14          6           0        0.542555   -0.663426   -0.676129
     15          8           0        0.217095   -1.043420   -1.853895
     16          8           0        1.821502   -0.495145   -0.201034
     17          7           0       -6.978883    2.640667    0.347757
     18          6           0       -6.009866    3.390757    0.908893
     19          6           0       -6.279063    4.739842    0.920963
     20          6           0       -7.693671    4.838742    0.541892
     21          6           0       -8.043636    3.538520    0.050872
     22          6           0       -5.448162    5.941484    1.341563
     23          6           0       -8.584768    5.999735    0.152198
     24          6           0       -8.524395    7.203095    0.736933
     25          7           0       -8.995979    0.667712   -0.575230
     26          6           0       -9.766420    1.825546   -0.683276
     27          6           0      -11.178934    1.505171   -1.187274
     28          6           0      -11.143007    0.136256   -1.311348
     29          6           0       -9.784764   -0.353320   -0.909603
     30          6           0      -12.188926    2.460511   -1.417695
     31          6           0      -12.396767   -0.786413   -1.624229
     32          6           0      -12.181670   -1.180772   -3.161519
     33          7           0       -7.241603   -1.434476   -0.140646
     34          6           0       -8.304207   -2.353510   -0.539410
     35          6           0       -7.856530   -3.624410   -0.587032
     36          6           0       -6.524427   -3.601695   -0.157559
     37          6           0       -6.279827   -2.204281    0.008757
     38          6           0       -8.617146   -4.844568   -0.932617
     39          6           0       -5.389028   -4.330601    0.219174
     40          8           0       -5.105894   -5.523679    0.230537
     41          6           0       -4.235137   -3.334289    0.646936
     42          6           0       -3.593814   -3.725174    2.008178
     43          8           0       -3.742182   -3.084321    3.025848
     44          8           0       -2.792307   -4.702300    1.796818
     45          6           0       -2.200603   -5.408540    2.930096
     46          6           0        2.845870   -0.757532   -1.236680
     47          6           0        4.118570   -0.392908   -0.675820
     48          6           0        5.128221    0.458350   -1.164171
     49          6           0        4.934012    1.238055   -2.402361
     50          6           0        6.288820    0.673916   -0.316235
     51          6           0        7.578844    0.109362   -1.044614
     52          6           0        8.777838    0.124587   -0.233881
     53          6           0       10.137178   -0.316248   -0.933455
     54          6           0        9.993583   -1.887606   -1.161514
     55          6           0       11.358966   -0.090843   -0.011973
     56          6           0       12.734758   -0.438291   -0.726279
     57          6           0       13.890031    0.078991    0.193093
     58          6           0       15.337261   -0.198553   -0.481505
     59          6           0       15.648370   -1.623056   -0.852037
     60          6           0       16.433551    0.318768    0.530938
     61          6           0       17.809263    0.322207   -0.079098
     62          6           0       18.844911    1.071882    0.797591
     63          6           0       20.239886    1.103756    0.222037
     64          6           0       20.282127    2.106100   -0.956428
     65          6           0       21.220020    1.584099    1.271672
     66          1           0       -3.975843    3.510336    1.646547
     67          1           0       -9.991421    4.006792   -0.404958
     68          1           0      -10.401449   -2.503317   -1.015891
     69          1           0       -2.560720   -0.943439    2.165787
     70          1           0       -1.909140    1.609486    1.317443
     71          1           0       -2.002576    1.005785    3.423005
     72          1           0       -3.379046    2.092671    3.699457
     73          1           0       -3.598736    0.375258    3.635885
     74          1           0       -1.926285   -1.689015   -0.329669
     75          1           0       -2.210829    0.085245   -0.825815
     76          1           0       -0.405935    0.467248    1.125209
     77          1           0       -0.223673   -1.344091    1.141024
     78          1           0       -5.657506    6.694145    0.352355
     79          1           0       -5.584491    6.217099    2.247267
     80          1           0       -4.351099    5.739317    1.456754
     81          1           0       -9.336548    5.764321   -0.583644
     82          1           0       -9.276113    8.040291    0.457202
     83          1           0       -7.756337    7.384688    1.370740
     84          1           0      -11.943676    3.503439   -2.091829
     85          1           0      -13.107776    2.007479   -1.921503
     86          1           0      -12.409859    3.003938   -0.553506
     87          1           0      -12.339286   -1.708334   -1.052083
     88          1           0      -13.264103   -0.061508   -1.467067
     89          1           0      -13.133340   -1.863783   -3.332381
     90          1           0      -12.212742   -0.535123   -4.047061
     91          1           0      -11.363598   -1.867048   -3.260323
     92          1           0       -9.676664   -4.770321   -1.700899
     93          1           0       -7.894678   -5.723997   -1.243181
     94          1           0       -9.285349   -5.383212    0.269311
     95          1           0       -3.312838   -3.318233   -0.164150
     96          1           0       -1.592845   -4.827835    3.358887
     97          1           0       -2.927383   -5.681778    3.742682
     98          1           0       -1.590997   -6.145810    2.375497
     99          1           0        2.858414   -1.783164   -1.433391
    100          1           0        2.597150   -0.282172   -2.146196
    101          1           0        4.295052   -0.792002    0.437220
    102          1           0        3.911729    1.246248   -2.765406
    103          1           0        5.008075    2.273077   -2.305363
    104          1           0        5.834655    1.022719   -3.260411
    105          1           0        6.452034    1.763660   -0.125240
    106          1           0        6.425147    0.174510    0.689994
    107          1           0        7.437498   -0.924379   -1.298717
    108          1           0        7.878680    0.635771   -2.089190
    109          1           0        8.958774    1.269147    0.042190
    110          1           0        8.576909   -0.451931    0.611602
    111          1           0       10.345324    0.183873   -1.812860
    112          1           0        8.988324   -2.058981   -1.695774
    113          1           0       10.611529   -2.329212   -2.001772
    114          1           0       10.142045   -2.525043   -0.149425
    115          1           0       11.338046    1.004998   -0.003123
    116          1           0       11.386990   -0.580801    0.947759
    117          1           0       12.813075   -1.481647   -0.799221
    118          1           0       12.740399    0.068636   -1.649492
    119          1           0       13.827543    1.122766    0.381142
    120          1           0       13.865914   -0.350778    1.195220
    121          1           0       15.365030    0.377311   -1.371008
    122          1           0       15.554746   -2.340463    0.114887
    123          1           0       14.921498   -2.160499   -1.624430
    124          1           0       16.558678   -1.804912   -1.390987
    125          1           0       16.013839    1.394166    0.661045
    126          1           0       16.509723   -0.202282    1.436464
    127          1           0       17.974646   -0.650375   -0.448952
    128          1           0       17.788972    1.107645   -0.996094
    129          1           0       18.567378    1.971249    1.031166
    130          1           0       18.893531    0.395947    1.649566
    131          1           0       20.276725    0.149601   -0.314458
    132          1           0       19.976910    3.299116   -0.635390
    133          1           0       21.219120    2.398625   -1.290462
    134          1           0       19.805106    1.868702   -1.932344
    135          1           0       21.108518    0.891885    2.288129
    136          1           0       22.126704    1.526656    1.077707
    137          1           0       21.130640    2.656746    1.572537
 ---------------------------------------------------------------------

 SCF Done:  E(RCAM-B3LYP) =  -2933.41030115     A.U. after   16 cycles

 Excitation energies and oscillator strengths:

 Excited State   1:      Singlet-A      1.8662 eV  664.38 nm  f=0.2701  <S**2>=0.000
     240 -> 243        0.15676
     241 -> 242        0.68354
 This state for optimization and/or second-order correction.
 Total Energy, E(TD-HF/TD-DFT) =  -2933.34172131
 Copying the excited state density for this state as the 1-particle RhoCI density.

 The electronic state is 1-A.
 Alpha  occ. eigenvalues --  -46.79806 -19.22696 -19.22084 -19.16814 -19.15302
 Alpha  occ. eigenvalues --  -19.14479 -14.36689 -14.36669 -14.35635 -14.34444
 Alpha  occ. eigenvalues --  -10.35386 -10.33452 -10.29098 -10.27331 -10.26491
 Alpha  occ. eigenvalues --  -10.26302 -10.26248 -10.25761 -10.25440 -10.25182
 Alpha  occ. eigenvalues --  -10.24995 -10.24924 -10.24746 -10.24608 -10.24506
 Alpha  occ. eigenvalues --  -10.24381 -10.24044 -10.23810 -10.23736 -10.23665
 Alpha  occ. eigenvalues --  -10.23600 -10.23579 -10.23237 -10.22991 -10.22938
 Alpha  occ. eigenvalues --  -10.22868 -10.22778 -10.22687 -10.22673 -10.22554
 Alpha  occ. eigenvalues --  -10.22479 -10.22465 -10.22430 -10.22418 -10.22009
 Alpha  occ. eigenvalues --  -10.21922 -10.21791 -10.21695 -10.21655 -10.21491
 Alpha  occ. eigenvalues --  -10.21399 -10.21307 -10.21280 -10.20869 -10.20776
 Alpha  occ. eigenvalues --  -10.20743 -10.20668 -10.20391 -10.20313 -10.20244
 Alpha  occ. eigenvalues --  -10.20185 -10.20040 -10.19837 -10.19792 -10.18550
 Alpha  occ. eigenvalues --   -3.08459  -1.83394  -1.82952  -1.82854  -1.14178
 Alpha  occ. eigenvalues --   -1.11000  -1.04338  -1.03829  -1.01702  -1.01209
 Alpha  occ. eigenvalues --   -0.98579  -0.97305  -0.95605  -0.86372  -0.85696
 Alpha  occ. eigenvalues --   -0.85196  -0.84693  -0.84429  -0.84073  -0.83924
 Alpha  occ. eigenvalues --   -0.83282  -0.82913  -0.82711  -0.81928  -0.80994
 Alpha  occ. eigenvalues --   -0.80153  -0.79254  -0.79133  -0.78283  -0.78064
 Alpha  occ. eigenvalues --   -0.77164  -0.76886  -0.75425  -0.74802  -0.73141
 Alpha  occ. eigenvalues --   -0.72552  -0.72441  -0.71691  -0.71176  -0.70719
 Alpha  occ. eigenvalues --   -0.70499  -0.70104  -0.69308  -0.68617  -0.67456
 Alpha  occ. eigenvalues --   -0.66287  -0.65584  -0.65270  -0.64249  -0.63518
 Alpha  occ. eigenvalues --   -0.62543  -0.61634  -0.61064  -0.60192  -0.60069
 Alpha  occ. eigenvalues --   -0.59820  -0.59599  -0.59268  -0.58739  -0.58288
 Alpha  occ. eigenvalues --   -0.57800  -0.56438  -0.56038  -0.55738  -0.55101
 Alpha  occ. eigenvalues --   -0.54782  -0.54153  -0.53950  -0.52467  -0.52077
 Alpha  occ. eigenvalues --   -0.51953  -0.51834  -0.51479  -0.51090  -0.50749
 Alpha  occ. eigenvalues --   -0.50499  -0.50212  -0.49772  -0.49467  -0.49186
 Alpha  occ. eigenvalues --   -0.49163  -0.48968  -0.48483  -0.47983  -0.47894
 Alpha  occ. eigenvalues --   -0.47565  -0.47296  -0.47229  -0.46884  -0.46731
 Alpha  occ. eigenvalues --   -0.46379  -0.45948  -0.45806  -0.45540  -0.45345
 Alpha  occ. eigenvalues --   -0.45202  -0.45108  -0.44919  -0.44613  -0.44424
 Alpha  occ. eigenvalues --   -0.44255  -0.44175  -0.43909  -0.43769  -0.43308
 Alpha  occ. eigenvalues --   -0.43287  -0.42974  -0.42654  -0.42278  -0.42204
 Alpha  occ. eigenvalues --   -0.42044  -0.41839  -0.41640  -0.41478  -0.41224
 Alpha  occ. eigenvalues --   -0.41001  -0.40870  -0.40802  -0.40665  -0.40605
 Alpha  occ. eigenvalues --   -0.40271  -0.40133  -0.39910  -0.39756  -0.39661
 Alpha  occ. eigenvalues --   -0.39530  -0.39193  -0.39060  -0.38754  -0.38550
 Alpha  occ. eigenvalues --   -0.38431  -0.38190  -0.38014  -0.37953  -0.37755
 Alpha  occ. eigenvalues --   -0.37582  -0.37559  -0.37382  -0.37084  -0.36986
 Alpha  occ. eigenvalues --   -0.36723  -0.36437  -0.36348  -0.36211  -0.35858
 Alpha  occ. eigenvalues --   -0.35778  -0.35545  -0.35342  -0.34831  -0.34473
 Alpha  occ. eigenvalues --   -0.34419  -0.33885  -0.33750  -0.33431  -0.33397
 Alpha  occ. eigenvalues --   -0.33008  -0.32860  -0.32712  -0.32591  -0.32370
 Alpha  occ. eigenvalues --   -0.32350  -0.31696  -0.31612  -0.30449  -0.29871
 Alpha  occ. eigenvalues --   -0.29705  -0.29442  -0.29073  -0.27951  -0.27101
 Alpha  occ. eigenvalues --   -0.26187  -0.25850  -0.25651  -0.24364  -0.21730
 Alpha  occ. eigenvalues --   -0.20151
 Alpha virt. eigenvalues --   -0.08412  -0.03765   0.00910   0.02382   0.02656
 Alpha virt. eigenvalues --    0.02924   0.04398   0.04641   0.05369   0.05919
 Alpha virt. eigenvalues --    0.06045   0.07346   0.07864   0.08354   0.09562

 Mulliken charges:
               1
     1  Mg   0.818070
     2  C    0.065515
     3  C   -0.177861
     4  C   -0.175274
     5  C   -0.161746
     6  N   -0.652725
     7  C    0.293492
     8  C   -0.144261
     9  C   -0.146245
    10  C    0.372751
    11  C   -0.308244
    12  C   -0.158883
    13  C   -0.248915
    14  C    0.610083
    15  O   -0.494154
    16  O   -0.471997
    17  N   -0.714853
    18  C    0.338144
    19  C   -0.006743
    20  C   -0.013579
    21  C    0.277068
    22  C   -0.355239
    23  C   -0.067490
    24  C   -0.239998
    25  N   -0.696587
    26  C    0.273670
    27  C    0.124933
    28  C   -0.024672
    29  C    0.303724
    30  C   -0.407217
    31  C   -0.228695
    32  C   -0.320528
    33  N   -0.678889
    34  C    0.236784
    35  C    0.083711
    36  C    0.083948
    37  C    0.308664
    38  C   -0.343671
    39  C    0.314631
    40  O   -0.486452
    41  C   -0.315869
    42  C    0.604218
    43  O   -0.485148
    44  O   -0.407211
    45  C   -0.091168
    46  C    0.019332
    47  C   -0.152004
    48  C    0.165984
    49  C   -0.372294
    50  C   -0.230426
    51  C   -0.170230
    52  C   -0.156792
    53  C   -0.050862
    54  C   -0.316661
    55  C   -0.172791
    56  C   -0.183311
    57  C   -0.186842
    58  C   -0.050044
    59  C   -0.308887
    60  C   -0.162118
    61  C   -0.199523
    62  C   -0.126833
    63  C   -0.048136
    64  C   -0.314595
    65  C   -0.290348
    66  H    0.069985
    67  H    0.071707
    68  H    0.101048
    69  H    0.120244
    70  H    0.055015
    71  H    0.111106
    72  H    0.098430
    73  H    0.136753
    74  H    0.092715
    75  H    0.117353
    76  H    0.101352
    77  H    0.141770
    78  H    0.110907
    79  H    0.142862
    80  H    0.102044
    81  H    0.092934
    82  H    0.094916
    83  H    0.104253
    84  H    0.088018
    85  H    0.112071
    86  H    0.143859
    87  H    0.120386
    88  H    0.105597
    89  H    0.076065
    90  H    0.125249
    91  H    0.120300
    92  H    0.088967
    93  H    0.149222
    94  H    0.050176
    95  H    0.133860
    96  H    0.140935
    97  H    0.137511
    98  H    0.133185
    99  H    0.136515
   100  H    0.131896
   101  H    0.079393
   102  H    0.117963
   103  H    0.131447
   104  H    0.092397
   105  H    0.101917
   106  H    0.100994
   107  H    0.105658
   108  H    0.061874
   109  H    0.059665
   110  H    0.094822
   111  H    0.087572
   112  H    0.087581
   113  H    0.096453
   114  H    0.089995
   115  H    0.084381
   116  H    0.091457
   117  H    0.110865
   118  H    0.091671
   119  H    0.093771
   120  H    0.087186
   121  H    0.090550
   122  H    0.077103
   123  H    0.075690
   124  H    0.113211
   125  H    0.073401
   126  H    0.094439
   127  H    0.097485
   128  H    0.064446
   129  H    0.096552
   130  H    0.078972
   131  H    0.093164
   132  H    0.047627
   133  H    0.108934
   134  H    0.102751
   135  H    0.064670
   136  H    0.115556
   137  H    0.101470
 Sum of Mulliken charges =  -0.00000

 Dipole moment (field-independent basis, Debye):
    X=              0.9862    Y=              3.6873    Z=              0.1670  Tot=              3.8206
 Quadrupole moment (field-independent basis, Debye-Ang):
   XX=           -317.7413   YY=           -391.6895   ZZ=           -396.9913
   XY=            -19.9691   XZ=              9.5566   YZ=             -4.9071

 Normal termination of Gaussian 16 at Thu Sep 12 04:39:27 2019.
