 Gaussian 16, Revision A.03,
 Gaussian 16:  ES64L-G16RevA.03 25-Dec-2016

 ----------------------------------------------------------------------
 # td=(NStates=1) iop(3/107=0140000000,3/108=0140000000) CAM-B3LYP/6-31
 G(d,p)
 ----------------------------------------------------------------------

 --
 TD
 --
 Symbolic Z-matrix:
 Charge =  0 Multiplicity = 1

                         Standard orientation:
 ---------------------------------------------------------------------
 Center     Atomic      Atomic             Coordinates (Angstroms)
 Number     Number       Type             X           Y           Z
 ---------------------------------------------------------------------
      1         12           0       -7.121400    0.641557    0.021788
      2          6           0       -4.872969   -1.962574    0.503551
      3          6           0       -4.790643    2.889691    1.194112
      4          6           0       -9.429646    3.125153   -0.579721
      5          6           0       -9.545062   -1.808882   -0.885703
      6          7           0       -5.188083    0.452839    0.696972
      7          6           0       -4.373616   -0.616736    0.769204
      8          6           0       -2.998928   -0.475143    1.260839
      9          6           0       -3.012169    1.030228    1.718376
     10          6           0       -4.411782    1.544000    1.135459
     11          6           0       -2.979097    1.110446    3.257268
     12          6           0       -1.849610   -0.531466    0.148880
     13          6           0       -0.505805   -0.324610    0.576301
     14          6           0        0.508626   -0.615447   -0.595356
     15          8           0        0.222787   -0.895487   -1.671893
     16          8           0        1.753367   -0.273741   -0.252581
     17          7           0       -7.159692    2.548949    0.323683
     18          6           0       -6.067859    3.337896    0.771528
     19          6           0       -6.465283    4.801705    0.808031
     20          6           0       -7.750844    4.889355    0.312530
     21          6           0       -8.182895    3.449126   -0.050147
     22          6           0       -5.415804    5.747657    1.191830
     23          6           0       -8.555377    5.973650    0.108527
     24          6           0       -8.372370    7.160211    0.823344
     25          7           0       -9.130334    0.634407   -0.699108
     26          6           0       -9.897192    1.816043   -0.732390
     27          6           0      -11.247872    1.472546   -1.080754
     28          6           0      -11.240430    0.151701   -1.255339
     29          6           0       -9.946908   -0.392786   -0.942272
     30          6           0      -12.442699    2.371301   -1.138514
     31          6           0      -12.418512   -0.704281   -1.712393
     32          6           0      -12.304430   -0.983299   -3.212971
     33          7           0       -7.229844   -1.374789   -0.184942
     34          6           0       -8.316056   -2.321620   -0.597910
     35          6           0       -7.882096   -3.637038   -0.606618
     36          6           0       -6.527566   -3.564428   -0.120191
     37          6           0       -6.221547   -2.196176    0.184391
     38          6           0       -8.683663   -4.800391   -1.036431
     39          6           0       -5.365663   -4.374139    0.260017
     40          8           0       -5.220801   -5.543992    0.388515
     41          6           0       -4.178399   -3.273599    0.615491
     42          6           0       -3.516316   -3.573286    1.939950
     43          8           0       -3.751555   -3.029212    2.953487
     44          8           0       -2.772272   -4.739717    1.799317
     45          6           0       -2.299296   -5.195138    3.062800
     46          6           0        2.811489   -0.514064   -1.338953
     47          6           0        4.084812   -0.316050   -0.603490
     48          6           0        5.191500    0.411718   -0.967430
     49          6           0        5.259510    1.084530   -2.253805
     50          6           0        6.461925    0.232402   -0.171369
     51          6           0        7.719726   -0.295282   -0.968297
     52          6           0        8.940653   -0.129619   -0.112456
     53          6           0       10.208802   -0.730789   -0.789189
     54          6           0       10.026043   -2.217964   -1.273407
     55          6           0       11.511118   -0.453691   -0.048133
     56          6           0       12.839016   -0.633744   -0.727135
     57          6           0       13.996747   -0.064175    0.079883
     58          6           0       15.366361   -0.184815   -0.521906
     59          6           0       15.745787   -1.585634   -1.029891
     60          6           0       16.469560    0.459845    0.382088
     61          6           0       17.844518    0.700244   -0.235361
     62          6           0       18.848002    1.345859    0.688030
     63          6           0       20.305471    1.361894    0.288632
     64          6           0       20.578335    2.214280   -1.015238
     65          6           0       21.198281    1.786301    1.529968
     66          1           0       -4.157274    3.514075    1.400058
     67          1           0      -10.064358    3.860137   -0.704036
     68          1           0      -10.351015   -2.486312   -1.094380
     69          1           0       -2.768244   -1.034560    2.121769
     70          1           0       -2.297972    1.515256    1.341300
     71          1           0       -2.087529    0.711922    3.532382
     72          1           0       -3.116624    2.186124    3.567761
     73          1           0       -3.765292    0.522893    3.807343
     74          1           0       -1.901310   -1.545180   -0.366605
     75          1           0       -1.986385    0.229871   -0.754957
     76          1           0       -0.333999    0.755009    0.944948
     77          1           0       -0.299830   -1.131753    1.385452
     78          1           0       -5.625105    6.641402    0.658074
     79          1           0       -5.508986    6.216825    2.173487
     80          1           0       -4.336955    5.544034    0.999745
     81          1           0       -9.345207    5.972706   -0.664907
     82          1           0       -8.980575    8.112430    0.571793
     83          1           0       -7.597715    7.314285    1.622044
     84          1           0      -12.355475    3.150628   -1.899794
     85          1           0      -13.464989    1.800065   -1.479919
     86          1           0      -12.349935    2.794845   -0.104293
     87          1           0      -12.324889   -1.657092   -1.114539
     88          1           0      -13.348976   -0.399126   -1.431616
     89          1           0      -12.976249   -1.506849   -3.582837
     90          1           0      -12.206239   -0.143855   -3.878407
     91          1           0      -11.347127   -1.495411   -3.234172
     92          1           0       -9.223699   -4.540824   -2.051106
     93          1           0       -8.105243   -5.614090   -0.935354
     94          1           0       -9.633545   -4.968519   -0.444934
     95          1           0       -3.657147   -3.516867   -0.238681
     96          1           0       -1.459170   -4.559258    3.561433
     97          1           0       -3.168937   -5.151566    3.809044
     98          1           0       -2.013341   -6.223315    2.841947
     99          1           0        2.741369   -1.595200   -1.626843
    100          1           0        2.479321    0.156619   -2.097374
    101          1           0        4.125567   -0.798727    0.374806
    102          1           0        4.158420    1.271985   -2.508330
    103          1           0        5.616219    2.096458   -2.436724
    104          1           0        5.604698    0.326807   -3.173960
    105          1           0        6.684884    1.370832    0.010151
    106          1           0        6.330918   -0.330340    0.713942
    107          1           0        7.446847   -1.316198   -1.248084
    108          1           0        7.852752    0.261298   -1.812921
    109          1           0        9.335331    0.914226    0.334566
    110          1           0        8.822240   -0.731811    0.766119
    111          1           0       10.427692   -0.144726   -1.708804
    112          1           0        9.217150   -2.253560   -2.094556
    113          1           0       10.769116   -2.805828   -1.723867
    114          1           0        9.624285   -2.766413   -0.410488
    115          1           0       11.227624    0.593285    0.501221
    116          1           0       11.594493   -1.121517    0.777694
    117          1           0       13.001002   -1.678212   -0.923047
    118          1           0       12.970750   -0.229485   -1.896348
    119          1           0       13.786695    0.984553    0.346170
    120          1           0       14.038967   -0.640897    1.133130
    121          1           0       15.418385    0.558769   -1.476039
    122          1           0       15.957364   -2.338852   -0.178381
    123          1           0       14.890397   -1.869157   -1.699322
    124          1           0       16.605461   -1.747657   -1.777300
    125          1           0       16.013560    1.440524    0.625883
    126          1           0       16.553012    0.000575    1.380334
    127          1           0       18.367729   -0.177602   -0.602750
    128          1           0       17.649541    1.304842   -1.192039
    129          1           0       18.610900    2.447184    1.018626
    130          1           0       18.826558    0.939494    1.653495
    131          1           0       20.598712    0.257653    0.120045
    132          1           0       20.300938    3.256016   -0.839281
    133          1           0       21.669420    2.322544   -1.155129
    134          1           0       20.098249    1.867448   -1.908991
    135          1           0       21.118681    0.886884    2.211389
    136          1           0       22.150911    1.959946    1.229142
    137          1           0       20.946176    2.843503    1.933809
 ---------------------------------------------------------------------

 SCF Done:  E(RCAM-B3LYP) =  -2933.58391206     A.U. after   16 cycles

 Excitation energies and oscillator strengths:

 Excited State   1:      Singlet-A      1.9629 eV  631.64 nm  f=0.2240  <S**2>=0.000
     240 -> 243        0.25993
     241 -> 242        0.65351
 This state for optimization and/or second-order correction.
 Total Energy, E(TD-HF/TD-DFT) =  -2933.51177666
 Copying the excited state density for this state as the 1-particle RhoCI density.

 The electronic state is 1-A.
 Alpha  occ. eigenvalues --  -46.78589 -19.21190 -19.20521 -19.17197 -19.16445
 Alpha  occ. eigenvalues --  -19.16344 -14.38091 -14.36036 -14.34433 -14.34263
 Alpha  occ. eigenvalues --  -10.33903 -10.33437 -10.30355 -10.28013 -10.26832
 Alpha  occ. eigenvalues --  -10.26646 -10.26416 -10.26195 -10.25609 -10.24186
 Alpha  occ. eigenvalues --  -10.24033 -10.24031 -10.23794 -10.23769 -10.23742
 Alpha  occ. eigenvalues --  -10.23322 -10.23312 -10.23163 -10.23156 -10.23074
 Alpha  occ. eigenvalues --  -10.23042 -10.22845 -10.22788 -10.22772 -10.22677
 Alpha  occ. eigenvalues --  -10.22488 -10.22479 -10.22286 -10.22118 -10.22117
 Alpha  occ. eigenvalues --  -10.22053 -10.22043 -10.21908 -10.21883 -10.21864
 Alpha  occ. eigenvalues --  -10.21841 -10.21821 -10.21669 -10.21581 -10.21464
 Alpha  occ. eigenvalues --  -10.21411 -10.21387 -10.21135 -10.20888 -10.20884
 Alpha  occ. eigenvalues --  -10.20761 -10.20613 -10.20599 -10.20503 -10.20499
 Alpha  occ. eigenvalues --  -10.20331 -10.20036 -10.20016 -10.19889 -10.18117
 Alpha  occ. eigenvalues --   -3.07421  -1.82340  -1.81902  -1.81846  -1.14168
 Alpha  occ. eigenvalues --   -1.13076  -1.07708  -1.05447  -1.04736  -0.98550
 Alpha  occ. eigenvalues --   -0.97485  -0.95993  -0.95388  -0.86437  -0.86386
 Alpha  occ. eigenvalues --   -0.85499  -0.85276  -0.84765  -0.84190  -0.83755
 Alpha  occ. eigenvalues --   -0.83034  -0.82938  -0.82652  -0.82038  -0.81049
 Alpha  occ. eigenvalues --   -0.80309  -0.79218  -0.78469  -0.78203  -0.78052
 Alpha  occ. eigenvalues --   -0.76772  -0.75540  -0.75396  -0.75003  -0.73209
 Alpha  occ. eigenvalues --   -0.72911  -0.72047  -0.71517  -0.70947  -0.70591
 Alpha  occ. eigenvalues --   -0.70511  -0.70227  -0.70120  -0.68414  -0.67844
 Alpha  occ. eigenvalues --   -0.67218  -0.65896  -0.65672  -0.64395  -0.63632
 Alpha  occ. eigenvalues --   -0.62735  -0.62672  -0.61920  -0.60739  -0.60572
 Alpha  occ. eigenvalues --   -0.59315  -0.58618  -0.57978  -0.57828  -0.57674
 Alpha  occ. eigenvalues --   -0.56670  -0.56508  -0.55839  -0.55751  -0.55527
 Alpha  occ. eigenvalues --   -0.54853  -0.54317  -0.53664  -0.53409  -0.52931
 Alpha  occ. eigenvalues --   -0.52265  -0.51659  -0.51449  -0.51178  -0.50640
 Alpha  occ. eigenvalues --   -0.50487  -0.50001  -0.49899  -0.49672  -0.49405
 Alpha  occ. eigenvalues --   -0.48861  -0.48735  -0.48568  -0.48327  -0.48016
 Alpha  occ. eigenvalues --   -0.47916  -0.47533  -0.47355  -0.47089  -0.46733
 Alpha  occ. eigenvalues --   -0.46544  -0.46343  -0.46207  -0.45831  -0.45626
 Alpha  occ. eigenvalues --   -0.45457  -0.45342  -0.45131  -0.45077  -0.44694
 Alpha  occ. eigenvalues --   -0.44385  -0.44357  -0.44206  -0.44081  -0.43731
 Alpha  occ. eigenvalues --   -0.43576  -0.43382  -0.43078  -0.42876  -0.42688
 Alpha  occ. eigenvalues --   -0.42602  -0.42290  -0.42118  -0.41791  -0.41432
 Alpha  occ. eigenvalues --   -0.41360  -0.41233  -0.40913  -0.40783  -0.40559
 Alpha  occ. eigenvalues --   -0.40534  -0.40320  -0.40312  -0.40156  -0.40064
 Alpha  occ. eigenvalues --   -0.39625  -0.39579  -0.39525  -0.39287  -0.39050
 Alpha  occ. eigenvalues --   -0.38966  -0.38725  -0.38567  -0.38524  -0.38364
 Alpha  occ. eigenvalues --   -0.38159  -0.38073  -0.37974  -0.37738  -0.37301
 Alpha  occ. eigenvalues --   -0.37212  -0.37095  -0.36760  -0.36210  -0.35984
 Alpha  occ. eigenvalues --   -0.35705  -0.35588  -0.34850  -0.34714  -0.34403
 Alpha  occ. eigenvalues --   -0.34281  -0.33887  -0.33839  -0.33671  -0.33497
 Alpha  occ. eigenvalues --   -0.33457  -0.33006  -0.32741  -0.32679  -0.32555
 Alpha  occ. eigenvalues --   -0.32370  -0.32165  -0.32119  -0.31770  -0.30976
 Alpha  occ. eigenvalues --   -0.30301  -0.30031  -0.29788  -0.28056  -0.26495
 Alpha  occ. eigenvalues --   -0.26225  -0.25878  -0.25094  -0.24530  -0.21295
 Alpha  occ. eigenvalues --   -0.19527
 Alpha virt. eigenvalues --   -0.06793  -0.04223  -0.00025   0.02074   0.02915
 Alpha virt. eigenvalues --    0.04073   0.05106   0.05336   0.06197   0.06282
 Alpha virt. eigenvalues --    0.07105   0.09671   0.10060   0.10126   0.10417

 Mulliken charges:
               1
     1  Mg   0.808964
     2  C    0.024804
     3  C   -0.104017
     4  C   -0.123847
     5  C   -0.185469
     6  N   -0.631960
     7  C    0.349049
     8  C   -0.159830
     9  C   -0.109825
    10  C    0.289654
    11  C   -0.316887
    12  C   -0.169695
    13  C   -0.260925
    14  C    0.587935
    15  O   -0.425403
    16  O   -0.492919
    17  N   -0.730339
    18  C    0.277780
    19  C    0.057041
    20  C    0.055136
    21  C    0.287052
    22  C   -0.414645
    23  C   -0.113072
    24  C   -0.252546
    25  N   -0.679101
    26  C    0.257420
    27  C    0.051816
    28  C   -0.000814
    29  C    0.315386
    30  C   -0.371588
    31  C   -0.251424
    32  C   -0.292766
    33  N   -0.704068
    34  C    0.264724
    35  C    0.084527
    36  C   -0.038406
    37  C    0.332073
    38  C   -0.373830
    39  C    0.324501
    40  O   -0.426834
    41  C   -0.316959
    42  C    0.628518
    43  O   -0.449566
    44  O   -0.453796
    45  C   -0.088458
    46  C   -0.001087
    47  C   -0.126039
    48  C    0.136905
    49  C   -0.372663
    50  C   -0.222400
    51  C   -0.172461
    52  C   -0.173787
    53  C   -0.055657
    54  C   -0.327977
    55  C   -0.163107
    56  C   -0.173069
    57  C   -0.149282
    58  C   -0.045949
    59  C   -0.309479
    60  C   -0.175472
    61  C   -0.167289
    62  C   -0.142855
    63  C   -0.065522
    64  C   -0.319142
    65  C   -0.313680
    66  H    0.021648
    67  H    0.058877
    68  H    0.078441
    69  H    0.133403
    70  H    0.090230
    71  H    0.120055
    72  H    0.098296
    73  H    0.125752
    74  H    0.110636
    75  H    0.097008
    76  H    0.122966
    77  H    0.115054
    78  H    0.126306
    79  H    0.126746
    80  H    0.124813
    81  H    0.102516
    82  H    0.095284
    83  H    0.099846
    84  H    0.120613
    85  H    0.099881
    86  H    0.127510
    87  H    0.088046
    88  H    0.099199
    89  H    0.107129
    90  H    0.106847
    91  H    0.101851
    92  H    0.117819
    93  H    0.147235
    94  H    0.126310
    95  H    0.160515
    96  H    0.103761
    97  H    0.125239
    98  H    0.126365
    99  H    0.137233
   100  H    0.139759
   101  H    0.096170
   102  H    0.097236
   103  H    0.124035
   104  H    0.102130
   105  H    0.083465
   106  H    0.099383
   107  H    0.110884
   108  H    0.112014
   109  H    0.082020
   110  H    0.097400
   111  H    0.081981
   112  H    0.089526
   113  H    0.112858
   114  H    0.098610
   115  H    0.055117
   116  H    0.096673
   117  H    0.112996
   118  H    0.052143
   119  H    0.100229
   120  H    0.066123
   121  H    0.058246
   122  H    0.093520
   123  H    0.097203
   124  H    0.098538
   125  H    0.087415
   126  H    0.082930
   127  H    0.094195
   128  H    0.081514
   129  H    0.063200
   130  H    0.091564
   131  H    0.068626
   132  H    0.101190
   133  H    0.094941
   134  H    0.110844
   135  H    0.103377
   136  H    0.112026
   137  H    0.089107
 Sum of Mulliken charges =  -0.00000

 Dipole moment (field-independent basis, Debye):
    X=              2.3750    Y=              3.8933    Z=             -0.3075  Tot=              4.5709
 Quadrupole moment (field-independent basis, Debye-Ang):
   XX=           -353.1435   YY=           -388.4113   ZZ=           -396.5099
   XY=            -22.9578   XZ=             10.3593   YZ=              0.7140

 Normal termination of Gaussian 16 at Sun Sep 15 13:05:26 2019.
