 Gaussian 16, Revision A.03,
 Gaussian 16:  ES64L-G16RevA.03 25-Dec-2016

 ----------------------------------------------------------------------
 # td=(NStates=1) iop(3/107=0140000000,3/108=0140000000) CAM-B3LYP/6-31
 G(d,p)
 ----------------------------------------------------------------------

 --
 TD
 --
 Symbolic Z-matrix:
 Charge =  0 Multiplicity = 1

                         Standard orientation:
 ---------------------------------------------------------------------
 Center     Atomic      Atomic             Coordinates (Angstroms)
 Number     Number       Type             X           Y           Z
 ---------------------------------------------------------------------
      1         12           0       -7.132216    0.629097    0.229951
      2          6           0       -4.848159   -2.047328    0.647145
      3          6           0       -4.770057    2.698443    1.387302
      4          6           0       -9.276226    3.223471   -0.420488
      5          6           0       -9.558828   -1.608360   -1.013729
      6          7           0       -5.161477    0.287781    0.909581
      7          6           0       -4.401733   -0.786513    0.937382
      8          6           0       -3.015744   -0.517712    1.375741
      9          6           0       -3.109305    0.959710    1.912064
     10          6           0       -4.391150    1.436502    1.344478
     11          6           0       -3.035905    0.980664    3.520031
     12          6           0       -1.991897   -0.593667    0.191062
     13          6           0       -0.524898   -0.391105    0.575021
     14          6           0        0.405794   -0.524284   -0.549256
     15          8           0        0.140025   -0.822908   -1.668927
     16          8           0        1.719964   -0.408289   -0.115057
     17          7           0       -7.065769    2.546630    0.568153
     18          6           0       -5.988443    3.304095    0.963417
     19          6           0       -6.295743    4.735331    0.853159
     20          6           0       -7.570465    4.865795    0.343904
     21          6           0       -8.067588    3.520166    0.086086
     22          6           0       -5.289241    5.795224    1.099601
     23          6           0       -8.300860    6.081916    0.221184
     24          6           0       -8.173601    7.293077    0.770066
     25          7           0       -9.072997    0.725833   -0.626648
     26          6           0       -9.840923    1.858307   -0.693041
     27          6           0      -11.207815    1.543968   -1.268194
     28          6           0      -11.170301    0.213096   -1.468414
     29          6           0       -9.976986   -0.287749   -0.969356
     30          6           0      -12.083594    2.736556   -1.592749
     31          6           0      -12.363255   -0.545151   -1.964910
     32          6           0      -12.215768   -0.899314   -3.466659
     33          7           0       -7.264725   -1.336516   -0.156945
     34          6           0       -8.366857   -2.113294   -0.568924
     35          6           0       -7.937215   -3.549972   -0.661262
     36          6           0       -6.571934   -3.524026   -0.169534
     37          6           0       -6.220334   -2.168726    0.110816
     38          6           0       -8.770003   -4.710258   -1.094011
     39          6           0       -5.443732   -4.389635    0.181504
     40          8           0       -5.397329   -5.595026    0.222525
     41          6           0       -4.213072   -3.363269    0.519089
     42          6           0       -3.561176   -3.828719    1.835291
     43          8           0       -3.832741   -3.319773    2.931630
     44          8           0       -2.790350   -4.863684    1.624911
     45          6           0       -2.264749   -5.411476    2.901161
     46          6           0        2.738592   -0.524409   -1.094813
     47          6           0        4.029754   -0.504675   -0.488177
     48          6           0        5.054313    0.283169   -0.916485
     49          6           0        4.991664    1.043853   -2.217602
     50          6           0        6.381045    0.281588   -0.142651
     51          6           0        7.637788   -0.258339   -0.886099
     52          6           0        8.888820   -0.228401   -0.016950
     53          6           0       10.192495   -0.535311   -0.943890
     54          6           0       10.308382   -1.930522   -1.414775
     55          6           0       11.467367   -0.300984   -0.089572
     56          6           0       12.771048   -0.286026   -0.864012
     57          6           0       13.991837   -0.039508    0.030641
     58          6           0       15.410791   -0.154375   -0.445086
     59          6           0       15.755320   -1.566368   -0.918114
     60          6           0       16.505572    0.451843    0.491721
     61          6           0       17.882467    0.517906   -0.287384
     62          6           0       18.776211    1.340352    0.668676
     63          6           0       20.240013    1.299522    0.228572
     64          6           0       20.433579    2.109264   -1.175246
     65          6           0       21.142696    1.823981    1.300727
     66          1           0       -4.036635    3.347093    1.954773
     67          1           0      -10.267136    3.846085   -0.452596
     68          1           0      -10.363949   -2.381328   -1.182683
     69          1           0       -2.620595   -1.262227    2.262551
     70          1           0       -2.326425    1.705480    1.599153
     71          1           0       -2.064545    0.655922    3.785577
     72          1           0       -3.402923    2.006325    4.000046
     73          1           0       -3.715104    0.176915    3.799662
     74          1           0       -1.685655   -1.444128   -0.570144
     75          1           0       -2.411514    0.219161   -0.629289
     76          1           0       -0.351932    0.584116    1.111912
     77          1           0       -0.287143   -1.142143    1.452996
     78          1           0       -5.500371    6.476046    0.325052
     79          1           0       -5.508975    6.357867    2.188629
     80          1           0       -4.173635    5.405318    1.189348
     81          1           0       -9.145204    5.899170   -0.446257
     82          1           0       -8.854334    7.862999    0.494984
     83          1           0       -7.255614    7.585208    1.366886
     84          1           0      -11.610096    3.464575   -2.116065
     85          1           0      -12.921198    2.277055   -2.221521
     86          1           0      -12.676914    2.978873   -0.580509
     87          1           0      -12.656401   -1.494225   -1.433752
     88          1           0      -13.377743    0.055374   -1.894493
     89          1           0      -13.279315   -1.457280   -3.892898
     90          1           0      -12.048789   -0.189109   -4.213132
     91          1           0      -11.361208   -1.668808   -3.513752
     92          1           0       -8.747467   -4.525846   -2.136025
     93          1           0       -8.296718   -5.647192   -0.889106
     94          1           0       -9.771480   -4.836298   -0.718182
     95          1           0       -3.676001   -3.683965   -0.131915
     96          1           0       -1.656823   -4.760183    3.393768
     97          1           0       -3.133219   -5.902574    3.464007
     98          1           0       -1.552786   -6.207997    2.556537
     99          1           0        2.680575   -1.594705   -1.414337
    100          1           0        2.520428    0.157697   -1.873656
    101          1           0        4.157990   -1.360864    0.430766
    102          1           0        3.976293    1.265604   -2.469727
    103          1           0        5.423540    2.089445   -2.135742
    104          1           0        5.536705    0.351883   -2.904134
    105          1           0        6.558109    1.292411    0.167201
    106          1           0        6.384361   -0.375174    0.684759
    107          1           0        7.211035   -1.351597   -1.029789
    108          1           0        7.808620    0.268383   -1.637408
    109          1           0        9.006349    0.937199    0.322230
    110          1           0        8.827486   -0.874247    0.783926
    111          1           0       10.313096    0.210061   -1.803286
    112          1           0        9.324400   -2.129531   -2.188833
    113          1           0       11.299467   -2.364403   -1.871188
    114          1           0       10.315997   -2.653837   -0.521059
    115          1           0       11.321072    0.755701   -0.047699
    116          1           0       11.368714   -0.769056    0.969325
    117          1           0       13.084334   -1.336536   -1.436170
    118          1           0       12.575793    0.491248   -1.807465
    119          1           0       13.715697    0.924613    0.564519
    120          1           0       13.769470   -0.765157    0.926314
    121          1           0       15.447118    0.403887   -1.492998
    122          1           0       15.656241   -2.495777   -0.374570
    123          1           0       15.048585   -1.881740   -1.724733
    124          1           0       16.521780   -1.544528   -1.376054
    125          1           0       16.441069    1.399916    0.927347
    126          1           0       16.810328    0.084529    1.468456
    127          1           0       18.379555   -0.442157   -0.550623
    128          1           0       17.786288    1.069704   -1.189911
    129          1           0       18.684658    2.395884    0.725714
    130          1           0       18.501729    0.990427    1.598517
    131          1           0       20.700420    0.230073    0.108330
    132          1           0       20.149381    2.930202   -1.002462
    133          1           0       21.411942    1.976040   -1.563041
    134          1           0       19.835168    1.521143   -1.985729
    135          1           0       20.964430    1.395780    2.423741
    136          1           0       22.143947    1.723552    1.183178
    137          1           0       20.772566    2.885884    1.446934
 ---------------------------------------------------------------------

 SCF Done:  E(RCAM-B3LYP) =  -2933.37195091     A.U. after   16 cycles

 Excitation energies and oscillator strengths:

 Excited State   1:      Singlet-A      2.0365 eV  608.80 nm  f=0.2480  <S**2>=0.000
     240 -> 242       -0.11719
     240 -> 243        0.22377
     241 -> 242        0.65243
 This state for optimization and/or second-order correction.
 Total Energy, E(TD-HF/TD-DFT) =  -2933.29710914
 Copying the excited state density for this state as the 1-particle RhoCI density.

 The electronic state is 1-A.
 Alpha  occ. eigenvalues --  -46.78960 -19.22794 -19.20453 -19.17355 -19.15959
 Alpha  occ. eigenvalues --  -19.15139 -14.36664 -14.36316 -14.35060 -14.34830
 Alpha  occ. eigenvalues --  -10.34356 -10.33418 -10.30045 -10.27199 -10.26424
 Alpha  occ. eigenvalues --  -10.25999 -10.25828 -10.25764 -10.25193 -10.24845
 Alpha  occ. eigenvalues --  -10.24715 -10.24645 -10.24545 -10.24384 -10.24124
 Alpha  occ. eigenvalues --  -10.23928 -10.23900 -10.23715 -10.23618 -10.23584
 Alpha  occ. eigenvalues --  -10.23382 -10.23340 -10.23335 -10.23012 -10.22930
 Alpha  occ. eigenvalues --  -10.22847 -10.22812 -10.22646 -10.22536 -10.22483
 Alpha  occ. eigenvalues --  -10.22435 -10.22332 -10.22241 -10.22186 -10.22157
 Alpha  occ. eigenvalues --  -10.22096 -10.22052 -10.21970 -10.21821 -10.21682
 Alpha  occ. eigenvalues --  -10.21557 -10.21401 -10.21303 -10.20969 -10.20865
 Alpha  occ. eigenvalues --  -10.20831 -10.20772 -10.20659 -10.20546 -10.20302
 Alpha  occ. eigenvalues --  -10.20241 -10.20090 -10.19401 -10.19127 -10.17922
 Alpha  occ. eigenvalues --   -3.07715  -1.82645  -1.82182  -1.82145  -1.13285
 Alpha  occ. eigenvalues --   -1.12961  -1.06177  -1.05141  -1.02422  -0.98620
 Alpha  occ. eigenvalues --   -0.97458  -0.96708  -0.95982  -0.86857  -0.86078
 Alpha  occ. eigenvalues --   -0.85363  -0.85175  -0.84677  -0.84101  -0.83862
 Alpha  occ. eigenvalues --   -0.83276  -0.83082  -0.82483  -0.81689  -0.81217
 Alpha  occ. eigenvalues --   -0.80416  -0.79630  -0.78837  -0.78450  -0.78049
 Alpha  occ. eigenvalues --   -0.76933  -0.76752  -0.75805  -0.75462  -0.73944
 Alpha  occ. eigenvalues --   -0.73155  -0.72763  -0.72203  -0.72145  -0.71703
 Alpha  occ. eigenvalues --   -0.71051  -0.70164  -0.69548  -0.68406  -0.67538
 Alpha  occ. eigenvalues --   -0.66587  -0.65433  -0.64770  -0.64338  -0.63833
 Alpha  occ. eigenvalues --   -0.63011  -0.62634  -0.61621  -0.60770  -0.60042
 Alpha  occ. eigenvalues --   -0.59653  -0.58798  -0.58155  -0.57904  -0.57759
 Alpha  occ. eigenvalues --   -0.57474  -0.56355  -0.56000  -0.55287  -0.54823
 Alpha  occ. eigenvalues --   -0.54427  -0.54060  -0.53899  -0.52857  -0.52752
 Alpha  occ. eigenvalues --   -0.52489  -0.51768  -0.51745  -0.51641  -0.51410
 Alpha  occ. eigenvalues --   -0.50899  -0.50375  -0.49716  -0.49493  -0.49294
 Alpha  occ. eigenvalues --   -0.49058  -0.48795  -0.48571  -0.48325  -0.47990
 Alpha  occ. eigenvalues --   -0.47831  -0.47468  -0.47072  -0.47018  -0.46798
 Alpha  occ. eigenvalues --   -0.46736  -0.46478  -0.46327  -0.45999  -0.45516
 Alpha  occ. eigenvalues --   -0.45322  -0.45175  -0.45039  -0.44961  -0.44749
 Alpha  occ. eigenvalues --   -0.44628  -0.44485  -0.44367  -0.44018  -0.43877
 Alpha  occ. eigenvalues --   -0.43624  -0.43369  -0.43294  -0.42954  -0.42672
 Alpha  occ. eigenvalues --   -0.42300  -0.42059  -0.41657  -0.41543  -0.41341
 Alpha  occ. eigenvalues --   -0.41251  -0.41005  -0.40760  -0.40682  -0.40626
 Alpha  occ. eigenvalues --   -0.40428  -0.40318  -0.40033  -0.39953  -0.39899
 Alpha  occ. eigenvalues --   -0.39553  -0.39367  -0.39187  -0.39087  -0.39018
 Alpha  occ. eigenvalues --   -0.38782  -0.38400  -0.38258  -0.38099  -0.38014
 Alpha  occ. eigenvalues --   -0.37762  -0.37541  -0.37407  -0.37304  -0.37064
 Alpha  occ. eigenvalues --   -0.36754  -0.36612  -0.36479  -0.36042  -0.35866
 Alpha  occ. eigenvalues --   -0.35445  -0.35157  -0.34965  -0.34690  -0.34425
 Alpha  occ. eigenvalues --   -0.34160  -0.34150  -0.33838  -0.33585  -0.33225
 Alpha  occ. eigenvalues --   -0.33082  -0.32948  -0.32810  -0.32540  -0.32211
 Alpha  occ. eigenvalues --   -0.31799  -0.31749  -0.31157  -0.30854  -0.30129
 Alpha  occ. eigenvalues --   -0.29861  -0.29764  -0.28931  -0.28291  -0.26424
 Alpha  occ. eigenvalues --   -0.26176  -0.26035  -0.25631  -0.25261  -0.21877
 Alpha  occ. eigenvalues --   -0.19856
 Alpha virt. eigenvalues --   -0.06941  -0.04128   0.00763   0.02193   0.03561
 Alpha virt. eigenvalues --    0.04451   0.04530   0.05161   0.05415   0.05688
 Alpha virt. eigenvalues --    0.06943   0.08881   0.09391   0.09408   0.09958

 Mulliken charges:
               1
     1  Mg   0.806577
     2  C    0.098192
     3  C   -0.222706
     4  C   -0.197655
     5  C   -0.161803
     6  N   -0.665090
     7  C    0.386096
     8  C   -0.191106
     9  C   -0.156080
    10  C    0.370530
    11  C   -0.310895
    12  C   -0.162597
    13  C   -0.268417
    14  C    0.615464
    15  O   -0.452073
    16  O   -0.494240
    17  N   -0.715757
    18  C    0.332424
    19  C    0.017917
    20  C    0.049347
    21  C    0.300540
    22  C   -0.375668
    23  C   -0.090093
    24  C   -0.195226
    25  N   -0.636237
    26  C    0.240300
    27  C    0.014009
    28  C    0.078226
    29  C    0.262686
    30  C   -0.378166
    31  C   -0.256291
    32  C   -0.291685
    33  N   -0.736470
    34  C    0.264844
    35  C    0.001582
    36  C    0.006497
    37  C    0.299807
    38  C   -0.383366
    39  C    0.325391
    40  O   -0.453807
    41  C   -0.264445
    42  C    0.615101
    43  O   -0.508463
    44  O   -0.435306
    45  C   -0.095093
    46  C    0.043294
    47  C   -0.113911
    48  C    0.090239
    49  C   -0.359861
    50  C   -0.226590
    51  C   -0.152622
    52  C   -0.164663
    53  C   -0.063860
    54  C   -0.276398
    55  C   -0.169302
    56  C   -0.156317
    57  C   -0.161345
    58  C   -0.050609
    59  C   -0.293846
    60  C   -0.197418
    61  C   -0.177189
    62  C   -0.168973
    63  C   -0.083105
    64  C   -0.290001
    65  C   -0.288235
    66  H    0.078843
    67  H    0.104347
    68  H    0.089507
    69  H    0.108489
    70  H    0.100107
    71  H    0.119497
    72  H    0.096788
    73  H    0.138165
    74  H    0.123028
    75  H    0.087629
    76  H    0.126892
    77  H    0.129458
    78  H    0.139487
    79  H    0.094070
    80  H    0.108395
    81  H    0.076001
    82  H    0.089850
    83  H    0.096484
    84  H    0.142924
    85  H    0.107216
    86  H    0.117206
    87  H    0.110190
    88  H    0.090254
    89  H    0.055868
    90  H    0.127072
    91  H    0.100069
    92  H    0.142898
    93  H    0.148799
    94  H    0.128768
    95  H    0.121109
    96  H    0.144405
    97  H    0.144529
    98  H    0.117593
    99  H    0.108423
   100  H    0.113598
   101  H    0.072714
   102  H    0.117539
   103  H    0.105177
   104  H    0.136760
   105  H    0.095956
   106  H    0.099647
   107  H    0.086216
   108  H    0.097180
   109  H    0.068832
   110  H    0.102726
   111  H    0.075935
   112  H    0.060657
   113  H    0.102409
   114  H    0.086066
   115  H    0.105019
   116  H    0.084279
   117  H    0.057592
   118  H    0.060699
   119  H    0.077601
   120  H    0.077085
   121  H    0.076299
   122  H    0.102861
   123  H    0.084455
   124  H    0.105761
   125  H    0.103477
   126  H    0.096325
   127  H    0.099475
   128  H    0.100977
   129  H    0.091595
   130  H    0.091211
   131  H    0.060471
   132  H    0.107743
   133  H    0.107903
   134  H    0.089421
   135  H    0.070061
   136  H    0.110455
   137  H    0.077389
 Sum of Mulliken charges =  -0.00000

 Dipole moment (field-independent basis, Debye):
    X=              1.7756    Y=              4.4038    Z=              0.3028  Tot=              4.7579
 Quadrupole moment (field-independent basis, Debye-Ang):
   XX=           -342.9090   YY=           -388.2049   ZZ=           -398.2977
   XY=            -21.7832   XZ=             10.8555   YZ=             -3.8585

 Normal termination of Gaussian 16 at Sat Sep 14 01:41:34 2019.
