 Gaussian 09, Revision D.01,
 Gaussian 09:  ES64L-G09RevD.01 24-Apr-2013

 -------------------------------------
 # td=(NStates=1) CAM-B3LYP/6-31G(d,p)
 -------------------------------------

 --
 TD
 --
 Symbolic Z-matrix:
 Charge =  0 Multiplicity = 1

                         Standard orientation:
 ---------------------------------------------------------------------
 Center     Atomic      Atomic             Coordinates (Angstroms)
 Number     Number       Type             X           Y           Z
 ---------------------------------------------------------------------
      1         12           0       -7.146644    0.563910    0.044107
      2          6           0       -4.879427   -1.930699    0.496710
      3          6           0       -4.861842    2.813014    1.082769
      4          6           0       -9.472702    3.225762   -0.355758
      5          6           0       -9.627790   -1.739877   -0.822620
      6          7           0       -5.216855    0.409289    0.658944
      7          6           0       -4.398634   -0.691377    0.775452
      8          6           0       -2.884481   -0.445976    1.262726
      9          6           0       -3.148392    1.006716    1.647915
     10          6           0       -4.499454    1.471002    1.084147
     11          6           0       -3.026090    1.266165    3.135445
     12          6           0       -1.913157   -0.614297    0.143481
     13          6           0       -0.491508   -0.392947    0.651357
     14          6           0        0.585933   -0.530028   -0.559000
     15          8           0        0.246919   -1.039514   -1.614337
     16          8           0        1.825440   -0.442549   -0.192908
     17          7           0       -7.086115    2.570133    0.283200
     18          6           0       -6.039283    3.352018    0.741519
     19          6           0       -6.407993    4.800942    0.739621
     20          6           0       -7.673294    4.887877    0.287334
     21          6           0       -8.111514    3.508408   -0.076310
     22          6           0       -5.410603    5.810870    1.203983
     23          6           0       -8.533257    6.075635    0.161164
     24          6           0       -8.408373    7.234848    0.828820
     25          7           0       -9.170083    0.684172   -0.534345
     26          6           0       -9.923804    1.860117   -0.697317
     27          6           0      -11.215384    1.498471   -1.096498
     28          6           0      -11.287363    0.033477   -1.187319
     29          6           0       -9.938222   -0.355385   -0.804850
     30          6           0      -12.269081    2.489887   -1.453605
     31          6           0      -12.316347   -0.791641   -1.592278
     32          6           0      -12.282045   -1.103673   -3.124418
     33          7           0       -7.266159   -1.341723   -0.247912
     34          6           0       -8.318379   -2.235738   -0.520787
     35          6           0       -7.864671   -3.611732   -0.493329
     36          6           0       -6.533388   -3.549338   -0.083026
     37          6           0       -6.188417   -2.179293    0.062005
     38          6           0       -8.703521   -4.858568   -0.776930
     39          6           0       -5.354361   -4.287074    0.239304
     40          8           0       -5.203012   -5.546540    0.119095
     41          6           0       -4.098677   -3.306818    0.592747
     42          6           0       -3.559330   -3.650113    1.894532
     43          8           0       -3.852731   -3.141479    2.951257
     44          8           0       -2.731280   -4.663346    1.781158
     45          6           0       -2.170379   -5.131272    3.044136
     46          6           0        2.746775   -0.777383   -1.202702
     47          6           0        4.154341   -0.561532   -0.620986
     48          6           0        5.085893    0.197496   -1.015527
     49          6           0        5.124042    1.215139   -2.189824
     50          6           0        6.435740    0.201564   -0.174270
     51          6           0        7.690885   -0.266093   -1.051742
     52          6           0        8.979363   -0.174591   -0.238494
     53          6           0       10.272530   -0.545193   -1.033651
     54          6           0       10.222255   -1.908506   -1.575888
     55          6           0       11.534373   -0.426341   -0.145398
     56          6           0       12.795707   -0.545179   -0.866720
     57          6           0       13.948010   -0.073147    0.131551
     58          6           0       15.325467   -0.154074   -0.435380
     59          6           0       15.825141   -1.498357   -0.902513
     60          6           0       16.402487    0.495598    0.593606
     61          6           0       17.816145    0.679109   -0.132476
     62          6           0       18.803488    1.304897    0.817720
     63          6           0       20.149288    1.245802    0.384338
     64          6           0       20.449717    2.171205   -0.935879
     65          6           0       21.223424    1.904461    1.443712
     66          1           0       -4.012714    3.340464    1.414241
     67          1           0      -10.092032    3.910303   -0.580261
     68          1           0      -10.429274   -2.500784   -1.184540
     69          1           0       -2.811111   -0.997593    1.945716
     70          1           0       -2.417495    1.783225    1.135999
     71          1           0       -2.105325    0.888906    3.383291
     72          1           0       -2.986225    2.249432    3.376139
     73          1           0       -3.945458    0.684362    3.639671
     74          1           0       -1.841420   -1.606100   -0.089906
     75          1           0       -2.088954    0.053778   -0.943525
     76          1           0       -0.464089    0.746493    1.170452
     77          1           0       -0.292223   -1.049809    1.505810
     78          1           0       -5.798731    6.761431    0.689653
     79          1           0       -5.523383    5.900782    2.355322
     80          1           0       -4.443090    5.538726    0.730618
     81          1           0       -9.327778    5.992488   -0.726291
     82          1           0       -8.874518    8.270708    0.498161
     83          1           0       -7.561175    7.014883    1.644231
     84          1           0      -11.966701    3.349634   -2.033238
     85          1           0      -13.121963    2.056053   -2.075356
     86          1           0      -12.631136    2.923079   -0.238760
     87          1           0      -12.346987   -1.737966   -0.931204
     88          1           0      -13.210345   -0.305950   -1.324642
     89          1           0      -13.228651   -1.701785   -3.507886
     90          1           0      -12.368823   -0.088477   -3.759026
     91          1           0      -11.393439   -1.723306   -3.570743
     92          1           0       -9.171284   -4.837894   -1.778188
     93          1           0       -8.147800   -5.775962   -0.822570
     94          1           0       -9.379273   -5.000715    0.152361
     95          1           0       -3.335104   -3.278324   -0.245313
     96          1           0       -1.568563   -4.312263    3.745908
     97          1           0       -2.923460   -5.460770    3.633414
     98          1           0       -1.453660   -5.910496    2.775207
     99          1           0        2.528695   -1.847644   -1.561631
    100          1           0        2.754937    0.005102   -2.081805
    101          1           0        4.439634   -1.301129    0.206528
    102          1           0        4.150145    1.082716   -2.643867
    103          1           0        5.330499    2.187964   -1.981007
    104          1           0        5.928413    0.838778   -2.870190
    105          1           0        6.496342    1.282083    0.117415
    106          1           0        6.245403   -0.412348    0.803979
    107          1           0        7.495773   -1.143551   -1.393662
    108          1           0        7.658640    0.551613   -1.873425
    109          1           0        9.227200    0.851674    0.099108
    110          1           0        9.029515   -0.997101    0.624687
    111          1           0       10.286419    0.104262   -1.873607
    112          1           0        9.324804   -2.022729   -2.040512
    113          1           0       11.010860   -1.950719   -2.323594
    114          1           0       10.117096   -2.823502   -0.744176
    115          1           0       11.520751    0.716367    0.115770
    116          1           0       11.479431   -1.139463    0.798875
    117          1           0       12.842374   -1.502895   -1.300362
    118          1           0       12.934943    0.094453   -1.816368
    119          1           0       13.911255    0.918990    0.503135
    120          1           0       13.864866   -0.898346    0.803475
    121          1           0       15.355643    0.481115   -1.491391
    122          1           0       15.522548   -2.315345    0.190610
    123          1           0       15.117143   -1.850414   -1.658369
    124          1           0       16.971720   -1.606135   -1.124755
    125          1           0       16.112709    1.393294    1.118480
    126          1           0       16.426244   -0.417429    1.245577
    127          1           0       18.219380   -0.138795   -0.501838
    128          1           0       17.923298    1.247094   -1.014553
    129          1           0       18.389483    2.276548    0.880974
    130          1           0       18.714323    0.838482    1.907554
    131          1           0       20.559670    0.170393   -0.036114
    132          1           0       19.956548    3.136488   -0.623945
    133          1           0       21.444130    2.130094   -1.459099
    134          1           0       19.876446    1.852015   -1.741299
    135          1           0       21.265453    1.322575    2.322948
    136          1           0       22.260212    1.942966    1.178352
    137          1           0       20.661701    2.927904    1.567154
 ---------------------------------------------------------------------

 SCF Done:  E(RCAM-B3LYP) =  -2932.56315785     A.U. after   17 cycles

 Excitation energies and oscillator strengths:

 Excited State   1:      Singlet-A      2.1178 eV  585.44 nm  f=0.2142  <S**2>=0.000
     240 -> 243       -0.26778
     241 -> 242        0.64581
 This state for optimization and/or second-order correction.
 Total Energy, E(TD-HF/TD-KS) =  -2932.48533009
 Copying the excited state density for this state as the 1-particle RhoCI density.

 The electronic state is 1-A.
 Alpha  occ. eigenvalues --  -46.82603 -19.27967 -19.26810 -19.20935 -19.20253
 Alpha  occ. eigenvalues --  -19.19312 -14.41748 -14.39729 -14.39356 -14.38113
 Alpha  occ. eigenvalues --  -10.39986 -10.38589 -10.35085 -10.33551 -10.31861
 Alpha  occ. eigenvalues --  -10.31176 -10.30391 -10.30234 -10.30200 -10.29632
 Alpha  occ. eigenvalues --  -10.29096 -10.28981 -10.28921 -10.28892 -10.28571
 Alpha  occ. eigenvalues --  -10.28555 -10.28535 -10.28381 -10.28151 -10.27874
 Alpha  occ. eigenvalues --  -10.27816 -10.27778 -10.27752 -10.27729 -10.27558
 Alpha  occ. eigenvalues --  -10.27531 -10.27427 -10.27330 -10.27308 -10.27245
 Alpha  occ. eigenvalues --  -10.26921 -10.26363 -10.26361 -10.26327 -10.26295
 Alpha  occ. eigenvalues --  -10.26198 -10.26134 -10.26098 -10.26083 -10.26038
 Alpha  occ. eigenvalues --  -10.26022 -10.25714 -10.25528 -10.25293 -10.25271
 Alpha  occ. eigenvalues --  -10.25184 -10.25062 -10.24947 -10.24764 -10.24733
 Alpha  occ. eigenvalues --  -10.24728 -10.24627 -10.24561 -10.24411 -10.23481
 Alpha  occ. eigenvalues --   -3.11987  -1.86666  -1.86227  -1.86205  -1.21536
 Alpha  occ. eigenvalues --   -1.19385  -1.09652  -1.09128  -1.07106  -1.04492
 Alpha  occ. eigenvalues --   -1.02480  -1.01907  -1.01173  -0.92064  -0.91679
 Alpha  occ. eigenvalues --   -0.91402  -0.90880  -0.90384  -0.89664  -0.88990
 Alpha  occ. eigenvalues --   -0.88656  -0.88344  -0.87283  -0.86182  -0.85847
 Alpha  occ. eigenvalues --   -0.85225  -0.84323  -0.83740  -0.83208  -0.82150
 Alpha  occ. eigenvalues --   -0.81627  -0.81353  -0.80590  -0.80250  -0.78583
 Alpha  occ. eigenvalues --   -0.77713  -0.77103  -0.76805  -0.75373  -0.75124
 Alpha  occ. eigenvalues --   -0.74972  -0.74416  -0.74373  -0.74049  -0.72401
 Alpha  occ. eigenvalues --   -0.71694  -0.70498  -0.69483  -0.69159  -0.68370
 Alpha  occ. eigenvalues --   -0.67694  -0.66744  -0.65571  -0.65307  -0.64937
 Alpha  occ. eigenvalues --   -0.64223  -0.63601  -0.62663  -0.62413  -0.62176
 Alpha  occ. eigenvalues --   -0.60291  -0.60163  -0.59895  -0.59123  -0.58439
 Alpha  occ. eigenvalues --   -0.58325  -0.57975  -0.57698  -0.57648  -0.56821
 Alpha  occ. eigenvalues --   -0.56424  -0.55724  -0.55688  -0.55074  -0.54977
 Alpha  occ. eigenvalues --   -0.54659  -0.54375  -0.54077  -0.53832  -0.53768
 Alpha  occ. eigenvalues --   -0.53204  -0.52724  -0.52427  -0.52022  -0.51944
 Alpha  occ. eigenvalues --   -0.51503  -0.51365  -0.50862  -0.50630  -0.50430
 Alpha  occ. eigenvalues --   -0.50046  -0.49924  -0.49851  -0.49706  -0.49466
 Alpha  occ. eigenvalues --   -0.49425  -0.49256  -0.48943  -0.48715  -0.48343
 Alpha  occ. eigenvalues --   -0.48225  -0.48076  -0.47698  -0.47357  -0.46934
 Alpha  occ. eigenvalues --   -0.46778  -0.46557  -0.46545  -0.46169  -0.45945
 Alpha  occ. eigenvalues --   -0.45715  -0.45556  -0.45248  -0.45085  -0.44947
 Alpha  occ. eigenvalues --   -0.44485  -0.44368  -0.44133  -0.44014  -0.43944
 Alpha  occ. eigenvalues --   -0.43774  -0.43745  -0.43364  -0.43263  -0.43129
 Alpha  occ. eigenvalues --   -0.42839  -0.42597  -0.42472  -0.42436  -0.42171
 Alpha  occ. eigenvalues --   -0.41988  -0.41872  -0.41838  -0.41612  -0.41162
 Alpha  occ. eigenvalues --   -0.41130  -0.41059  -0.41008  -0.40710  -0.40610
 Alpha  occ. eigenvalues --   -0.40212  -0.39824  -0.39696  -0.39346  -0.39266
 Alpha  occ. eigenvalues --   -0.39252  -0.38919  -0.38451  -0.38270  -0.37575
 Alpha  occ. eigenvalues --   -0.37536  -0.37411  -0.37306  -0.37012  -0.36508
 Alpha  occ. eigenvalues --   -0.36408  -0.36099  -0.35654  -0.35475  -0.35380
 Alpha  occ. eigenvalues --   -0.34685  -0.34480  -0.34009  -0.34007  -0.33698
 Alpha  occ. eigenvalues --   -0.32830  -0.32626  -0.32037  -0.31417  -0.30795
 Alpha  occ. eigenvalues --   -0.29377  -0.29151  -0.28361  -0.26015  -0.23284
 Alpha  occ. eigenvalues --   -0.21129
 Alpha virt. eigenvalues --   -0.05971  -0.03547   0.01305   0.03956   0.05215
 Alpha virt. eigenvalues --    0.05982   0.06578   0.06855   0.07262   0.07937
 Alpha virt. eigenvalues --    0.08247   0.10316   0.11230   0.11335   0.11602

 Mulliken charges:
               1
     1  Mg   0.804155
     2  C    0.022387
     3  C   -0.221606
     4  C   -0.097869
     5  C   -0.163009
     6  N   -0.662454
     7  C    0.244073
     8  C   -0.023692
     9  C   -0.197111
    10  C    0.381655
    11  C   -0.284924
    12  C   -0.147555
    13  C   -0.270798
    14  C    0.586839
    15  O   -0.467163
    16  O   -0.410293
    17  N   -0.691748
    18  C    0.358661
    19  C    0.021199
    20  C    0.010633
    21  C    0.260549
    22  C   -0.370258
    23  C   -0.051010
    24  C   -0.266341
    25  N   -0.692742
    26  C    0.258047
    27  C   -0.004054
    28  C    0.068570
    29  C    0.331658
    30  C   -0.358341
    31  C   -0.279145
    32  C   -0.296654
    33  N   -0.738983
    34  C    0.254890
    35  C    0.002766
    36  C    0.080954
    37  C    0.288680
    38  C   -0.375086
    39  C    0.316328
    40  O   -0.495066
    41  C   -0.305128
    42  C    0.642199
    43  O   -0.491284
    44  O   -0.436961
    45  C   -0.081790
    46  C   -0.002145
    47  C   -0.145583
    48  C    0.116756
    49  C   -0.354691
    50  C   -0.227626
    51  C   -0.163766
    52  C   -0.158087
    53  C   -0.079225
    54  C   -0.295173
    55  C   -0.141798
    56  C   -0.201810
    57  C   -0.151644
    58  C   -0.059074
    59  C   -0.271462
    60  C   -0.184554
    61  C   -0.180799
    62  C   -0.152832
    63  C   -0.079075
    64  C   -0.319479
    65  C   -0.293759
    66  H    0.070439
    67  H    0.061450
    68  H    0.114756
    69  H    0.087301
    70  H    0.086350
    71  H    0.115949
    72  H    0.115315
    73  H    0.110136
    74  H    0.125754
    75  H    0.103188
    76  H    0.085887
    77  H    0.136118
    78  H    0.120514
    79  H    0.129995
    80  H    0.126029
    81  H    0.083632
    82  H    0.123436
    83  H    0.094363
    84  H    0.125217
    85  H    0.106600
    86  H    0.072137
    87  H    0.100824
    88  H    0.118432
    89  H    0.087577
    90  H    0.095676
    91  H    0.107617
    92  H    0.122014
    93  H    0.152522
    94  H    0.124151
    95  H    0.170532
    96  H    0.100118
    97  H    0.152713
    98  H    0.129344
    99  H    0.135013
   100  H    0.104154
   101  H    0.081491
   102  H    0.105593
   103  H    0.132769
   104  H    0.120990
   105  H    0.098363
   106  H    0.085694
   107  H    0.115928
   108  H    0.083840
   109  H    0.091424
   110  H    0.072179
   111  H    0.087674
   112  H    0.104116
   113  H    0.104195
   114  H    0.067806
   115  H    0.070233
   116  H    0.084559
   117  H    0.107733
   118  H    0.078050
   119  H    0.104942
   120  H    0.099588
   121  H    0.044865
   122  H    0.011697
   123  H    0.115995
   124  H    0.113827
   125  H    0.093057
   126  H    0.101141
   127  H    0.096369
   128  H    0.097779
   129  H    0.098596
   130  H    0.077994
   131  H    0.061060
   132  H    0.092285
   133  H    0.102113
   134  H    0.100033
   135  H    0.100192
   136  H    0.106535
   137  H    0.086690
 Sum of Mulliken charges =   0.00000

 Dipole moment (field-independent basis, Debye):
    X=              2.9226    Y=              4.8186    Z=             -0.3143  Tot=              5.6444
 Quadrupole moment (field-independent basis, Debye-Ang):
   XX=           -376.3253   YY=           -393.8412   ZZ=           -396.4031
   XY=            -21.4090   XZ=              1.3263   YZ=             -5.2099

 Normal termination of Gaussian 09 at Sat Jul  6 10:49:44 2019.
