 Gaussian 16, Revision A.03,
 Gaussian 16:  ES64L-G16RevA.03 25-Dec-2016

 ----------------------------------------------------------------------
 # td=(NStates=1) iop(3/107=0140000000,3/108=0140000000) CAM-B3LYP/6-31
 G(d,p)
 ----------------------------------------------------------------------

 --
 TD
 --
 Symbolic Z-matrix:
 Charge =  0 Multiplicity = 1

                         Standard orientation:
 ---------------------------------------------------------------------
 Center     Atomic      Atomic             Coordinates (Angstroms)
 Number     Number       Type             X           Y           Z
 ---------------------------------------------------------------------
      1         12           0       -7.128884    0.604439    0.054866
      2          6           0       -4.955426   -2.002739    0.531254
      3          6           0       -4.796553    2.830414    1.020499
      4          6           0       -9.390275    3.121611   -0.390261
      5          6           0       -9.564008   -1.728123   -0.900172
      6          7           0       -5.173810    0.463737    0.741134
      7          6           0       -4.436258   -0.761510    0.818523
      8          6           0       -3.030612   -0.455946    1.301686
      9          6           0       -3.050980    1.031483    1.729917
     10          6           0       -4.314048    1.526345    1.184529
     11          6           0       -3.163545    1.162587    3.258304
     12          6           0       -1.958539   -0.599412    0.163572
     13          6           0       -0.561531   -0.400599    0.555461
     14          6           0        0.440096   -0.388355   -0.651197
     15          8           0        0.299035   -0.839504   -1.813867
     16          8           0        1.683018   -0.251595   -0.079320
     17          7           0       -7.084071    2.597643    0.287193
     18          6           0       -6.042854    3.331784    0.699443
     19          6           0       -6.372929    4.680948    0.769503
     20          6           0       -7.659548    4.849965    0.271243
     21          6           0       -8.104157    3.459425   -0.027545
     22          6           0       -5.443241    5.859752    1.223944
     23          6           0       -8.491235    5.964298    0.095940
     24          6           0       -8.478507    7.206184    0.718841
     25          7           0       -9.101199    0.644382   -0.541605
     26          6           0       -9.749791    1.806484   -0.593984
     27          6           0      -11.190469    1.479565   -1.039947
     28          6           0      -11.251808    0.126645   -1.167495
     29          6           0       -9.987238   -0.346596   -0.860907
     30          6           0      -12.228921    2.429394   -1.274432
     31          6           0      -12.387329   -0.690585   -1.766607
     32          6           0      -12.211234   -1.148605   -3.220665
     33          7           0       -7.194560   -1.376272   -0.240959
     34          6           0       -8.261211   -2.173605   -0.638560
     35          6           0       -7.916879   -3.553135   -0.576142
     36          6           0       -6.572390   -3.579883   -0.154276
     37          6           0       -6.246819   -2.255098    0.017408
     38          6           0       -8.644393   -4.889762   -0.892076
     39          6           0       -5.347631   -4.347851    0.097852
     40          8           0       -5.170462   -5.535250    0.053350
     41          6           0       -4.225489   -3.273613    0.592171
     42          6           0       -3.614721   -3.758759    1.795717
     43          8           0       -3.706039   -3.154454    2.887556
     44          8           0       -2.812420   -4.835128    1.670810
     45          6           0       -2.289511   -5.326741    2.920852
     46          6           0        2.742786   -0.632036   -1.132534
     47          6           0        4.156395   -0.468029   -0.514061
     48          6           0        5.141482    0.394448   -0.771097
     49          6           0        5.056941    1.374008   -1.986960
     50          6           0        6.395335    0.352398   -0.166377
     51          6           0        7.620466   -0.078789   -0.984529
     52          6           0        8.872558   -0.086910   -0.080266
     53          6           0       10.195400   -0.468072   -0.825239
     54          6           0       10.300878   -1.941431   -1.256041
     55          6           0       11.437960   -0.282900    0.015776
     56          6           0       12.866236   -0.385127   -0.573011
     57          6           0       14.078084   -0.072175    0.121534
     58          6           0       15.456578   -0.180761   -0.569940
     59          6           0       15.658765   -1.551078   -0.916741
     60          6           0       16.494561    0.420877    0.423206
     61          6           0       17.898435    0.430897   -0.216867
     62          6           0       18.942599    1.102940    0.733163
     63          6           0       20.285880    1.217568    0.223117
     64          6           0       20.230634    2.061757   -1.121879
     65          6           0       21.333801    1.822565    1.258299
     66          1           0       -4.175187    3.487095    1.653297
     67          1           0      -10.159302    3.982679   -0.293991
     68          1           0      -10.309771   -2.501087   -1.265573
     69          1           0       -2.759925   -1.169317    2.315898
     70          1           0       -2.166559    1.638718    1.470577
     71          1           0       -2.253309    0.750032    3.775046
     72          1           0       -3.245642    2.084323    3.836250
     73          1           0       -3.938095    0.618469    3.579280
     74          1           0       -2.061959   -1.782350   -0.166086
     75          1           0       -2.108009    0.230865   -0.652898
     76          1           0       -0.427351    0.747480    0.981534
     77          1           0       -0.251229   -1.133041    1.416160
     78          1           0       -5.572391    6.649036    0.526036
     79          1           0       -5.554565    6.063010    2.291544
     80          1           0       -4.439018    5.428694    1.077299
     81          1           0       -9.308020    5.685859   -0.575092
     82          1           0       -9.173175    8.008745    0.531509
     83          1           0       -7.670297    7.514918    1.444620
     84          1           0      -12.035344    2.975497   -2.334396
     85          1           0      -13.098005    1.991989   -1.590860
     86          1           0      -12.507990    3.060945   -0.475448
     87          1           0      -12.456394   -1.648244   -1.288652
     88          1           0      -13.308400    0.096774   -1.618607
     89          1           0      -12.888054   -1.990704   -3.517548
     90          1           0      -12.245207   -0.269180   -3.830010
     91          1           0      -11.100089   -1.531782   -3.234512
     92          1           0       -8.638930   -4.888844   -1.927824
     93          1           0       -8.027124   -5.891005   -0.485724
     94          1           0       -9.706504   -4.846818   -0.434393
     95          1           0       -3.415697   -3.236281   -0.395990
     96          1           0       -1.912124   -4.547466    3.713104
     97          1           0       -3.142079   -5.745167    3.625105
     98          1           0       -1.392013   -6.027784    2.487040
     99          1           0        2.655972   -1.671474   -1.223940
    100          1           0        2.591205   -0.178233   -1.951960
    101          1           0        4.353920   -1.114250    0.322663
    102          1           0        4.072140    1.488613   -2.260095
    103          1           0        5.497042    2.428664   -1.663734
    104          1           0        5.604148    0.961237   -2.899791
    105          1           0        6.762377    1.486366    0.138210
    106          1           0        6.195351   -0.101041    0.834350
    107          1           0        7.265759   -1.212995   -1.175097
    108          1           0        7.622231    0.522443   -1.917838
    109          1           0        8.673579    1.013320    0.227243
    110          1           0        8.655342   -0.699628    0.785894
    111          1           0       10.387221    0.131810   -1.872463
    112          1           0        9.612151   -2.428625   -2.072289
    113          1           0       11.292215   -2.215412   -1.743158
    114          1           0       10.143007   -2.578670   -0.343628
    115          1           0       11.335143    0.675067    0.419216
    116          1           0       11.398875   -1.256625    0.817657
    117          1           0       13.028820   -1.344252   -0.828954
    118          1           0       12.701926    0.274844   -1.619190
    119          1           0       14.159735    1.040284    0.771337
    120          1           0       13.941790   -0.921600    0.967465
    121          1           0       15.236099    0.355559   -1.491869
    122          1           0       15.573818   -2.436039   -0.221927
    123          1           0       14.916619   -2.038179   -1.602641
    124          1           0       16.663654   -1.763754   -1.503714
    125          1           0       16.049434    1.485874    0.531774
    126          1           0       16.418687   -0.253973    1.427167
    127          1           0       18.508599   -0.383599   -0.532321
    128          1           0       17.801176    1.077397   -1.190353
    129          1           0       18.345666    2.245221    0.635984
    130          1           0       19.018935    0.798678    1.811960
    131          1           0       20.740797    0.227908   -0.242826
    132          1           0       19.899843    3.087978   -0.852770
    133          1           0       21.259804    2.288153   -1.567762
    134          1           0       19.565174    1.660111   -2.104896
    135          1           0       21.104929    1.138330    2.180060
    136          1           0       22.292234    1.676915    1.012152
    137          1           0       21.184652    2.798542    1.604748
 ---------------------------------------------------------------------

 SCF Done:  E(RCAM-B3LYP) =  -2933.43136524     A.U. after   16 cycles

 Excitation energies and oscillator strengths:

 Excited State   1:      Singlet-A      2.0160 eV  615.00 nm  f=0.2527  <S**2>=0.000
     240 -> 243       -0.23055
     241 -> 242        0.66421
 This state for optimization and/or second-order correction.
 Total Energy, E(TD-HF/TD-DFT) =  -2933.35727847
 Copying the excited state density for this state as the 1-particle RhoCI density.

 The electronic state is 1-A.
 Alpha  occ. eigenvalues --  -46.79084 -19.22602 -19.21882 -19.17170 -19.16389
 Alpha  occ. eigenvalues --  -19.15968 -14.37355 -14.35440 -14.35062 -14.34934
 Alpha  occ. eigenvalues --  -10.35134 -10.34352 -10.30870 -10.29026 -10.26722
 Alpha  occ. eigenvalues --  -10.26304 -10.26075 -10.25291 -10.25112 -10.24886
 Alpha  occ. eigenvalues --  -10.24865 -10.24828 -10.24733 -10.24591 -10.24356
 Alpha  occ. eigenvalues --  -10.24208 -10.24056 -10.24050 -10.23944 -10.23738
 Alpha  occ. eigenvalues --  -10.23537 -10.23331 -10.23313 -10.23066 -10.23049
 Alpha  occ. eigenvalues --  -10.23022 -10.23001 -10.22953 -10.22755 -10.22755
 Alpha  occ. eigenvalues --  -10.22698 -10.22654 -10.22275 -10.22058 -10.22030
 Alpha  occ. eigenvalues --  -10.22013 -10.21955 -10.21895 -10.21878 -10.21798
 Alpha  occ. eigenvalues --  -10.21704 -10.21693 -10.21681 -10.21599 -10.21590
 Alpha  occ. eigenvalues --  -10.21567 -10.21516 -10.21271 -10.21104 -10.21073
 Alpha  occ. eigenvalues --  -10.20844 -10.20786 -10.20477 -10.20382 -10.20181
 Alpha  occ. eigenvalues --   -3.07874  -1.82808  -1.82361  -1.82281  -1.12814
 Alpha  occ. eigenvalues --   -1.10670  -1.07024  -1.02524  -1.01880  -1.00105
 Alpha  occ. eigenvalues --   -0.99468  -0.98602  -0.96011  -0.87957  -0.87171
 Alpha  occ. eigenvalues --   -0.86515  -0.84795  -0.84627  -0.84514  -0.84106
 Alpha  occ. eigenvalues --   -0.83708  -0.83563  -0.82704  -0.82081  -0.81194
 Alpha  occ. eigenvalues --   -0.80511  -0.79157  -0.79075  -0.78410  -0.77884
 Alpha  occ. eigenvalues --   -0.76725  -0.76264  -0.75708  -0.75364  -0.73675
 Alpha  occ. eigenvalues --   -0.72994  -0.72568  -0.71807  -0.71233  -0.71063
 Alpha  occ. eigenvalues --   -0.70596  -0.69837  -0.69332  -0.68853  -0.68245
 Alpha  occ. eigenvalues --   -0.67558  -0.65695  -0.65308  -0.64651  -0.64259
 Alpha  occ. eigenvalues --   -0.63310  -0.62367  -0.61266  -0.60312  -0.60174
 Alpha  occ. eigenvalues --   -0.59965  -0.58357  -0.57887  -0.57495  -0.57236
 Alpha  occ. eigenvalues --   -0.56834  -0.56423  -0.56005  -0.55378  -0.55100
 Alpha  occ. eigenvalues --   -0.54819  -0.53944  -0.53802  -0.53109  -0.52393
 Alpha  occ. eigenvalues --   -0.52148  -0.51580  -0.51360  -0.51164  -0.50727
 Alpha  occ. eigenvalues --   -0.50582  -0.50137  -0.49713  -0.49418  -0.48870
 Alpha  occ. eigenvalues --   -0.48738  -0.48509  -0.48450  -0.48333  -0.48017
 Alpha  occ. eigenvalues --   -0.47612  -0.47317  -0.47268  -0.47211  -0.47042
 Alpha  occ. eigenvalues --   -0.46917  -0.46751  -0.46299  -0.46156  -0.45769
 Alpha  occ. eigenvalues --   -0.45496  -0.45457  -0.45331  -0.44791  -0.44721
 Alpha  occ. eigenvalues --   -0.44482  -0.44192  -0.44117  -0.43995  -0.43516
 Alpha  occ. eigenvalues --   -0.43513  -0.43253  -0.43037  -0.42877  -0.42589
 Alpha  occ. eigenvalues --   -0.42471  -0.42271  -0.42137  -0.41799  -0.41658
 Alpha  occ. eigenvalues --   -0.41482  -0.41294  -0.41275  -0.40563  -0.40465
 Alpha  occ. eigenvalues --   -0.40264  -0.40196  -0.40131  -0.39805  -0.39574
 Alpha  occ. eigenvalues --   -0.39421  -0.39281  -0.39101  -0.39017  -0.38739
 Alpha  occ. eigenvalues --   -0.38270  -0.38218  -0.37989  -0.37824  -0.37737
 Alpha  occ. eigenvalues --   -0.37664  -0.37487  -0.37317  -0.37235  -0.37087
 Alpha  occ. eigenvalues --   -0.36860  -0.36619  -0.36555  -0.36041  -0.35849
 Alpha  occ. eigenvalues --   -0.35724  -0.35278  -0.34591  -0.34454  -0.34424
 Alpha  occ. eigenvalues --   -0.34200  -0.34078  -0.33917  -0.33743  -0.33624
 Alpha  occ. eigenvalues --   -0.33111  -0.33028  -0.32954  -0.32749  -0.32506
 Alpha  occ. eigenvalues --   -0.31916  -0.31845  -0.30870  -0.30676  -0.30140
 Alpha  occ. eigenvalues --   -0.30099  -0.29973  -0.29599  -0.28370  -0.27323
 Alpha  occ. eigenvalues --   -0.27290  -0.26862  -0.25937  -0.24694  -0.21647
 Alpha  occ. eigenvalues --   -0.20166
 Alpha virt. eigenvalues --   -0.07320  -0.03930   0.00032   0.01301   0.01469
 Alpha virt. eigenvalues --    0.02459   0.02957   0.04743   0.05149   0.05568
 Alpha virt. eigenvalues --    0.06313   0.08807   0.08952   0.09201   0.09499

 Mulliken charges:
               1
     1  Mg   0.799723
     2  C    0.122314
     3  C   -0.218283
     4  C   -0.166769
     5  C   -0.180981
     6  N   -0.629475
     7  C    0.308423
     8  C   -0.165957
     9  C   -0.148422
    10  C    0.329689
    11  C   -0.324199
    12  C   -0.142808
    13  C   -0.240481
    14  C    0.593547
    15  O   -0.475685
    16  O   -0.477966
    17  N   -0.723852
    18  C    0.371893
    19  C   -0.022615
    20  C    0.050507
    21  C    0.294323
    22  C   -0.368068
    23  C   -0.096072
    24  C   -0.257546
    25  N   -0.701941
    26  C    0.336246
    27  C    0.005426
    28  C    0.062213
    29  C    0.276569
    30  C   -0.396023
    31  C   -0.227282
    32  C   -0.301133
    33  N   -0.721749
    34  C    0.284470
    35  C   -0.035053
    36  C    0.078777
    37  C    0.284000
    38  C   -0.366504
    39  C    0.337584
    40  O   -0.444386
    41  C   -0.367881
    42  C    0.653636
    43  O   -0.502339
    44  O   -0.429331
    45  C   -0.086097
    46  C    0.040052
    47  C   -0.160381
    48  C    0.163830
    49  C   -0.362655
    50  C   -0.237175
    51  C   -0.165101
    52  C   -0.151099
    53  C   -0.050904
    54  C   -0.311363
    55  C   -0.137820
    56  C   -0.151287
    57  C   -0.143831
    58  C   -0.035605
    59  C   -0.316126
    60  C   -0.149838
    61  C   -0.182968
    62  C   -0.132727
    63  C   -0.050673
    64  C   -0.305978
    65  C   -0.315109
    66  H    0.072238
    67  H    0.108347
    68  H    0.089962
    69  H    0.123367
    70  H    0.105384
    71  H    0.098373
    72  H    0.109138
    73  H    0.141981
    74  H    0.089692
    75  H    0.109829
    76  H    0.100285
    77  H    0.135893
    78  H    0.132450
    79  H    0.127970
    80  H    0.111008
    81  H    0.083053
    82  H    0.109613
    83  H    0.100126
    84  H    0.099488
    85  H    0.116664
    86  H    0.128763
    87  H    0.107331
    88  H    0.076980
    89  H    0.108987
    90  H    0.115572
    91  H    0.094674
    92  H    0.147476
    93  H    0.132481
    94  H    0.110625
    95  H    0.146207
    96  H    0.128266
    97  H    0.125640
    98  H    0.114757
    99  H    0.135179
   100  H    0.128473
   101  H    0.077936
   102  H    0.118398
   103  H    0.096665
   104  H    0.117549
   105  H    0.059376
   106  H    0.094875
   107  H    0.077887
   108  H    0.108668
   109  H    0.084820
   110  H    0.107723
   111  H    0.066554
   112  H    0.084032
   113  H    0.106152
   114  H    0.096147
   115  H    0.096403
   116  H    0.045756
   117  H    0.109820
   118  H    0.034424
   119  H    0.031081
   120  H    0.060857
   121  H    0.101403
   122  H    0.097883
   123  H    0.097775
   124  H    0.082505
   125  H    0.097354
   126  H    0.087013
   127  H    0.104432
   128  H    0.090589
   129  H    0.045816
   130  H    0.083131
   131  H    0.076282
   132  H    0.100781
   133  H    0.084752
   134  H    0.077326
   135  H    0.081727
   136  H    0.117645
   137  H    0.118506
 Sum of Mulliken charges =  -0.00000

 Dipole moment (field-independent basis, Debye):
    X=              1.0087    Y=              3.4994    Z=              0.4611  Tot=              3.6710
 Quadrupole moment (field-independent basis, Debye-Ang):
   XX=           -332.9521   YY=           -395.9796   ZZ=           -398.5231
   XY=            -23.4675   XZ=              8.3023   YZ=              0.1997

 Normal termination of Gaussian 16 at Wed Sep 11 17:25:26 2019.
