 Gaussian 16, Revision A.03,
 Gaussian 16:  ES64L-G16RevA.03 25-Dec-2016

 ----------------------------------------------------------------------
 # td=(NStates=1) iop(3/107=0140000000,3/108=0140000000) CAM-B3LYP/6-31
 G(d,p)
 ----------------------------------------------------------------------

 --
 TD
 --
 Symbolic Z-matrix:
 Charge =  0 Multiplicity = 1

                         Standard orientation:
 ---------------------------------------------------------------------
 Center     Atomic      Atomic             Coordinates (Angstroms)
 Number     Number       Type             X           Y           Z
 ---------------------------------------------------------------------
      1         12           0       -7.163542    0.601177    0.056367
      2          6           0       -4.880710   -1.902905    0.473081
      3          6           0       -4.838788    2.887715    1.121352
      4          6           0       -9.443120    3.125979   -0.442350
      5          6           0       -9.446379   -1.695726   -1.007308
      6          7           0       -5.137964    0.400881    0.759424
      7          6           0       -4.385870   -0.642346    0.932722
      8          6           0       -3.014184   -0.397912    1.240424
      9          6           0       -3.027629    1.123009    1.646644
     10          6           0       -4.359022    1.611434    1.105967
     11          6           0       -2.925473    1.436319    3.140957
     12          6           0       -1.985453   -0.705988    0.111300
     13          6           0       -0.499503   -0.616744    0.563053
     14          6           0        0.519632   -0.746625   -0.570769
     15          8           0        0.175008   -0.934911   -1.749296
     16          8           0        1.752845   -0.566891   -0.173588
     17          7           0       -7.099054    2.641150    0.254649
     18          6           0       -6.112370    3.404118    0.725623
     19          6           0       -6.465269    4.809476    0.752807
     20          6           0       -7.782669    4.872669    0.325103
     21          6           0       -8.163491    3.509006    0.040427
     22          6           0       -5.576139    6.032681    1.011345
     23          6           0       -8.590095    6.038853   -0.035435
     24          6           0       -8.513185    7.133094    0.828663
     25          7           0       -8.997186    0.618249   -0.555689
     26          6           0       -9.851280    1.820410   -0.656855
     27          6           0      -11.165077    1.476067   -1.216478
     28          6           0      -11.225796    0.080039   -1.209193
     29          6           0       -9.923092   -0.330305   -0.836936
     30          6           0      -12.445175    2.339021   -1.273063
     31          6           0      -12.309494   -0.794975   -1.661079
     32          6           0      -12.344000   -1.204244   -3.150320
     33          7           0       -7.220346   -1.356794   -0.224543
     34          6           0       -8.229716   -2.245693   -0.713894
     35          6           0       -7.742158   -3.764076   -0.491881
     36          6           0       -6.464036   -3.506925   -0.167748
     37          6           0       -6.137175   -2.195787    0.048389
     38          6           0       -8.442701   -4.981014   -0.766073
     39          6           0       -5.276845   -4.357505    0.164957
     40          8           0       -5.188859   -5.518477    0.275071
     41          6           0       -4.088214   -3.294879    0.555491
     42          6           0       -3.467618   -3.678357    1.946331
     43          8           0       -3.762755   -3.059638    2.935804
     44          8           0       -2.619483   -4.723889    1.802585
     45          6           0       -2.216649   -5.257852    3.111256
     46          6           0        2.880544   -0.770167   -1.197762
     47          6           0        4.077951   -0.519810   -0.514296
     48          6           0        5.109210    0.251039   -0.915549
     49          6           0        5.079772    1.234405   -2.054136
     50          6           0        6.373660    0.282076   -0.040413
     51          6           0        7.583433   -0.178998   -0.902682
     52          6           0        8.862777   -0.157643   -0.115064
     53          6           0       10.210949   -0.518542   -0.886268
     54          6           0       10.117358   -2.037335   -1.274681
     55          6           0       11.482163   -0.210087    0.016514
     56          6           0       12.829337   -0.424425   -0.737861
     57          6           0       13.964944   -0.108036    0.079702
     58          6           0       15.378588   -0.035604   -0.625706
     59          6           0       15.738743   -1.300788   -1.321533
     60          6           0       16.471679    0.363878    0.399155
     61          6           0       17.912715    0.401139   -0.161837
     62          6           0       18.885753    1.125232    0.808112
     63          6           0       20.197390    1.369620    0.300156
     64          6           0       20.340608    2.138932   -0.935500
     65          6           0       21.119816    2.008944    1.324364
     66          1           0       -4.027292    3.610645    1.607712
     67          1           0      -10.155332    3.761886   -0.738227
     68          1           0      -10.203785   -2.514919   -1.284769
     69          1           0       -2.662955   -1.023461    2.150195
     70          1           0       -2.249267    1.744078    1.177124
     71          1           0       -1.914116    1.011811    3.613076
     72          1           0       -3.269527    2.547771    3.304782
     73          1           0       -3.705740    0.778139    3.686450
     74          1           0       -2.279936   -1.607956   -0.079523
     75          1           0       -1.964090    0.186320   -0.577354
     76          1           0       -0.221948    0.362564    1.048118
     77          1           0       -0.342378   -1.379605    1.230015
     78          1           0       -5.575620    6.618906    0.234991
     79          1           0       -5.788404    6.675704    2.082086
     80          1           0       -4.637658    5.895280    1.036670
     81          1           0       -9.256546    5.750358   -0.692049
     82          1           0       -9.325944    8.035741    0.625386
     83          1           0       -7.620328    7.199827    1.516907
     84          1           0      -12.434751    2.987607   -2.043292
     85          1           0      -13.484756    1.815203   -1.340251
     86          1           0      -12.803496    2.764619   -0.376504
     87          1           0      -12.451995   -1.747534   -0.952542
     88          1           0      -13.334034   -0.370399   -1.695392
     89          1           0      -13.124655   -1.777334   -3.266253
     90          1           0      -12.677424   -0.232499   -3.829544
     91          1           0      -11.292304   -1.395583   -3.538982
     92          1           0       -9.027560   -4.905763   -1.681511
     93          1           0       -7.818018   -5.815135   -0.844227
     94          1           0       -9.312946   -5.073198   -0.038236
     95          1           0       -3.222210   -3.249437   -0.292607
     96          1           0       -1.504516   -4.405038    3.411721
     97          1           0       -3.171885   -5.326793    3.791960
     98          1           0       -1.737017   -6.155264    2.699970
     99          1           0        2.814573   -1.871333   -1.431412
    100          1           0        2.320608   -0.154951   -2.083233
    101          1           0        4.038951   -1.200615    0.383894
    102          1           0        4.079686    1.234441   -2.457516
    103          1           0        5.435750    2.243101   -1.747210
    104          1           0        5.837452    1.034645   -2.808269
    105          1           0        6.572204    1.303021    0.386572
    106          1           0        6.381849   -0.426299    0.789294
    107          1           0        7.365740   -1.197549   -1.270214
    108          1           0        7.662352    0.298817   -1.782611
    109          1           0        9.098886    0.859177    0.214512
    110          1           0        8.628192   -0.631052    0.901449
    111          1           0       10.331993   -0.033003   -1.811045
    112          1           0        9.456160   -2.168776   -2.079713
    113          1           0       11.063528   -2.149908   -1.837380
    114          1           0       10.152806   -2.729302   -0.471900
    115          1           0       11.232507    0.850722    0.391258
    116          1           0       11.349213   -0.731353    0.863072
    117          1           0       12.791861   -1.495166   -0.984961
    118          1           0       12.766736    0.005695   -1.773278
    119          1           0       13.753613    0.846926    0.478397
    120          1           0       13.916671   -0.694331    0.960803
    121          1           0       15.331315    0.867500   -1.429395
    122          1           0       15.840183   -2.083929   -0.627258
    123          1           0       14.802414   -1.753831   -1.913619
    124          1           0       16.583561   -1.266705   -1.983871
    125          1           0       16.224831    1.317674    0.859499
    126          1           0       16.517950   -0.578649    1.263469
    127          1           0       18.351864   -0.490584   -0.187491
    128          1           0       17.958667    1.061647   -1.076076
    129          1           0       18.449593    2.090436    1.161132
    130          1           0       18.935628    0.538032    1.775402
    131          1           0       20.802798    0.388247    0.086037
    132          1           0       19.827819    3.186668   -0.914033
    133          1           0       21.355260    2.201065   -1.566766
    134          1           0       19.673341    1.364790   -1.496012
    135          1           0       21.374493    1.488324    2.348548
    136          1           0       22.180339    2.077191    0.948789
    137          1           0       20.835463    2.961413    1.589972
 ---------------------------------------------------------------------

 SCF Done:  E(RCAM-B3LYP) =  -2933.46731488     A.U. after   15 cycles

 Excitation energies and oscillator strengths:

 Excited State   1:      Singlet-A      2.1168 eV  585.71 nm  f=0.1867  <S**2>=0.000
     240 -> 242       -0.10010
     240 -> 243       -0.26737
     241 -> 242        0.64027
 This state for optimization and/or second-order correction.
 Total Energy, E(TD-HF/TD-DFT) =  -2933.38952282
 Copying the excited state density for this state as the 1-particle RhoCI density.

 The electronic state is 1-A.
 Alpha  occ. eigenvalues --  -46.78267 -19.22498 -19.21486 -19.17553 -19.17407
 Alpha  occ. eigenvalues --  -19.15046 -14.36992 -14.34875 -14.34797 -14.34231
 Alpha  occ. eigenvalues --  -10.34843 -10.33619 -10.31029 -10.28674 -10.28627
 Alpha  occ. eigenvalues --  -10.25726 -10.25417 -10.25228 -10.25033 -10.25013
 Alpha  occ. eigenvalues --  -10.24516 -10.24318 -10.24243 -10.23916 -10.23644
 Alpha  occ. eigenvalues --  -10.23535 -10.23300 -10.22985 -10.22900 -10.22787
 Alpha  occ. eigenvalues --  -10.22749 -10.22555 -10.22544 -10.22477 -10.22340
 Alpha  occ. eigenvalues --  -10.22297 -10.22277 -10.22254 -10.22150 -10.22019
 Alpha  occ. eigenvalues --  -10.21960 -10.21869 -10.21804 -10.21797 -10.21684
 Alpha  occ. eigenvalues --  -10.21572 -10.21510 -10.21438 -10.21230 -10.21041
 Alpha  occ. eigenvalues --  -10.21016 -10.21015 -10.20991 -10.20965 -10.20885
 Alpha  occ. eigenvalues --  -10.20717 -10.20678 -10.20660 -10.20348 -10.20328
 Alpha  occ. eigenvalues --  -10.20123 -10.20055 -10.19667 -10.19469 -10.19264
 Alpha  occ. eigenvalues --   -3.07150  -1.82058  -1.81652  -1.81565  -1.13067
 Alpha  occ. eigenvalues --   -1.12089  -1.09696  -1.05435  -1.01878  -0.98618
 Alpha  occ. eigenvalues --   -0.97680  -0.96619  -0.95554  -0.86787  -0.86619
 Alpha  occ. eigenvalues --   -0.85712  -0.85375  -0.84533  -0.83685  -0.83565
 Alpha  occ. eigenvalues --   -0.83305  -0.82989  -0.82331  -0.81843  -0.81458
 Alpha  occ. eigenvalues --   -0.79876  -0.79180  -0.78193  -0.77748  -0.77242
 Alpha  occ. eigenvalues --   -0.77191  -0.76168  -0.75786  -0.75319  -0.74049
 Alpha  occ. eigenvalues --   -0.73256  -0.72662  -0.71779  -0.71122  -0.70635
 Alpha  occ. eigenvalues --   -0.70522  -0.70225  -0.70089  -0.68552  -0.67190
 Alpha  occ. eigenvalues --   -0.66478  -0.66184  -0.65134  -0.64291  -0.63309
 Alpha  occ. eigenvalues --   -0.63136  -0.62317  -0.61479  -0.60139  -0.59972
 Alpha  occ. eigenvalues --   -0.59821  -0.58567  -0.57907  -0.57752  -0.57229
 Alpha  occ. eigenvalues --   -0.57100  -0.57076  -0.55864  -0.55653  -0.54987
 Alpha  occ. eigenvalues --   -0.54081  -0.53434  -0.53326  -0.52929  -0.52532
 Alpha  occ. eigenvalues --   -0.52166  -0.51507  -0.51352  -0.51278  -0.50804
 Alpha  occ. eigenvalues --   -0.50506  -0.50193  -0.49962  -0.49702  -0.49111
 Alpha  occ. eigenvalues --   -0.48967  -0.48780  -0.48329  -0.48166  -0.48007
 Alpha  occ. eigenvalues --   -0.47698  -0.47604  -0.47336  -0.46996  -0.46834
 Alpha  occ. eigenvalues --   -0.46776  -0.46239  -0.46187  -0.45978  -0.45837
 Alpha  occ. eigenvalues --   -0.45598  -0.45272  -0.44994  -0.44943  -0.44780
 Alpha  occ. eigenvalues --   -0.44660  -0.44331  -0.44012  -0.43864  -0.43815
 Alpha  occ. eigenvalues --   -0.43638  -0.43473  -0.42907  -0.42882  -0.42534
 Alpha  occ. eigenvalues --   -0.42517  -0.42038  -0.41965  -0.41767  -0.41606
 Alpha  occ. eigenvalues --   -0.41368  -0.41182  -0.41067  -0.40802  -0.40750
 Alpha  occ. eigenvalues --   -0.40540  -0.40438  -0.40340  -0.39934  -0.39745
 Alpha  occ. eigenvalues --   -0.39676  -0.39350  -0.39256  -0.39020  -0.38680
 Alpha  occ. eigenvalues --   -0.38655  -0.38529  -0.38449  -0.38329  -0.37835
 Alpha  occ. eigenvalues --   -0.37766  -0.37498  -0.37185  -0.37039  -0.36751
 Alpha  occ. eigenvalues --   -0.36569  -0.36498  -0.36193  -0.36026  -0.35982
 Alpha  occ. eigenvalues --   -0.35917  -0.35687  -0.35279  -0.35035  -0.34507
 Alpha  occ. eigenvalues --   -0.34321  -0.33926  -0.33505  -0.33474  -0.33306
 Alpha  occ. eigenvalues --   -0.33185  -0.32900  -0.32867  -0.32483  -0.32258
 Alpha  occ. eigenvalues --   -0.32164  -0.31770  -0.31011  -0.30791  -0.30710
 Alpha  occ. eigenvalues --   -0.30404  -0.29268  -0.28797  -0.27972  -0.27496
 Alpha  occ. eigenvalues --   -0.26958  -0.26763  -0.25749  -0.23759  -0.20914
 Alpha  occ. eigenvalues --   -0.19223
 Alpha virt. eigenvalues --   -0.05668  -0.03732   0.00609   0.02324   0.02760
 Alpha virt. eigenvalues --    0.03937   0.05085   0.05199   0.05665   0.06106
 Alpha virt. eigenvalues --    0.06662   0.08670   0.09279   0.09893   0.10228

 Mulliken charges:
               1
     1  Mg   0.814252
     2  C    0.002532
     3  C   -0.201475
     4  C   -0.134952
     5  C   -0.230633
     6  N   -0.615253
     7  C    0.402327
     8  C   -0.194512
     9  C   -0.141805
    10  C    0.296428
    11  C   -0.296789
    12  C   -0.107560
    13  C   -0.277000
    14  C    0.594341
    15  O   -0.503867
    16  O   -0.472759
    17  N   -0.683297
    18  C    0.312229
    19  C   -0.002220
    20  C    0.005461
    21  C    0.256036
    22  C   -0.349394
    23  C   -0.030787
    24  C   -0.238059
    25  N   -0.677288
    26  C    0.231470
    27  C   -0.004414
    28  C    0.082454
    29  C    0.317574
    30  C   -0.379321
    31  C   -0.257834
    32  C   -0.292111
    33  N   -0.723498
    34  C    0.249466
    35  C    0.060378
    36  C    0.010519
    37  C    0.351211
    38  C   -0.404513
    39  C    0.370982
    40  O   -0.412167
    41  C   -0.333214
    42  C    0.616681
    43  O   -0.459429
    44  O   -0.451220
    45  C   -0.090747
    46  C   -0.018675
    47  C   -0.115899
    48  C    0.128775
    49  C   -0.366426
    50  C   -0.228348
    51  C   -0.179558
    52  C   -0.173235
    53  C   -0.075154
    54  C   -0.316205
    55  C   -0.182135
    56  C   -0.179678
    57  C   -0.165269
    58  C   -0.046655
    59  C   -0.307531
    60  C   -0.152747
    61  C   -0.175076
    62  C   -0.172190
    63  C   -0.046135
    64  C   -0.285868
    65  C   -0.305651
    66  H    0.077796
    67  H    0.074078
    68  H    0.065310
    69  H    0.113012
    70  H    0.099382
    71  H    0.092477
    72  H    0.102376
    73  H    0.112883
    74  H    0.094919
    75  H    0.119919
    76  H    0.127002
    77  H    0.128884
    78  H    0.138679
    79  H    0.075483
    80  H    0.105975
    81  H    0.077958
    82  H    0.083417
    83  H    0.111593
    84  H    0.128046
    85  H    0.097240
    86  H    0.134244
    87  H    0.085921
    88  H    0.102287
    89  H    0.120854
    90  H    0.069834
    91  H    0.113745
    92  H    0.137222
    93  H    0.153500
    94  H    0.132395
    95  H    0.139762
    96  H    0.129019
    97  H    0.143749
    98  H    0.141862
    99  H    0.132602
   100  H    0.137899
   101  H    0.104465
   102  H    0.118150
   103  H    0.122349
   104  H    0.126555
   105  H    0.100385
   106  H    0.102216
   107  H    0.095952
   108  H    0.098198
   109  H    0.081535
   110  H    0.076408
   111  H    0.088326
   112  H    0.106419
   113  H    0.086439
   114  H    0.109057
   115  H    0.071387
   116  H    0.104679
   117  H    0.099763
   118  H    0.085869
   119  H    0.095802
   120  H    0.094383
   121  H    0.058901
   122  H    0.108892
   123  H    0.075100
   124  H    0.113001
   125  H    0.094193
   126  H    0.044228
   127  H    0.112125
   128  H    0.098084
   129  H    0.079831
   130  H    0.090969
   131  H    0.072434
   132  H    0.087297
   133  H    0.097385
   134  H    0.089373
   135  H    0.070417
   136  H    0.087983
   137  H    0.105566
 Sum of Mulliken charges =  -0.00000

 Dipole moment (field-independent basis, Debye):
    X=              3.2797    Y=              0.7318    Z=              0.4258  Tot=              3.3872
 Quadrupole moment (field-independent basis, Debye-Ang):
   XX=           -344.3020   YY=           -386.9241   ZZ=           -400.0333
   XY=             -2.7592   XZ=              6.3754   YZ=             -6.7979

 Normal termination of Gaussian 16 at Tue Sep 17 06:53:03 2019.
