 Gaussian 16, Revision A.03,
 Gaussian 16:  ES64L-G16RevA.03 25-Dec-2016

 ----------------------------------------------------------------------
 # td=(NStates=1) iop(3/107=0140000000,3/108=0140000000) CAM-B3LYP/6-31
 G(d,p)
 ----------------------------------------------------------------------

 --
 TD
 --
 Symbolic Z-matrix:
 Charge =  0 Multiplicity = 1

                         Standard orientation:
 ---------------------------------------------------------------------
 Center     Atomic      Atomic             Coordinates (Angstroms)
 Number     Number       Type             X           Y           Z
 ---------------------------------------------------------------------
      1         12           0       -7.143599    0.645498    0.056323
      2          6           0       -4.908212   -1.936490    0.519738
      3          6           0       -4.840657    2.798237    1.163883
      4          6           0       -9.395973    3.132849   -0.438418
      5          6           0       -9.489947   -1.626271   -0.954405
      6          7           0       -5.156347    0.403236    0.814557
      7          6           0       -4.342780   -0.693987    0.824994
      8          6           0       -2.988512   -0.376650    1.206674
      9          6           0       -3.045727    1.106379    1.650985
     10          6           0       -4.410743    1.433829    1.190563
     11          6           0       -2.965035    1.197634    3.253099
     12          6           0       -2.037523   -0.641772   -0.057123
     13          6           0       -0.562998   -0.560053    0.497985
     14          6           0        0.546014   -0.765721   -0.599614
     15          8           0        0.175447   -1.086175   -1.741404
     16          8           0        1.751361   -0.500347   -0.145732
     17          7           0       -7.017851    2.672019    0.347610
     18          6           0       -5.989874    3.398453    0.777311
     19          6           0       -6.307640    4.785018    0.789173
     20          6           0       -7.680030    4.848993    0.395349
     21          6           0       -8.052887    3.546508   -0.036752
     22          6           0       -5.380594    5.915280    1.084388
     23          6           0       -8.582942    5.911941    0.234473
     24          6           0       -8.358040    7.141341    0.862819
     25          7           0       -9.101308    0.784682   -0.554578
     26          6           0       -9.800066    1.858709   -0.645236
     27          6           0      -11.179959    1.467234   -1.108734
     28          6           0      -11.212172    0.095613   -1.276920
     29          6           0       -9.919543   -0.292990   -0.930618
     30          6           0      -12.239458    2.512067   -1.354993
     31          6           0      -12.432082   -0.729943   -1.706375
     32          6           0      -12.162281   -1.186511   -3.175595
     33          7           0       -7.215459   -1.392718   -0.187581
     34          6           0       -8.295237   -2.168055   -0.496815
     35          6           0       -7.848300   -3.685892   -0.408394
     36          6           0       -6.501318   -3.571480   -0.140834
     37          6           0       -6.202424   -2.160273    0.060681
     38          6           0       -8.713429   -4.653411   -0.839964
     39          6           0       -5.391195   -4.242930    0.207982
     40          8           0       -5.251157   -5.553271    0.141047
     41          6           0       -4.260803   -3.326510    0.513811
     42          6           0       -3.591864   -3.781729    1.900182
     43          8           0       -3.768261   -3.206862    2.982111
     44          8           0       -2.783540   -4.782921    1.673658
     45          6           0       -1.974882   -5.336727    2.803704
     46          6           0        2.781222   -0.666363   -1.192841
     47          6           0        4.107048   -0.429829   -0.519632
     48          6           0        5.124659    0.408213   -0.936391
     49          6           0        5.002337    1.305774   -2.158900
     50          6           0        6.316356    0.235827   -0.217700
     51          6           0        7.574637   -0.300096   -1.017804
     52          6           0        8.907751    0.003759   -0.219881
     53          6           0       10.228031   -0.424908   -0.777065
     54          6           0       10.157595   -1.963081   -1.172245
     55          6           0       11.481650   -0.234628    0.091269
     56          6           0       12.852680   -0.468588   -0.592687
     57          6           0       13.965613   -0.029357    0.254602
     58          6           0       15.331623   -0.237748   -0.466389
     59          6           0       15.640558   -1.738816   -0.889418
     60          6           0       16.417988    0.459054    0.491293
     61          6           0       17.822822    0.542575   -0.174075
     62          6           0       18.802425    1.254271    0.745714
     63          6           0       20.197550    1.403373    0.148092
     64          6           0       20.228829    2.149292   -1.147985
     65          6           0       21.195859    1.895482    1.157110
     66          1           0       -4.121520    3.527919    1.503453
     67          1           0      -10.057869    3.979397   -0.635274
     68          1           0      -10.308505   -2.314896   -1.306507
     69          1           0       -2.602393   -1.064760    2.116473
     70          1           0       -2.143918    1.760745    1.307828
     71          1           0       -1.873178    0.924322    3.491820
     72          1           0       -3.173581    2.241702    3.349360
     73          1           0       -3.693134    0.524769    3.718145
     74          1           0       -2.110214   -1.549613   -0.653446
     75          1           0       -2.141758    0.159434   -0.745998
     76          1           0       -0.256798    0.534626    1.221202
     77          1           0       -0.538851   -1.384438    1.239727
     78          1           0       -5.450779    6.789889    0.422809
     79          1           0       -5.751987    6.456668    2.131153
     80          1           0       -4.161651    5.697326    1.275923
     81          1           0       -9.245194    5.691414   -0.407212
     82          1           0       -8.929457    8.072183    0.556887
     83          1           0       -7.552836    7.248891    1.453501
     84          1           0      -11.855565    2.936193   -2.240018
     85          1           0      -13.189298    2.082279   -1.687260
     86          1           0      -12.484310    3.263364   -0.574493
     87          1           0      -12.465265   -1.634283   -1.109890
     88          1           0      -13.464030   -0.385924   -1.686227
     89          1           0      -12.886780   -2.125967   -3.410516
     90          1           0      -12.330905   -0.355962   -3.935207
     91          1           0      -11.039126   -1.421877   -3.162097
     92          1           0       -8.857679   -4.828019   -1.917285
     93          1           0       -8.364637   -5.637949   -0.386277
     94          1           0       -9.892270   -4.457832   -0.349882
     95          1           0       -3.354470   -3.496354   -0.163968
     96          1           0       -1.292173   -4.672514    3.147753
     97          1           0       -2.722222   -5.628669    3.454757
     98          1           0       -1.484324   -6.300500    2.509930
     99          1           0        2.680045   -1.729252   -1.518315
    100          1           0        2.464752    0.011166   -1.852947
    101          1           0        4.416868   -1.337586    0.093661
    102          1           0        4.059159    1.718151   -2.606318
    103          1           0        5.585389    2.024628   -1.586383
    104          1           0        5.559265    0.988585   -2.941746
    105          1           0        6.691260    1.244083    0.101036
    106          1           0        6.185673   -0.324536    0.571920
    107          1           0        7.214971   -1.438073   -1.096055
    108          1           0        7.611496    0.018710   -2.246792
    109          1           0        8.944973    1.039901   -0.079405
    110          1           0        8.776325   -0.256903    0.926842
    111          1           0       10.513607   -0.030799   -1.807203
    112          1           0        9.348124   -2.376993   -1.803177
    113          1           0       10.976368   -2.226414   -1.679592
    114          1           0       10.118120   -2.434074   -0.216913
    115          1           0       11.622965    0.581934    0.531537
    116          1           0       11.492746   -0.877262    1.078702
    117          1           0       13.002909   -1.533252   -0.779412
    118          1           0       12.834629   -0.003435   -1.522665
    119          1           0       13.945267    1.111773    0.379846
    120          1           0       13.746723   -0.558947    1.195571
    121          1           0       15.392157    0.329399   -1.350291
    122          1           0       15.899968   -2.301548    0.099986
    123          1           0       14.833378   -2.142346   -1.404967
    124          1           0       16.480411   -1.789997   -1.521111
    125          1           0       16.232541    1.452322    0.608740
    126          1           0       16.542022   -0.218926    1.318200
    127          1           0       18.191260   -0.568586   -0.237697
    128          1           0       17.816269    1.051585   -1.279651
    129          1           0       18.405267    2.229752    0.962949
    130          1           0       18.954616    0.700658    1.758802
    131          1           0       20.333034    0.133630    0.310074
    132          1           0       19.858498    3.108900   -1.248227
    133          1           0       21.223642    2.517282   -1.587456
    134          1           0       19.757254    1.871048   -2.053999
    135          1           0       20.930998    1.244869    2.093467
    136          1           0       22.294805    1.597635    0.759212
    137          1           0       21.319356    3.100054    1.174812
 ---------------------------------------------------------------------

 SCF Done:  E(RCAM-B3LYP) =  -2933.43298892     A.U. after   16 cycles

 Excitation energies and oscillator strengths:

 Excited State   1:      Singlet-A      1.9319 eV  641.77 nm  f=0.2868  <S**2>=0.000
     240 -> 243       -0.22129
     241 -> 242        0.66535
 This state for optimization and/or second-order correction.
 Total Energy, E(TD-HF/TD-DFT) =  -2933.36199222
 Copying the excited state density for this state as the 1-particle RhoCI density.

 The electronic state is 1-A.
 Alpha  occ. eigenvalues --  -46.80227 -19.22565 -19.22419 -19.16143 -19.15706
 Alpha  occ. eigenvalues --  -19.13408 -14.37635 -14.35400 -14.34604 -14.34103
 Alpha  occ. eigenvalues --  -10.34455 -10.34393 -10.27972 -10.26985 -10.26808
 Alpha  occ. eigenvalues --  -10.25897 -10.25720 -10.25220 -10.25094 -10.24915
 Alpha  occ. eigenvalues --  -10.24528 -10.24453 -10.24379 -10.24273 -10.24116
 Alpha  occ. eigenvalues --  -10.24073 -10.24039 -10.23825 -10.23716 -10.23588
 Alpha  occ. eigenvalues --  -10.23534 -10.23462 -10.22890 -10.22865 -10.22865
 Alpha  occ. eigenvalues --  -10.22658 -10.22596 -10.22465 -10.22446 -10.22336
 Alpha  occ. eigenvalues --  -10.22336 -10.22314 -10.22297 -10.22172 -10.22120
 Alpha  occ. eigenvalues --  -10.21986 -10.21890 -10.21874 -10.21705 -10.21613
 Alpha  occ. eigenvalues --  -10.21369 -10.21346 -10.21221 -10.21005 -10.20983
 Alpha  occ. eigenvalues --  -10.20938 -10.20894 -10.20620 -10.20456 -10.20303
 Alpha  occ. eigenvalues --  -10.20154 -10.20145 -10.20020 -10.19543 -10.18688
 Alpha  occ. eigenvalues --   -3.08750  -1.83704  -1.83219  -1.83147  -1.13288
 Alpha  occ. eigenvalues --   -1.12743  -1.03286  -1.02606  -1.00948  -1.00069
 Alpha  occ. eigenvalues --   -0.99309  -0.98541  -0.97658  -0.87933  -0.87829
 Alpha  occ. eigenvalues --   -0.85918  -0.84937  -0.84817  -0.84234  -0.83864
 Alpha  occ. eigenvalues --   -0.83691  -0.83251  -0.82275  -0.81928  -0.80778
 Alpha  occ. eigenvalues --   -0.79993  -0.79559  -0.78657  -0.77873  -0.77677
 Alpha  occ. eigenvalues --   -0.77111  -0.76934  -0.76214  -0.75935  -0.73785
 Alpha  occ. eigenvalues --   -0.73469  -0.73061  -0.72765  -0.72012  -0.71618
 Alpha  occ. eigenvalues --   -0.71185  -0.70259  -0.69796  -0.69090  -0.67245
 Alpha  occ. eigenvalues --   -0.66792  -0.65746  -0.64912  -0.64343  -0.64279
 Alpha  occ. eigenvalues --   -0.63631  -0.62575  -0.60661  -0.60559  -0.60521
 Alpha  occ. eigenvalues --   -0.60035  -0.59409  -0.58977  -0.58512  -0.58467
 Alpha  occ. eigenvalues --   -0.57384  -0.57236  -0.56954  -0.56288  -0.55425
 Alpha  occ. eigenvalues --   -0.54422  -0.53999  -0.53890  -0.53844  -0.52766
 Alpha  occ. eigenvalues --   -0.52531  -0.52301  -0.52106  -0.51352  -0.51185
 Alpha  occ. eigenvalues --   -0.51038  -0.50174  -0.49892  -0.49620  -0.49249
 Alpha  occ. eigenvalues --   -0.49001  -0.48651  -0.48573  -0.48537  -0.48203
 Alpha  occ. eigenvalues --   -0.48132  -0.47743  -0.47405  -0.46984  -0.46905
 Alpha  occ. eigenvalues --   -0.46659  -0.46378  -0.46188  -0.45962  -0.45925
 Alpha  occ. eigenvalues --   -0.45605  -0.45277  -0.45062  -0.44955  -0.44770
 Alpha  occ. eigenvalues --   -0.44404  -0.44237  -0.44087  -0.44001  -0.43556
 Alpha  occ. eigenvalues --   -0.43391  -0.43228  -0.43049  -0.42987  -0.42521
 Alpha  occ. eigenvalues --   -0.42209  -0.42022  -0.41958  -0.41680  -0.41428
 Alpha  occ. eigenvalues --   -0.41288  -0.41082  -0.40902  -0.40762  -0.40694
 Alpha  occ. eigenvalues --   -0.40423  -0.39878  -0.39763  -0.39594  -0.39477
 Alpha  occ. eigenvalues --   -0.39419  -0.39246  -0.39041  -0.38813  -0.38795
 Alpha  occ. eigenvalues --   -0.38713  -0.38209  -0.38121  -0.37814  -0.37633
 Alpha  occ. eigenvalues --   -0.37478  -0.37431  -0.37292  -0.37106  -0.37098
 Alpha  occ. eigenvalues --   -0.36926  -0.36717  -0.36632  -0.36277  -0.36179
 Alpha  occ. eigenvalues --   -0.35880  -0.35789  -0.35626  -0.35465  -0.35301
 Alpha  occ. eigenvalues --   -0.35234  -0.34826  -0.34658  -0.34091  -0.34023
 Alpha  occ. eigenvalues --   -0.33562  -0.33352  -0.33145  -0.32651  -0.32565
 Alpha  occ. eigenvalues --   -0.32394  -0.31896  -0.31063  -0.30359  -0.29728
 Alpha  occ. eigenvalues --   -0.29574  -0.29376  -0.28751  -0.27839  -0.26702
 Alpha  occ. eigenvalues --   -0.26423  -0.25524  -0.25072  -0.23334  -0.21179
 Alpha  occ. eigenvalues --   -0.19209
 Alpha virt. eigenvalues --   -0.06922  -0.03826  -0.00874   0.01779   0.02105
 Alpha virt. eigenvalues --    0.03675   0.04546   0.04648   0.05222   0.05482
 Alpha virt. eigenvalues --    0.06573   0.08248   0.08537   0.09129   0.09604

 Mulliken charges:
               1
     1  Mg   0.810181
     2  C    0.091709
     3  C   -0.208541
     4  C   -0.182406
     5  C   -0.204457
     6  N   -0.627684
     7  C    0.326899
     8  C   -0.178337
     9  C   -0.163624
    10  C    0.377527
    11  C   -0.299506
    12  C   -0.171092
    13  C   -0.248446
    14  C    0.603634
    15  O   -0.496950
    16  O   -0.446960
    17  N   -0.724172
    18  C    0.375659
    19  C    0.047542
    20  C    0.010118
    21  C    0.247188
    22  C   -0.393099
    23  C   -0.026359
    24  C   -0.248061
    25  N   -0.720163
    26  C    0.387474
    27  C   -0.041002
    28  C    0.070867
    29  C    0.279006
    30  C   -0.386199
    31  C   -0.231991
    32  C   -0.303844
    33  N   -0.719968
    34  C    0.249933
    35  C    0.082385
    36  C    0.131337
    37  C    0.289890
    38  C   -0.412620
    39  C    0.302870
    40  O   -0.539124
    41  C   -0.315969
    42  C    0.598203
    43  O   -0.494057
    44  O   -0.426990
    45  C   -0.092616
    46  C    0.015250
    47  C   -0.158727
    48  C    0.134231
    49  C   -0.353900
    50  C   -0.237291
    51  C   -0.164935
    52  C   -0.167059
    53  C   -0.073373
    54  C   -0.312746
    55  C   -0.161770
    56  C   -0.183978
    57  C   -0.167786
    58  C   -0.069396
    59  C   -0.323554
    60  C   -0.159495
    61  C   -0.178418
    62  C   -0.162701
    63  C    0.002736
    64  C   -0.347082
    65  C   -0.280910
    66  H    0.053973
    67  H    0.085379
    68  H    0.081611
    69  H    0.116107
    70  H    0.104770
    71  H    0.101632
    72  H    0.115640
    73  H    0.136057
    74  H    0.134125
    75  H    0.123994
    76  H    0.069911
    77  H    0.125127
    78  H    0.136898
    79  H    0.097719
    80  H    0.094727
    81  H    0.065147
    82  H    0.093325
    83  H    0.089090
    84  H    0.135942
    85  H    0.107373
    86  H    0.122636
    87  H    0.113469
    88  H    0.112962
    89  H    0.081313
    90  H    0.107884
    91  H    0.109252
    92  H    0.148689
    93  H    0.140498
    94  H    0.084887
    95  H    0.156311
    96  H    0.142293
    97  H    0.153436
    98  H    0.131438
    99  H    0.132389
   100  H    0.124020
   101  H    0.081059
   102  H    0.123354
   103  H    0.115054
   104  H    0.140329
   105  H    0.090875
   106  H    0.123805
   107  H    0.085236
   108  H    0.069239
   109  H    0.107860
   110  H    0.080625
   111  H    0.081883
   112  H    0.093406
   113  H    0.106877
   114  H    0.101156
   115  H    0.097650
   116  H    0.058815
   117  H    0.100617
   118  H    0.091715
   119  H    0.077474
   120  H    0.089810
   121  H    0.087883
   122  H    0.085855
   123  H    0.113112
   124  H    0.114162
   125  H    0.100004
   126  H    0.097139
   127  H    0.075521
   128  H    0.069640
   129  H    0.083270
   130  H    0.072183
   131  H    0.049812
   132  H    0.116502
   133  H    0.085761
   134  H    0.113042
   135  H    0.089908
   136  H    0.086836
   137  H    0.085223
 Sum of Mulliken charges =  -0.00000

 Dipole moment (field-independent basis, Debye):
    X=              4.4817    Y=              4.0708    Z=             -0.7745  Tot=              6.1039
 Quadrupole moment (field-independent basis, Debye-Ang):
   XX=           -350.5022   YY=           -398.7621   ZZ=           -397.9714
   XY=             -9.3717   XZ=              8.0215   YZ=             -9.6087

 Normal termination of Gaussian 16 at Sun Sep 15 03:27:16 2019.
