 Gaussian 16, Revision A.03,
 Gaussian 16:  ES64L-G16RevA.03 25-Dec-2016

 -------------------------------------
 # td=(NStates=1) CAM-B3LYP/6-31G(d,p)
 -------------------------------------

 --
 TD
 --
 Symbolic Z-matrix:
 Charge =  0 Multiplicity = 1

                         Standard orientation:
 ---------------------------------------------------------------------
 Center     Atomic      Atomic             Coordinates (Angstroms)
 Number     Number       Type             X           Y           Z
 ---------------------------------------------------------------------
      1         12           0       -7.157891    0.550682    0.125992
      2          6           0       -4.918887   -1.928263    0.681333
      3          6           0       -4.832207    2.818188    1.146662
      4          6           0       -9.318194    3.049662   -0.425731
      5          6           0       -9.480592   -1.651903   -0.915752
      6          7           0       -5.219693    0.489846    0.865901
      7          6           0       -4.354969   -0.671956    1.002683
      8          6           0       -2.891257   -0.403788    1.360670
      9          6           0       -3.032963    1.079325    1.837297
     10          6           0       -4.357313    1.513873    1.152102
     11          6           0       -3.115453    1.258878    3.299724
     12          6           0       -1.957350   -0.577284    0.177036
     13          6           0       -0.439039   -0.461226    0.617258
     14          6           0        0.497477   -0.635004   -0.593281
     15          8           0        0.147636   -1.024339   -1.646661
     16          8           0        1.734512   -0.290208   -0.227275
     17          7           0       -7.108327    2.618547    0.352068
     18          6           0       -6.105758    3.367377    0.760681
     19          6           0       -6.452154    4.718519    0.824149
     20          6           0       -7.691744    4.860880    0.257126
     21          6           0       -8.125887    3.409509    0.017575
     22          6           0       -5.603377    5.862339    1.165995
     23          6           0       -8.653199    5.882998    0.068899
     24          6           0       -8.604439    7.158849    0.644549
     25          7           0       -9.039080    0.702206   -0.549040
     26          6           0       -9.846529    1.796889   -0.704991
     27          6           0      -11.204898    1.440559   -1.171650
     28          6           0      -11.128329    0.108675   -1.379039
     29          6           0       -9.901718   -0.290104   -0.878624
     30          6           0      -12.369215    2.474988   -1.443124
     31          6           0      -12.250146   -0.820375   -1.731322
     32          6           0      -12.226208   -1.132495   -3.248676
     33          7           0       -7.193746   -1.410342   -0.081899
     34          6           0       -8.273095   -2.276049   -0.536480
     35          6           0       -7.743301   -3.658396   -0.575972
     36          6           0       -6.489406   -3.553707   -0.100823
     37          6           0       -6.210533   -2.191148    0.133619
     38          6           0       -8.529797   -4.751640   -0.974259
     39          6           0       -5.193796   -4.343096    0.133591
     40          8           0       -5.044925   -5.588589    0.154847
     41          6           0       -4.142820   -3.286035    0.663959
     42          6           0       -3.518632   -3.662583    1.946460
     43          8           0       -3.718201   -3.115489    3.041754
     44          8           0       -2.550899   -4.622878    1.711145
     45          6           0       -2.138542   -5.200442    2.844097
     46          6           0        2.731893   -0.658823   -1.138737
     47          6           0        4.102348   -0.406691   -0.535527
     48          6           0        5.145956    0.330977   -0.942365
     49          6           0        5.068393    1.145144   -2.211048
     50          6           0        6.427933    0.374176   -0.124730
     51          6           0        7.602989    0.003600   -1.039065
     52          6           0        8.945444   -0.027284   -0.328513
     53          6           0       10.167823   -0.601541   -1.043208
     54          6           0       10.092967   -2.071338   -1.377932
     55          6           0       11.410056   -0.321105   -0.073960
     56          6           0       12.754923   -0.527255   -0.785581
     57          6           0       13.984828   -0.094541    0.107293
     58          6           0       15.343823   -0.313742   -0.536235
     59          6           0       15.749186   -1.770116   -0.744632
     60          6           0       16.457060    0.375816    0.404858
     61          6           0       17.838215    0.461887   -0.041530
     62          6           0       18.840672    1.277430    0.749526
     63          6           0       20.247456    1.468120    0.229641
     64          6           0       20.172241    2.297463   -1.032200
     65          6           0       21.133652    2.078609    1.329500
     66          1           0       -4.177739    3.450351    1.346769
     67          1           0      -10.054306    3.865439   -0.586565
     68          1           0      -10.319224   -2.429301   -1.316375
     69          1           0       -2.700126   -1.205868    2.143654
     70          1           0       -2.122461    1.632448    1.352920
     71          1           0       -2.032452    0.962449    3.738375
     72          1           0       -3.310282    2.186200    3.504584
     73          1           0       -3.833165    0.608668    3.635924
     74          1           0       -2.082873   -1.585403   -0.237548
     75          1           0       -2.172820    0.188601   -0.509255
     76          1           0       -0.313944    0.567654    1.054827
     77          1           0       -0.285971   -1.146214    1.388407
     78          1           0       -5.901163    6.809734    0.725905
     79          1           0       -5.492117    5.842313    2.385805
     80          1           0       -4.556510    5.620045    0.770592
     81          1           0       -9.430877    5.752310   -0.791037
     82          1           0       -9.050980    7.898780    0.476039
     83          1           0       -8.004063    6.988135    1.483424
     84          1           0      -12.222855    3.079461   -2.390787
     85          1           0      -13.274945    1.658940   -1.551942
     86          1           0      -12.874454    3.130179   -0.581237
     87          1           0      -12.263054   -1.617823   -1.228517
     88          1           0      -13.207846   -0.339314   -1.673855
     89          1           0      -13.228013   -1.598634   -3.602387
     90          1           0      -12.113396   -0.159622   -3.629077
     91          1           0      -11.375100   -2.035123   -3.441579
     92          1           0       -8.744513   -4.830432   -2.100253
     93          1           0       -8.127249   -5.812686   -0.813350
     94          1           0       -9.420779   -4.836876   -0.459065
     95          1           0       -3.275084   -3.276892   -0.141521
     96          1           0       -1.440197   -4.536973    3.592134
     97          1           0       -2.933668   -5.689329    3.528257
     98          1           0       -1.748832   -6.266158    2.687621
     99          1           0        2.516216   -1.657901   -1.691724
    100          1           0        2.607415   -0.174930   -2.216693
    101          1           0        4.347588   -1.010632    0.533168
    102          1           0        4.116588    1.349834   -2.760275
    103          1           0        5.457566    2.162314   -2.074901
    104          1           0        5.830856    0.827976   -3.033295
    105          1           0        6.723921    1.471799   -0.010025
    106          1           0        6.261837   -0.150936    0.823545
    107          1           0        7.486379   -1.032653   -1.083163
    108          1           0        7.793548    0.666639   -1.954155
    109          1           0        9.045660    0.956214   -0.068863
    110          1           0        8.900885   -0.695924    0.568325
    111          1           0       10.378923   -0.057386   -1.930683
    112          1           0        9.166817   -2.319718   -2.081078
    113          1           0       10.967631   -2.594216   -1.825057
    114          1           0        9.970328   -2.580815   -0.296734
    115          1           0       11.403133    0.713523    0.332756
    116          1           0       11.614711   -0.782039    0.913275
    117          1           0       12.966404   -1.638156   -1.146337
    118          1           0       12.740142    0.054719   -1.727175
    119          1           0       13.908334    0.997249    0.217507
    120          1           0       13.917059   -0.711485    0.990085
    121          1           0       15.338515    0.205240   -1.672483
    122          1           0       15.634225   -2.535023    0.118068
    123          1           0       14.975618   -2.053996   -1.537011
    124          1           0       16.826973   -2.017735   -1.263653
    125          1           0       16.259277    1.469938    0.474668
    126          1           0       16.594342   -0.134539    1.333953
    127          1           0       18.168951   -0.433686   -0.387529
    128          1           0       17.620358    0.883119   -1.042345
    129          1           0       18.341918    2.277307    1.003785
    130          1           0       18.795111    0.662467    1.759986
    131          1           0       20.654231    0.363441    0.087025
    132          1           0       19.462556    3.260463   -0.987249
    133          1           0       21.158926    2.782503   -1.440289
    134          1           0       19.738635    1.749263   -1.741728
    135          1           0       21.064346    1.522047    2.243261
    136          1           0       22.228460    2.159279    0.976586
    137          1           0       20.700747    2.932628    1.416182
 ---------------------------------------------------------------------

 SCF Done:  E(RCAM-B3LYP) =  -2932.59551395     A.U. after   16 cycles

 Excitation energies and oscillator strengths:

 Excited State   1:      Singlet-A      2.1058 eV  588.79 nm  f=0.2301  <S**2>=0.000
     240 -> 243       -0.25234
     241 -> 242        0.64905
 This state for optimization and/or second-order correction.
 Total Energy, E(TD-HF/TD-DFT) =  -2932.51812877
 Copying the excited state density for this state as the 1-particle RhoCI density.

 The electronic state is 1-A.
 Alpha  occ. eigenvalues --  -46.83801 -19.27581 -19.27270 -19.22270 -19.21910
 Alpha  occ. eigenvalues --  -19.21379 -14.41461 -14.39496 -14.39437 -14.38966
 Alpha  occ. eigenvalues --  -10.40477 -10.39452 -10.36869 -10.33322 -10.32070
 Alpha  occ. eigenvalues --  -10.31192 -10.30573 -10.29882 -10.29665 -10.29527
 Alpha  occ. eigenvalues --  -10.29257 -10.29210 -10.28663 -10.28640 -10.28568
 Alpha  occ. eigenvalues --  -10.28423 -10.28232 -10.28165 -10.28125 -10.28067
 Alpha  occ. eigenvalues --  -10.28036 -10.27875 -10.27516 -10.27362 -10.27233
 Alpha  occ. eigenvalues --  -10.27095 -10.27027 -10.26835 -10.26797 -10.26707
 Alpha  occ. eigenvalues --  -10.26704 -10.26701 -10.26695 -10.26635 -10.26599
 Alpha  occ. eigenvalues --  -10.26421 -10.26301 -10.26012 -10.25925 -10.25893
 Alpha  occ. eigenvalues --  -10.25780 -10.25737 -10.25583 -10.25574 -10.25413
 Alpha  occ. eigenvalues --  -10.25390 -10.24981 -10.24576 -10.24559 -10.24383
 Alpha  occ. eigenvalues --  -10.24346 -10.24174 -10.23320 -10.23109 -10.22762
 Alpha  occ. eigenvalues --   -3.13065  -1.87754  -1.87315  -1.87260  -1.20559
 Alpha  occ. eigenvalues --   -1.19776  -1.12095  -1.10010  -1.09554  -1.05645
 Alpha  occ. eigenvalues --   -1.04917  -1.03925  -1.01863  -0.91682  -0.91640
 Alpha  occ. eigenvalues --   -0.90798  -0.90309  -0.90203  -0.89676  -0.89621
 Alpha  occ. eigenvalues --   -0.89318  -0.88529  -0.88450  -0.87040  -0.86170
 Alpha  occ. eigenvalues --   -0.85599  -0.84648  -0.83790  -0.83647  -0.83111
 Alpha  occ. eigenvalues --   -0.82039  -0.81286  -0.80493  -0.80005  -0.78652
 Alpha  occ. eigenvalues --   -0.77982  -0.76881  -0.76654  -0.76353  -0.75654
 Alpha  occ. eigenvalues --   -0.74850  -0.74559  -0.74271  -0.73777  -0.72585
 Alpha  occ. eigenvalues --   -0.71333  -0.70648  -0.69537  -0.69381  -0.68670
 Alpha  occ. eigenvalues --   -0.67826  -0.66264  -0.65435  -0.64726  -0.64399
 Alpha  occ. eigenvalues --   -0.64174  -0.64021  -0.63321  -0.62429  -0.62241
 Alpha  occ. eigenvalues --   -0.61072  -0.60782  -0.60731  -0.60039  -0.59702
 Alpha  occ. eigenvalues --   -0.59001  -0.58493  -0.58064  -0.57494  -0.57228
 Alpha  occ. eigenvalues --   -0.56940  -0.56730  -0.56202  -0.55783  -0.55156
 Alpha  occ. eigenvalues --   -0.55122  -0.55066  -0.54716  -0.54193  -0.53839
 Alpha  occ. eigenvalues --   -0.53593  -0.53038  -0.52711  -0.52408  -0.52242
 Alpha  occ. eigenvalues --   -0.51914  -0.51597  -0.51547  -0.51116  -0.50983
 Alpha  occ. eigenvalues --   -0.50697  -0.50629  -0.50374  -0.49944  -0.49584
 Alpha  occ. eigenvalues --   -0.49390  -0.48983  -0.48766  -0.48533  -0.48378
 Alpha  occ. eigenvalues --   -0.48207  -0.48122  -0.47560  -0.47215  -0.47045
 Alpha  occ. eigenvalues --   -0.46895  -0.46741  -0.46322  -0.46090  -0.45939
 Alpha  occ. eigenvalues --   -0.45727  -0.45563  -0.45274  -0.45035  -0.44895
 Alpha  occ. eigenvalues --   -0.44625  -0.44541  -0.44459  -0.44310  -0.44065
 Alpha  occ. eigenvalues --   -0.43710  -0.43578  -0.43549  -0.43400  -0.43028
 Alpha  occ. eigenvalues --   -0.42910  -0.42653  -0.42458  -0.42214  -0.42103
 Alpha  occ. eigenvalues --   -0.42095  -0.41855  -0.41823  -0.41458  -0.41056
 Alpha  occ. eigenvalues --   -0.40963  -0.40624  -0.40577  -0.40540  -0.40389
 Alpha  occ. eigenvalues --   -0.40144  -0.39750  -0.39701  -0.39580  -0.39370
 Alpha  occ. eigenvalues --   -0.39016  -0.38664  -0.38335  -0.38295  -0.37967
 Alpha  occ. eigenvalues --   -0.37795  -0.37329  -0.37152  -0.36971  -0.36942
 Alpha  occ. eigenvalues --   -0.36477  -0.36443  -0.36130  -0.35926  -0.35711
 Alpha  occ. eigenvalues --   -0.35319  -0.35186  -0.34589  -0.34537  -0.34321
 Alpha  occ. eigenvalues --   -0.33983  -0.33299  -0.32270  -0.31186  -0.30706
 Alpha  occ. eigenvalues --   -0.30250  -0.29692  -0.29292  -0.26976  -0.22922
 Alpha  occ. eigenvalues --   -0.21276
 Alpha virt. eigenvalues --   -0.06059  -0.03138   0.01124   0.02903   0.04061
 Alpha virt. eigenvalues --    0.05702   0.06176   0.06641   0.06931   0.07198
 Alpha virt. eigenvalues --    0.07917   0.10216   0.11058   0.11589   0.11678

 Mulliken charges:
               1
     1  Mg   0.812317
     2  C    0.024686
     3  C   -0.185253
     4  C   -0.210232
     5  C   -0.201462
     6  N   -0.606775
     7  C    0.278439
     8  C   -0.152928
     9  C   -0.147249
    10  C    0.324166
    11  C   -0.263132
    12  C   -0.163217
    13  C   -0.285697
    14  C    0.618490
    15  O   -0.444534
    16  O   -0.437209
    17  N   -0.700140
    18  C    0.347743
    19  C    0.006826
    20  C    0.052100
    21  C    0.329526
    22  C   -0.370336
    23  C   -0.126495
    24  C   -0.189847
    25  N   -0.678492
    26  C    0.280585
    27  C    0.005106
    28  C    0.057452
    29  C    0.298209
    30  C   -0.362965
    31  C   -0.226554
    32  C   -0.295818
    33  N   -0.733057
    34  C    0.214303
    35  C    0.075325
    36  C   -0.006043
    37  C    0.353558
    38  C   -0.423898
    39  C    0.389614
    40  O   -0.461394
    41  C   -0.338887
    42  C    0.654186
    43  O   -0.465933
    44  O   -0.409675
    45  C   -0.089151
    46  C   -0.010699
    47  C   -0.151101
    48  C    0.182490
    49  C   -0.387293
    50  C   -0.229305
    51  C   -0.187352
    52  C   -0.174354
    53  C   -0.055650
    54  C   -0.296526
    55  C   -0.181139
    56  C   -0.190022
    57  C   -0.161058
    58  C   -0.058606
    59  C   -0.303340
    60  C   -0.161346
    61  C   -0.188164
    62  C   -0.153114
    63  C   -0.060982
    64  C   -0.301525
    65  C   -0.289256
    66  H    0.026918
    67  H    0.082610
    68  H    0.083564
    69  H    0.126634
    70  H    0.085432
    71  H    0.084586
    72  H    0.120897
    73  H    0.136014
    74  H    0.116397
    75  H    0.119523
    76  H    0.124214
    77  H    0.143105
    78  H    0.132410
    79  H    0.100163
    80  H    0.109676
    81  H    0.089209
    82  H    0.071092
    83  H    0.106417
    84  H    0.129483
    85  H    0.088655
    86  H    0.117998
    87  H    0.111056
    88  H    0.107085
    89  H    0.090279
    90  H    0.124358
    91  H    0.078789
    92  H    0.124349
    93  H    0.138210
    94  H    0.139666
    95  H    0.165815
    96  H    0.098111
    97  H    0.107288
    98  H    0.110799
    99  H    0.127245
   100  H    0.102092
   101  H    0.058145
   102  H    0.121711
   103  H    0.111853
   104  H    0.109468
   105  H    0.093189
   106  H    0.110715
   107  H    0.114083
   108  H    0.098435
   109  H    0.093080
   110  H    0.083336
   111  H    0.089624
   112  H    0.091029
   113  H    0.113866
   114  H    0.080345
   115  H    0.087563
   116  H    0.089903
   117  H    0.075705
   118  H    0.085154
   119  H    0.101111
   120  H    0.099893
   121  H    0.057989
   122  H    0.097796
   123  H    0.095911
   124  H    0.090035
   125  H    0.079814
   126  H    0.085722
   127  H    0.091398
   128  H    0.071261
   129  H    0.077808
   130  H    0.064940
   131  H    0.072172
   132  H    0.079163
   133  H    0.087191
   134  H    0.128079
   135  H    0.101863
   136  H    0.087961
   137  H    0.114633
 Sum of Mulliken charges =  -0.00000

 Dipole moment (field-independent basis, Debye):
    X=              0.7339    Y=              3.6823    Z=             -0.6258  Tot=              3.8065
 Quadrupole moment (field-independent basis, Debye-Ang):
   XX=           -350.6523   YY=           -394.1805   ZZ=           -400.3366
   XY=            -15.7426   XZ=              7.5734   YZ=             -2.7735

 Normal termination of Gaussian 16 at Thu Jun 27 04:05:06 2019.
