 Gaussian 16, Revision A.03,
 Gaussian 16:  ES64L-G16RevA.03 25-Dec-2016

 ----------------------------------------------------------------------
 # td=(NStates=1) iop(3/107=0140000000,3/108=0140000000) CAM-B3LYP/6-31
 G(d,p)
 ----------------------------------------------------------------------

 --
 TD
 --
 Symbolic Z-matrix:
 Charge =  0 Multiplicity = 1

                         Standard orientation:
 ---------------------------------------------------------------------
 Center     Atomic      Atomic             Coordinates (Angstroms)
 Number     Number       Type             X           Y           Z
 ---------------------------------------------------------------------
      1         12           0       -7.099199    0.593585    0.076364
      2          6           0       -4.888844   -1.924029    0.569143
      3          6           0       -4.801038    2.833229    1.257520
      4          6           0       -9.373038    3.195427   -0.316296
      5          6           0       -9.662635   -1.749579   -0.736195
      6          7           0       -5.162604    0.420976    0.669802
      7          6           0       -4.377905   -0.715093    0.826039
      8          6           0       -2.920201   -0.426002    1.112142
      9          6           0       -3.029559    1.123625    1.597882
     10          6           0       -4.400695    1.477113    1.151445
     11          6           0       -3.036316    1.151328    3.127033
     12          6           0       -1.968225   -0.581630   -0.013953
     13          6           0       -0.518075   -0.518915    0.452645
     14          6           0        0.500812   -0.791973   -0.623909
     15          8           0        0.255726   -1.294152   -1.705321
     16          8           0        1.677121   -0.368523   -0.155896
     17          7           0       -7.038162    2.640867    0.240841
     18          6           0       -5.979802    3.380546    0.840435
     19          6           0       -6.358074    4.741585    0.842296
     20          6           0       -7.688053    4.861325    0.321365
     21          6           0       -8.002166    3.545916    0.002014
     22          6           0       -5.501335    5.897947    1.291985
     23          6           0       -8.496900    6.000533    0.113604
     24          6           0       -8.384227    7.209284    0.713038
     25          7           0       -9.167133    0.676025   -0.552218
     26          6           0       -9.914852    1.956939   -0.690864
     27          6           0      -11.241456    1.614839   -1.159991
     28          6           0      -11.321988    0.143497   -1.239862
     29          6           0       -9.998338   -0.288702   -0.800082
     30          6           0      -12.295060    2.679740   -1.428335
     31          6           0      -12.466462   -0.749019   -1.553191
     32          6           0      -12.249150   -1.165902   -3.122448
     33          7           0       -7.306959   -1.378808   -0.040355
     34          6           0       -8.375129   -2.208341   -0.521584
     35          6           0       -7.969013   -3.476818   -0.581118
     36          6           0       -6.578056   -3.569563   -0.212334
     37          6           0       -6.208453   -2.148930    0.092564
     38          6           0       -8.793218   -4.755661   -0.750243
     39          6           0       -5.416098   -4.418827    0.001710
     40          8           0       -5.165474   -5.626674   -0.012461
     41          6           0       -4.231420   -3.423083    0.470087
     42          6           0       -3.616158   -3.799297    1.777388
     43          8           0       -3.842478   -3.223428    2.822564
     44          8           0       -2.824645   -4.918727    1.743440
     45          6           0       -2.237139   -5.433604    2.968604
     46          6           0        2.800333   -0.590847   -1.148689
     47          6           0        4.022142   -0.327978   -0.490418
     48          6           0        5.063267    0.374344   -1.009497
     49          6           0        5.202513    1.277903   -2.316145
     50          6           0        6.325484    0.427447   -0.210531
     51          6           0        7.663772   -0.185043   -0.876638
     52          6           0        8.900975   -0.107062   -0.003130
     53          6           0       10.237590   -0.460967   -0.764131
     54          6           0       10.109278   -1.889043   -1.369802
     55          6           0       11.571273   -0.196432   -0.001470
     56          6           0       12.817861   -0.464427   -0.686138
     57          6           0       14.034831   -0.158303    0.206428
     58          6           0       15.405935   -0.218630   -0.451151
     59          6           0       15.781508   -1.616929   -0.914095
     60          6           0       16.457680    0.481858    0.507959
     61          6           0       17.919506    0.600578   -0.157596
     62          6           0       18.795269    1.276091    0.778942
     63          6           0       20.318982    1.301458    0.196267
     64          6           0       20.566656    2.012855   -1.156872
     65          6           0       21.219388    1.914333    1.285777
     66          1           0       -4.076110    3.510685    1.655273
     67          1           0       -9.979506    4.095177   -0.548034
     68          1           0      -10.296621   -2.585120   -1.143598
     69          1           0       -2.543212   -1.133859    1.962733
     70          1           0       -2.302303    1.715255    1.110630
     71          1           0       -1.925521    1.078449    3.327294
     72          1           0       -3.179496    2.050114    3.716099
     73          1           0       -3.638157    0.452441    3.607795
     74          1           0       -2.082827   -1.636175   -0.558762
     75          1           0       -2.126617    0.332879   -0.734054
     76          1           0       -0.267036    0.221094    0.893093
     77          1           0       -0.193597   -1.448908    1.270923
     78          1           0       -5.705775    6.920559    0.767089
     79          1           0       -5.474507    6.021657    2.452650
     80          1           0       -4.373332    6.015642    0.986100
     81          1           0       -9.017170    6.214455   -0.732207
     82          1           0       -8.975520    8.083914    0.355896
     83          1           0       -7.780469    7.522180    1.665337
     84          1           0      -12.257631    3.142823   -2.481754
     85          1           0      -13.156032    2.105020   -1.495108
     86          1           0      -12.313522    3.256812   -0.541888
     87          1           0      -12.291551   -1.583250   -1.036034
     88          1           0      -13.497011   -0.204769   -1.400063
     89          1           0      -13.039004   -1.746415   -3.413860
     90          1           0      -12.116479   -0.260402   -3.748463
     91          1           0      -11.243830   -1.788883   -3.116136
     92          1           0       -9.390125   -4.796789   -1.605507
     93          1           0       -8.118352   -5.666173   -0.809495
     94          1           0       -9.589569   -4.827168    0.269481
     95          1           0       -3.434401   -3.521446   -0.415629
     96          1           0       -1.627030   -4.720392    3.447046
     97          1           0       -3.055308   -5.818150    3.686419
     98          1           0       -1.601479   -6.289807    2.732841
     99          1           0        2.594159   -1.667894   -1.501040
    100          1           0        2.741890   -0.108311   -1.950984
    101          1           0        4.114634   -0.633648    0.469188
    102          1           0        4.152761    1.359230   -2.711754
    103          1           0        5.502036    2.310729   -2.147957
    104          1           0        5.880128    0.671329   -3.016434
    105          1           0        6.729651    1.493966   -0.026440
    106          1           0        6.116850   -0.218068    0.555232
    107          1           0        7.370892   -1.229949   -1.124433
    108          1           0        7.695232    0.607639   -1.832508
    109          1           0        8.881460    1.000316    0.485193
    110          1           0        9.012562   -0.735586    0.891599
    111          1           0       10.428491    0.087075   -1.750290
    112          1           0        9.294368   -1.866741   -2.125579
    113          1           0       11.073689   -2.365541   -1.746681
    114          1           0       10.005469   -2.727505   -0.574285
    115          1           0       11.418996    0.755897    0.547172
    116          1           0       11.487755   -0.918293    0.858919
    117          1           0       12.966328   -1.494691   -1.026459
    118          1           0       12.931584    0.249369   -1.368241
    119          1           0       13.981053    0.685621    0.629218
    120          1           0       14.038026   -1.125207    0.892490
    121          1           0       15.249224    0.520346   -1.151561
    122          1           0       16.119216   -2.302119   -0.215420
    123          1           0       15.064872   -2.044896   -1.637779
    124          1           0       16.654828   -1.380568   -1.629018
    125          1           0       16.321489    1.516803    0.826192
    126          1           0       16.595788   -0.243673    1.273992
    127          1           0       18.333008   -0.419514   -0.327573
    128          1           0       17.956872    0.980611   -1.210970
    129          1           0       18.578067    2.283191    1.142839
    130          1           0       19.047042    0.745530    1.683338
    131          1           0       20.764416    0.125709    0.223887
    132          1           0       20.307768    2.949833   -0.763944
    133          1           0       21.573244    2.027115   -1.260700
    134          1           0       20.055846    1.581572   -1.958297
    135          1           0       21.061214    1.085437    2.068192
    136          1           0       22.322805    2.047494    0.992086
    137          1           0       20.861912    2.786868    1.525610
 ---------------------------------------------------------------------

 SCF Done:  E(RCAM-B3LYP) =  -2933.44874796     A.U. after   16 cycles

 Excitation energies and oscillator strengths:

 Excited State   1:      Singlet-A      1.8380 eV  674.55 nm  f=0.2587  <S**2>=0.000
     240 -> 243        0.17381
     241 -> 242        0.67999
 This state for optimization and/or second-order correction.
 Total Energy, E(TD-HF/TD-DFT) =  -2933.38120120
 Copying the excited state density for this state as the 1-particle RhoCI density.

 The electronic state is 1-A.
 Alpha  occ. eigenvalues --  -46.79412 -19.22375 -19.20799 -19.16449 -19.15850
 Alpha  occ. eigenvalues --  -19.15677 -14.37939 -14.35215 -14.34785 -14.34579
 Alpha  occ. eigenvalues --  -10.34039 -10.33909 -10.30867 -10.26572 -10.26425
 Alpha  occ. eigenvalues --  -10.26238 -10.26049 -10.25351 -10.25320 -10.25284
 Alpha  occ. eigenvalues --  -10.24850 -10.24469 -10.24459 -10.24393 -10.24205
 Alpha  occ. eigenvalues --  -10.24078 -10.23929 -10.23863 -10.23748 -10.23530
 Alpha  occ. eigenvalues --  -10.23515 -10.23505 -10.23373 -10.23266 -10.23128
 Alpha  occ. eigenvalues --  -10.23001 -10.22889 -10.22721 -10.22583 -10.22548
 Alpha  occ. eigenvalues --  -10.22544 -10.22517 -10.22511 -10.22390 -10.22385
 Alpha  occ. eigenvalues --  -10.22205 -10.21903 -10.21753 -10.21625 -10.21399
 Alpha  occ. eigenvalues --  -10.21240 -10.21214 -10.21150 -10.21139 -10.21090
 Alpha  occ. eigenvalues --  -10.20751 -10.20715 -10.20640 -10.20571 -10.20536
 Alpha  occ. eigenvalues --  -10.20473 -10.19650 -10.19191 -10.18922 -10.18280
 Alpha  occ. eigenvalues --   -3.08052  -1.82993  -1.82529  -1.82458  -1.12646
 Alpha  occ. eigenvalues --   -1.11141  -1.04717  -1.04058  -1.02830  -0.98814
 Alpha  occ. eigenvalues --   -0.97762  -0.97486  -0.96080  -0.86734  -0.86159
 Alpha  occ. eigenvalues --   -0.85991  -0.85345  -0.84316  -0.84092  -0.83228
 Alpha  occ. eigenvalues --   -0.83020  -0.82706  -0.82483  -0.82224  -0.81451
 Alpha  occ. eigenvalues --   -0.80403  -0.79368  -0.78598  -0.78028  -0.77492
 Alpha  occ. eigenvalues --   -0.77166  -0.76161  -0.75579  -0.74968  -0.73903
 Alpha  occ. eigenvalues --   -0.72738  -0.72135  -0.71894  -0.71680  -0.71146
 Alpha  occ. eigenvalues --   -0.70987  -0.70377  -0.69679  -0.69010  -0.68245
 Alpha  occ. eigenvalues --   -0.67692  -0.66331  -0.65305  -0.64885  -0.63752
 Alpha  occ. eigenvalues --   -0.62220  -0.61879  -0.61380  -0.60671  -0.60478
 Alpha  occ. eigenvalues --   -0.59933  -0.59362  -0.59208  -0.57647  -0.57108
 Alpha  occ. eigenvalues --   -0.56825  -0.56766  -0.56294  -0.55835  -0.55065
 Alpha  occ. eigenvalues --   -0.54415  -0.54213  -0.53551  -0.52887  -0.52552
 Alpha  occ. eigenvalues --   -0.52480  -0.51858  -0.51677  -0.51325  -0.51187
 Alpha  occ. eigenvalues --   -0.50446  -0.50266  -0.49985  -0.49828  -0.49537
 Alpha  occ. eigenvalues --   -0.48832  -0.48532  -0.48265  -0.47849  -0.47766
 Alpha  occ. eigenvalues --   -0.47526  -0.47476  -0.47088  -0.46899  -0.46795
 Alpha  occ. eigenvalues --   -0.46672  -0.46456  -0.46282  -0.46014  -0.45940
 Alpha  occ. eigenvalues --   -0.45668  -0.45505  -0.45412  -0.45054  -0.44731
 Alpha  occ. eigenvalues --   -0.44646  -0.44535  -0.44313  -0.44030  -0.43682
 Alpha  occ. eigenvalues --   -0.43506  -0.43352  -0.42865  -0.42593  -0.42459
 Alpha  occ. eigenvalues --   -0.42411  -0.42090  -0.41973  -0.41928  -0.41762
 Alpha  occ. eigenvalues --   -0.41607  -0.41452  -0.41332  -0.41201  -0.40953
 Alpha  occ. eigenvalues --   -0.40598  -0.40431  -0.40160  -0.39942  -0.39915
 Alpha  occ. eigenvalues --   -0.39808  -0.39603  -0.39531  -0.39276  -0.39034
 Alpha  occ. eigenvalues --   -0.38988  -0.38711  -0.38393  -0.38171  -0.37950
 Alpha  occ. eigenvalues --   -0.37867  -0.37647  -0.37400  -0.36966  -0.36847
 Alpha  occ. eigenvalues --   -0.36765  -0.36583  -0.36347  -0.36264  -0.36099
 Alpha  occ. eigenvalues --   -0.35679  -0.35260  -0.35097  -0.34811  -0.34573
 Alpha  occ. eigenvalues --   -0.34226  -0.33946  -0.33762  -0.33689  -0.33363
 Alpha  occ. eigenvalues --   -0.33128  -0.32938  -0.32616  -0.32304  -0.32003
 Alpha  occ. eigenvalues --   -0.31935  -0.31769  -0.30770  -0.30306  -0.30100
 Alpha  occ. eigenvalues --   -0.29740  -0.29679  -0.29255  -0.28580  -0.26760
 Alpha  occ. eigenvalues --   -0.26652  -0.26544  -0.24823  -0.24087  -0.22268
 Alpha  occ. eigenvalues --   -0.19560
 Alpha virt. eigenvalues --   -0.07874  -0.04256  -0.00550   0.02078   0.02406
 Alpha virt. eigenvalues --    0.03728   0.04348   0.04751   0.05187   0.05901
 Alpha virt. eigenvalues --    0.06748   0.09132   0.09400   0.09423   0.09882

 Mulliken charges:
               1
     1  Mg   0.804468
     2  C    0.063354
     3  C   -0.189955
     4  C   -0.169342
     5  C   -0.173322
     6  N   -0.651058
     7  C    0.318690
     8  C   -0.139816
     9  C   -0.163378
    10  C    0.342850
    11  C   -0.309428
    12  C   -0.162142
    13  C   -0.202980
    14  C    0.609725
    15  O   -0.487364
    16  O   -0.482093
    17  N   -0.714410
    18  C    0.321211
    19  C    0.022295
    20  C    0.073621
    21  C    0.289614
    22  C   -0.395740
    23  C   -0.104833
    24  C   -0.248451
    25  N   -0.656501
    26  C    0.263104
    27  C   -0.023954
    28  C    0.026854
    29  C    0.326507
    30  C   -0.366692
    31  C   -0.245054
    32  C   -0.312688
    33  N   -0.741214
    34  C    0.311830
    35  C    0.013965
    36  C    0.033420
    37  C    0.279739
    38  C   -0.364915
    39  C    0.346472
    40  O   -0.467515
    41  C   -0.318982
    42  C    0.637613
    43  O   -0.470817
    44  O   -0.461404
    45  C   -0.081351
    46  C    0.025318
    47  C   -0.125270
    48  C    0.110434
    49  C   -0.370135
    50  C   -0.222089
    51  C   -0.179225
    52  C   -0.153100
    53  C   -0.051459
    54  C   -0.319302
    55  C   -0.173143
    56  C   -0.161707
    57  C   -0.153504
    58  C   -0.059071
    59  C   -0.328777
    60  C   -0.185845
    61  C   -0.187643
    62  C   -0.161486
    63  C   -0.092807
    64  C   -0.291743
    65  C   -0.300959
    66  H    0.078450
    67  H    0.087017
    68  H    0.096401
    69  H    0.117851
    70  H    0.110056
    71  H    0.095539
    72  H    0.112475
    73  H    0.145101
    74  H    0.115801
    75  H    0.098269
    76  H    0.117772
    77  H    0.094935
    78  H    0.113257
    79  H    0.112223
    80  H    0.095431
    81  H    0.106991
    82  H    0.092920
    83  H    0.096799
    84  H    0.119074
    85  H    0.117372
    86  H    0.133279
    87  H    0.121917
    88  H    0.099479
    89  H    0.114861
    90  H    0.117366
    91  H    0.092896
    92  H    0.128213
    93  H    0.145010
    94  H    0.094418
    95  H    0.144708
    96  H    0.128528
    97  H    0.121433
    98  H    0.126722
    99  H    0.127657
   100  H    0.119216
   101  H    0.092591
   102  H    0.106351
   103  H    0.132186
   104  H    0.129712
   105  H    0.091051
   106  H    0.097467
   107  H    0.105015
   108  H    0.073406
   109  H    0.062889
   110  H    0.104608
   111  H    0.071611
   112  H    0.111945
   113  H    0.093841
   114  H    0.077899
   115  H    0.087906
   116  H    0.071571
   117  H    0.096621
   118  H    0.096109
   119  H    0.084335
   120  H    0.054781
   121  H    0.086507
   122  H    0.119534
   123  H    0.108231
   124  H    0.094420
   125  H    0.094887
   126  H    0.101426
   127  H    0.094620
   128  H    0.087741
   129  H    0.085755
   130  H    0.098161
   131  H    0.034996
   132  H    0.102735
   133  H    0.110797
   134  H    0.106731
   135  H    0.093823
   136  H    0.087698
   137  H    0.112189
 Sum of Mulliken charges =  -0.00000

 Dipole moment (field-independent basis, Debye):
    X=              2.3545    Y=              4.6114    Z=             -0.2016  Tot=              5.1816
 Quadrupole moment (field-independent basis, Debye-Ang):
   XX=           -339.0883   YY=           -394.2567   ZZ=           -397.4445
   XY=            -13.6579   XZ=             13.8103   YZ=             -3.8386

 Normal termination of Gaussian 16 at Thu Sep  5 05:30:02 2019.
