 Gaussian 16, Revision A.03,
 Gaussian 16:  ES64L-G16RevA.03 25-Dec-2016

 -------------------------------------
 # td=(NStates=1) CAM-B3LYP/6-31G(d,p)
 -------------------------------------

 --
 TD
 --
 Symbolic Z-matrix:
 Charge =  0 Multiplicity = 1

                         Standard orientation:
 ---------------------------------------------------------------------
 Center     Atomic      Atomic             Coordinates (Angstroms)
 Number     Number       Type             X           Y           Z
 ---------------------------------------------------------------------
      1         12           0       -7.120009    0.624871    0.065747
      2          6           0       -4.817516   -1.962720    0.597563
      3          6           0       -4.719359    2.872723    1.090100
      4          6           0       -9.326578    3.000768   -0.411295
      5          6           0       -9.601949   -1.779405   -0.855498
      6          7           0       -5.034456    0.447919    0.727778
      7          6           0       -4.370296   -0.674749    0.810666
      8          6           0       -2.985891   -0.425046    1.118013
      9          6           0       -3.060869    1.056821    1.612762
     10          6           0       -4.342428    1.479431    1.119791
     11          6           0       -2.913965    1.146345    3.130478
     12          6           0       -1.927666   -0.495955    0.098713
     13          6           0       -0.466299   -0.330148    0.436891
     14          6           0        0.510152   -0.527312   -0.680232
     15          8           0        0.171270   -0.638752   -1.788409
     16          8           0        1.721042   -0.259240   -0.352902
     17          7           0       -6.989782    2.583993    0.242060
     18          6           0       -5.951699    3.369209    0.787235
     19          6           0       -6.379350    4.793720    0.693574
     20          6           0       -7.724613    4.750710    0.415140
     21          6           0       -8.066366    3.460341    0.051674
     22          6           0       -5.456035    5.891815    1.130925
     23          6           0       -8.586754    5.935212    0.309803
     24          6           0       -8.548226    7.092489    0.891423
     25          7           0       -9.139987    0.650742   -0.563101
     26          6           0       -9.823890    1.794225   -0.665054
     27          6           0      -11.250632    1.472453   -1.083618
     28          6           0      -11.265338    0.089016   -1.204458
     29          6           0       -9.938376   -0.455630   -0.799575
     30          6           0      -12.384339    2.391505   -1.396781
     31          6           0      -12.380469   -0.786703   -1.662869
     32          6           0      -12.355700   -1.159640   -3.072111
     33          7           0       -7.215811   -1.349531   -0.118698
     34          6           0       -8.304225   -2.224833   -0.559823
     35          6           0       -7.767060   -3.602092   -0.351361
     36          6           0       -6.445274   -3.488564    0.028961
     37          6           0       -6.224112   -2.232629    0.193598
     38          6           0       -8.566233   -4.831941   -0.775779
     39          6           0       -5.308992   -4.293847    0.194548
     40          8           0       -5.097717   -5.516860   -0.072604
     41          6           0       -4.105956   -3.303596    0.537272
     42          6           0       -3.632121   -3.805987    1.865298
     43          8           0       -3.888516   -3.271623    2.943603
     44          8           0       -2.699041   -4.740904    1.826630
     45          6           0       -2.225928   -5.289125    3.010334
     46          6           0        2.739195   -0.526015   -1.348313
     47          6           0        4.071412   -0.437713   -0.726846
     48          6           0        5.086264    0.368911   -1.119237
     49          6           0        5.005449    1.235894   -2.275124
     50          6           0        6.384638    0.401038   -0.312758
     51          6           0        7.692869   -0.100120   -1.110468
     52          6           0        8.949390   -0.131962   -0.199606
     53          6           0       10.118397   -0.598998   -0.945356
     54          6           0       10.153079   -1.987853   -1.467432
     55          6           0       11.409369   -0.236432    0.055212
     56          6           0       12.718162   -0.529579   -0.633037
     57          6           0       13.932689   -0.070497    0.162764
     58          6           0       15.288513   -0.191807   -0.428952
     59          6           0       15.646088   -1.634572   -0.865525
     60          6           0       16.459102    0.371132    0.445357
     61          6           0       17.863341    0.404405   -0.117454
     62          6           0       18.794325    1.146669    0.804954
     63          6           0       20.326971    1.255213    0.397224
     64          6           0       20.462999    2.028352   -1.002007
     65          6           0       21.147430    1.952773    1.538156
     66          1           0       -3.999266    3.563119    1.494465
     67          1           0      -10.080840    3.876093   -0.485373
     68          1           0      -10.334864   -2.548558   -0.648553
     69          1           0       -2.676847   -1.082651    2.056518
     70          1           0       -2.182584    1.511246    1.279862
     71          1           0       -1.996971    0.782320    3.557171
     72          1           0       -2.766341    2.328680    3.491270
     73          1           0       -3.796311    0.680898    3.867219
     74          1           0       -1.898036   -1.494241   -0.470424
     75          1           0       -2.114026    0.216304   -0.766702
     76          1           0       -0.414133    0.656720    0.814803
     77          1           0       -0.248679   -1.075792    1.150366
     78          1           0       -5.851528    6.908033    0.806709
     79          1           0       -5.421735    6.028351    2.270574
     80          1           0       -4.450008    5.834421    0.596426
     81          1           0       -9.366537    5.940563   -0.471919
     82          1           0       -8.962682    8.095578    0.588401
     83          1           0       -7.874991    7.379786    1.823529
     84          1           0      -12.307947    3.011128   -2.147249
     85          1           0      -13.347897    1.888937   -1.417470
     86          1           0      -12.361521    3.166630   -0.603207
     87          1           0      -12.534728   -1.533677   -0.867972
     88          1           0      -13.293795   -0.249807   -1.541434
     89          1           0      -13.081030   -1.729385   -3.486718
     90          1           0      -12.376492   -0.307650   -3.713533
     91          1           0      -11.557388   -1.800661   -3.418896
     92          1           0       -8.814670   -4.982528   -1.794794
     93          1           0       -7.985204   -5.673114   -0.297949
     94          1           0       -9.554773   -4.779440   -0.092845
     95          1           0       -3.367605   -3.281871   -0.275511
     96          1           0       -1.791714   -4.570208    3.521624
     97          1           0       -3.049534   -5.575831    3.746622
     98          1           0       -1.726646   -6.254765    2.681064
     99          1           0        2.566251   -1.696631   -1.621101
    100          1           0        2.588542    0.157172   -2.076214
    101          1           0        4.172156   -1.111882    0.060872
    102          1           0        3.986751    1.269778   -2.691963
    103          1           0        5.179010    2.287397   -1.939583
    104          1           0        5.625827    1.024666   -3.023323
    105          1           0        6.537397    1.451843   -0.081175
    106          1           0        6.287779   -0.526431    0.392476
    107          1           0        7.527479   -1.044717   -1.759287
    108          1           0        7.815219    0.863003   -1.777195
    109          1           0        9.169749    0.727426    0.433624
    110          1           0        8.625307   -0.805977    0.755028
    111          1           0       10.333306    0.047581   -1.918656
    112          1           0        9.348944   -2.166626   -2.006512
    113          1           0       11.020175   -2.124151   -2.162002
    114          1           0        9.942527   -2.707023   -0.667547
    115          1           0       11.416342    0.908558    0.297740
    116          1           0       11.319315   -0.925786    0.823929
    117          1           0       12.764808   -1.435723   -1.041484
    118          1           0       12.685793    0.177436   -1.676197
    119          1           0       14.019132    0.939017    0.573582
    120          1           0       14.080418   -0.698844    1.153631
    121          1           0       15.220102    0.511930   -1.420427
    122          1           0       15.746950   -2.316332    0.065853
    123          1           0       14.878246   -1.938777   -1.552612
    124          1           0       16.659296   -1.724918   -1.452528
    125          1           0       16.169738    1.295023    1.009657
    126          1           0       16.523429   -0.213903    1.297900
    127          1           0       18.295022   -0.491747   -0.402980
    128          1           0       17.808099    0.982898   -1.021311
    129          1           0       18.618339    2.314489    1.071244
    130          1           0       18.831214    0.576486    1.671715
    131          1           0       20.850190    0.190417    0.105173
    132          1           0       20.211290    3.141937   -0.730171
    133          1           0       21.570620    1.980572   -1.450594
    134          1           0       20.084314    1.611445   -1.909841
    135          1           0       21.300875    1.151642    2.396080
    136          1           0       22.325304    2.222509    1.177554
    137          1           0       20.714135    2.882127    1.847641
 ---------------------------------------------------------------------

 SCF Done:  E(RCAM-B3LYP) =  -2932.66430627     A.U. after   18 cycles

 Excitation energies and oscillator strengths:

 Excited State   1:      Singlet-A      1.9672 eV  630.27 nm  f=0.2958  <S**2>=0.000
     240 -> 243       -0.22299
     241 -> 242        0.66742
 This state for optimization and/or second-order correction.
 Total Energy, E(TD-HF/TD-DFT) =  -2932.59201466
 Copying the excited state density for this state as the 1-particle RhoCI density.

 The electronic state is 1-A.
 Alpha  occ. eigenvalues --  -46.83733 -19.25709 -19.25701 -19.19918 -19.19554
 Alpha  occ. eigenvalues --  -19.19523 -14.41805 -14.39255 -14.39096 -14.39004
 Alpha  occ. eigenvalues --  -10.38732 -10.37662 -10.34923 -10.32042 -10.31147
 Alpha  occ. eigenvalues --  -10.30299 -10.30063 -10.29915 -10.29269 -10.29234
 Alpha  occ. eigenvalues --  -10.28972 -10.28769 -10.28604 -10.28089 -10.28037
 Alpha  occ. eigenvalues --  -10.27998 -10.27837 -10.27772 -10.27770 -10.27713
 Alpha  occ. eigenvalues --  -10.27604 -10.27397 -10.27387 -10.27313 -10.27189
 Alpha  occ. eigenvalues --  -10.27111 -10.27062 -10.26979 -10.26908 -10.26692
 Alpha  occ. eigenvalues --  -10.26648 -10.26646 -10.26646 -10.26536 -10.26522
 Alpha  occ. eigenvalues --  -10.26321 -10.26319 -10.26192 -10.26002 -10.25918
 Alpha  occ. eigenvalues --  -10.25797 -10.25758 -10.25638 -10.25627 -10.25545
 Alpha  occ. eigenvalues --  -10.25435 -10.25383 -10.25332 -10.25111 -10.24840
 Alpha  occ. eigenvalues --  -10.24422 -10.24090 -10.24044 -10.23589 -10.23115
 Alpha  occ. eigenvalues --   -3.12851  -1.87553  -1.87105  -1.87021  -1.21010
 Alpha  occ. eigenvalues --   -1.19201  -1.10595  -1.08132  -1.07749  -1.07676
 Alpha  occ. eigenvalues --   -1.03174  -1.02500  -1.01860  -0.92611  -0.91951
 Alpha  occ. eigenvalues --   -0.91070  -0.90821  -0.89872  -0.89806  -0.89441
 Alpha  occ. eigenvalues --   -0.88537  -0.88015  -0.87733  -0.86614  -0.86228
 Alpha  occ. eigenvalues --   -0.85147  -0.84565  -0.84301  -0.83698  -0.83415
 Alpha  occ. eigenvalues --   -0.82263  -0.81845  -0.81771  -0.80857  -0.78427
 Alpha  occ. eigenvalues --   -0.78394  -0.77783  -0.77513  -0.76890  -0.75329
 Alpha  occ. eigenvalues --   -0.74754  -0.74520  -0.74334  -0.73779  -0.72146
 Alpha  occ. eigenvalues --   -0.71850  -0.71028  -0.70324  -0.69023  -0.68484
 Alpha  occ. eigenvalues --   -0.67138  -0.66660  -0.65980  -0.65019  -0.64915
 Alpha  occ. eigenvalues --   -0.64497  -0.63105  -0.63031  -0.62683  -0.61652
 Alpha  occ. eigenvalues --   -0.61433  -0.60998  -0.60773  -0.60455  -0.59698
 Alpha  occ. eigenvalues --   -0.59391  -0.58744  -0.58439  -0.57993  -0.57158
 Alpha  occ. eigenvalues --   -0.56575  -0.55811  -0.55732  -0.55407  -0.55255
 Alpha  occ. eigenvalues --   -0.54917  -0.54636  -0.54215  -0.54038  -0.53619
 Alpha  occ. eigenvalues --   -0.53248  -0.52943  -0.52425  -0.52307  -0.52149
 Alpha  occ. eigenvalues --   -0.52112  -0.51643  -0.51559  -0.51163  -0.50779
 Alpha  occ. eigenvalues --   -0.50608  -0.50216  -0.49976  -0.49799  -0.49655
 Alpha  occ. eigenvalues --   -0.49562  -0.49177  -0.48911  -0.48763  -0.48420
 Alpha  occ. eigenvalues --   -0.48064  -0.47914  -0.47801  -0.47671  -0.47341
 Alpha  occ. eigenvalues --   -0.47141  -0.46897  -0.46739  -0.46632  -0.46029
 Alpha  occ. eigenvalues --   -0.45898  -0.45742  -0.45510  -0.45372  -0.44982
 Alpha  occ. eigenvalues --   -0.44780  -0.44636  -0.44414  -0.44325  -0.43928
 Alpha  occ. eigenvalues --   -0.43871  -0.43731  -0.43611  -0.43488  -0.43371
 Alpha  occ. eigenvalues --   -0.43158  -0.42995  -0.42748  -0.42632  -0.42174
 Alpha  occ. eigenvalues --   -0.41974  -0.41825  -0.41452  -0.41376  -0.41219
 Alpha  occ. eigenvalues --   -0.40947  -0.40713  -0.40546  -0.40182  -0.40036
 Alpha  occ. eigenvalues --   -0.40005  -0.39387  -0.39257  -0.38922  -0.38782
 Alpha  occ. eigenvalues --   -0.38714  -0.38671  -0.38380  -0.38194  -0.37601
 Alpha  occ. eigenvalues --   -0.37273  -0.36907  -0.36888  -0.36785  -0.36497
 Alpha  occ. eigenvalues --   -0.36021  -0.35934  -0.35535  -0.35379  -0.35174
 Alpha  occ. eigenvalues --   -0.35053  -0.34567  -0.34474  -0.33579  -0.33116
 Alpha  occ. eigenvalues --   -0.32983  -0.32786  -0.32422  -0.30713  -0.29850
 Alpha  occ. eigenvalues --   -0.29530  -0.29105  -0.28348  -0.27832  -0.23449
 Alpha  occ. eigenvalues --   -0.20878
 Alpha virt. eigenvalues --   -0.06986  -0.02598   0.01023   0.03835   0.05535
 Alpha virt. eigenvalues --    0.05983   0.06536   0.06847   0.07335   0.08116
 Alpha virt. eigenvalues --    0.08578   0.11194   0.11450   0.11628   0.11792

 Mulliken charges:
               1
     1  Mg   0.811601
     2  C    0.076159
     3  C   -0.198179
     4  C   -0.204754
     5  C   -0.163746
     6  N   -0.630445
     7  C    0.343737
     8  C   -0.176664
     9  C   -0.165596
    10  C    0.373064
    11  C   -0.304755
    12  C   -0.187296
    13  C   -0.262704
    14  C    0.578671
    15  O   -0.449617
    16  O   -0.453087
    17  N   -0.738079
    18  C    0.310110
    19  C    0.030865
    20  C    0.013806
    21  C    0.344071
    22  C   -0.381544
    23  C   -0.060520
    24  C   -0.264116
    25  N   -0.710302
    26  C    0.357419
    27  C    0.024503
    28  C   -0.005602
    29  C    0.303714
    30  C   -0.370266
    31  C   -0.239596
    32  C   -0.313145
    33  N   -0.729793
    34  C    0.232163
    35  C   -0.058529
    36  C    0.166784
    37  C    0.287906
    38  C   -0.363651
    39  C    0.304455
    40  O   -0.494370
    41  C   -0.328489
    42  C    0.622112
    43  O   -0.491421
    44  O   -0.425284
    45  C   -0.077161
    46  C    0.025021
    47  C   -0.126369
    48  C    0.130098
    49  C   -0.369909
    50  C   -0.230081
    51  C   -0.188713
    52  C   -0.157255
    53  C   -0.053772
    54  C   -0.307295
    55  C   -0.176823
    56  C   -0.164851
    57  C   -0.154230
    58  C   -0.052661
    59  C   -0.302362
    60  C   -0.187338
    61  C   -0.173339
    62  C   -0.156561
    63  C   -0.065320
    64  C   -0.297178
    65  C   -0.292484
    66  H    0.088525
    67  H    0.075404
    68  H    0.113426
    69  H    0.116638
    70  H    0.108197
    71  H    0.123759
    72  H    0.066997
    73  H    0.108651
    74  H    0.096928
    75  H    0.108593
    76  H    0.131161
    77  H    0.128242
    78  H    0.117503
    79  H    0.128780
    80  H    0.118250
    81  H    0.098299
    82  H    0.112238
    83  H    0.082229
    84  H    0.136041
    85  H    0.118694
    86  H    0.108590
    87  H    0.103548
    88  H    0.100957
    89  H    0.110642
    90  H    0.111799
    91  H    0.107952
    92  H    0.141309
    93  H    0.139507
    94  H    0.093041
    95  H    0.173368
    96  H    0.131629
    97  H    0.115680
    98  H    0.124621
    99  H    0.105950
   100  H    0.121727
   101  H    0.086987
   102  H    0.106876
   103  H    0.107578
   104  H    0.140687
   105  H    0.114350
   106  H    0.097876
   107  H    0.101438
   108  H    0.079029
   109  H    0.105961
   110  H    0.059522
   111  H    0.068542
   112  H    0.112327
   113  H    0.106486
   114  H    0.098100
   115  H    0.088810
   116  H    0.107496
   117  H    0.112405
   118  H    0.043026
   119  H    0.096177
   120  H    0.061081
   121  H    0.050195
   122  H    0.090717
   123  H    0.105433
   124  H    0.088877
   125  H    0.081406
   126  H    0.094788
   127  H    0.106045
   128  H    0.101846
   129  H    0.069857
   130  H    0.101436
   131  H    0.058543
   132  H    0.085747
   133  H    0.070425
   134  H    0.114230
   135  H    0.097812
   136  H    0.075081
   137  H    0.112932
 Sum of Mulliken charges =  -0.00000

 Dipole moment (field-independent basis, Debye):
    X=              2.1191    Y=              4.9681    Z=              0.5329  Tot=              5.4274
 Quadrupole moment (field-independent basis, Debye-Ang):
   XX=           -357.1469   YY=           -388.8761   ZZ=           -397.9581
   XY=            -34.5353   XZ=              9.2406   YZ=             -1.1044

 Normal termination of Gaussian 16 at Sat Jun 29 01:44:19 2019.
