 Gaussian 09, Revision D.01,
 Gaussian 09:  ES64L-G09RevD.01 24-Apr-2013

 -------------------------------------
 # td=(NStates=1) CAM-B3LYP/6-31G(d,p)
 -------------------------------------

 --
 TD
 --
 Symbolic Z-matrix:
 Charge =  0 Multiplicity = 1

                         Standard orientation:
 ---------------------------------------------------------------------
 Center     Atomic      Atomic             Coordinates (Angstroms)
 Number     Number       Type             X           Y           Z
 ---------------------------------------------------------------------
      1         12           0       -7.167704    0.563573    0.103936
      2          6           0       -4.809676   -1.935201    0.507592
      3          6           0       -4.845540    2.849449    1.176627
      4          6           0       -9.382548    3.052773   -0.415835
      5          6           0       -9.497067   -1.774612   -0.924681
      6          7           0       -5.121498    0.387702    0.740061
      7          6           0       -4.377773   -0.615530    0.830795
      8          6           0       -2.903999   -0.400800    1.209899
      9          6           0       -3.032993    1.076677    1.641351
     10          6           0       -4.450075    1.483841    1.093935
     11          6           0       -2.992195    1.195547    3.230676
     12          6           0       -1.915950   -0.604457    0.081207
     13          6           0       -0.437907   -0.261675    0.529303
     14          6           0        0.539952   -0.576307   -0.617234
     15          8           0        0.222732   -0.931455   -1.746399
     16          8           0        1.846425   -0.423526   -0.175260
     17          7           0       -7.043136    2.608854    0.311999
     18          6           0       -6.057431    3.448855    0.761880
     19          6           0       -6.427382    4.774697    0.777021
     20          6           0       -7.757089    4.831619    0.288462
     21          6           0       -8.107514    3.466982   -0.011507
     22          6           0       -5.605051    5.930488    1.327786
     23          6           0       -8.545240    6.091080    0.205712
     24          6           0       -8.451695    7.214711    0.884285
     25          7           0       -9.124605    0.638390   -0.533318
     26          6           0       -9.921762    1.778527   -0.680179
     27          6           0      -11.176335    1.491625   -1.163124
     28          6           0      -11.253929    0.103627   -1.346475
     29          6           0       -9.940743   -0.411666   -0.981882
     30          6           0      -12.302443    2.412865   -1.511450
     31          6           0      -12.268597   -0.773623   -1.975596
     32          6           0      -12.246310   -0.893351   -3.355875
     33          7           0       -7.258597   -1.490302   -0.072471
     34          6           0       -8.333466   -2.295907   -0.518425
     35          6           0       -7.852111   -3.643430   -0.453475
     36          6           0       -6.536449   -3.630222    0.077731
     37          6           0       -6.205713   -2.262903    0.270876
     38          6           0       -8.614722   -4.820749   -0.893405
     39          6           0       -5.304643   -4.398222    0.227051
     40          8           0       -5.018634   -5.566109    0.101752
     41          6           0       -4.170264   -3.305328    0.565027
     42          6           0       -3.494484   -3.630295    1.854482
     43          8           0       -3.736119   -3.160926    3.005253
     44          8           0       -2.726576   -4.650934    1.813921
     45          6           0       -2.365042   -5.310848    3.097309
     46          6           0        2.826982   -0.763797   -1.205055
     47          6           0        4.178190   -0.395925   -0.593617
     48          6           0        5.137164    0.446258   -0.984701
     49          6           0        5.138014    1.118193   -2.247807
     50          6           0        6.465928    0.366057   -0.214264
     51          6           0        7.596483   -0.325153   -0.974048
     52          6           0        8.910918   -0.004371   -0.239489
     53          6           0       10.212849   -0.557961   -0.901454
     54          6           0       10.060190   -2.098871   -1.137571
     55          6           0       11.453364   -0.265933    0.031707
     56          6           0       12.852220   -0.482927   -0.624644
     57          6           0       14.027996   -0.127256    0.272411
     58          6           0       15.362721   -0.240665   -0.544538
     59          6           0       15.635747   -1.679197   -1.041772
     60          6           0       16.382082    0.383241    0.426613
     61          6           0       17.751867    0.549814   -0.180765
     62          6           0       18.806990    1.263739    0.667338
     63          6           0       20.205781    1.328352    0.109550
     64          6           0       20.350141    2.212247   -1.029985
     65          6           0       21.131934    2.025607    1.252446
     66          1           0       -4.028582    3.638998    1.638709
     67          1           0      -10.146217    3.934367   -0.529158
     68          1           0      -10.211199   -2.461230   -1.293931
     69          1           0       -2.447710   -1.121437    2.158130
     70          1           0       -2.109722    1.579165    1.353886
     71          1           0       -2.036435    0.889767    3.632107
     72          1           0       -2.861743    2.335621    3.353894
     73          1           0       -3.820882    0.808540    3.780513
     74          1           0       -1.916136   -1.590714   -0.348387
     75          1           0       -1.999664    0.004332   -0.781667
     76          1           0       -0.194898    0.838635    0.816600
     77          1           0       -0.079913   -1.007239    1.371467
     78          1           0       -5.881020    6.855910    0.930392
     79          1           0       -5.734578    6.109712    2.280159
     80          1           0       -4.647419    5.664409    1.006870
     81          1           0       -9.445588    5.877464   -0.489132
     82          1           0       -9.107420    7.923358    0.623162
     83          1           0       -7.810194    7.293383    1.906056
     84          1           0      -11.821555    3.237561   -2.389564
     85          1           0      -13.087010    1.872521   -1.931173
     86          1           0      -12.851261    3.001520   -0.495378
     87          1           0      -12.326055   -1.640231   -1.215972
     88          1           0      -13.199187   -0.359875   -1.666919
     89          1           0      -12.920868   -1.861171   -3.623473
     90          1           0      -12.749232   -0.027966   -3.969080
     91          1           0      -11.272850   -1.406823   -3.875635
     92          1           0       -9.025601   -4.661743   -1.891212
     93          1           0       -7.843943   -5.717358   -0.546516
     94          1           0       -9.366977   -4.854516   -0.020831
     95          1           0       -3.260763   -3.547595   -0.152706
     96          1           0       -1.706607   -4.583828    3.738568
     97          1           0       -3.200358   -5.622397    3.834013
     98          1           0       -1.776286   -6.120871    2.853232
     99          1           0        2.477033   -1.894810   -1.513219
    100          1           0        2.644392   -0.125213   -2.205560
    101          1           0        4.312870   -1.050547    0.377952
    102          1           0        3.925665    1.445948   -2.392607
    103          1           0        5.895093    2.199988   -2.127063
    104          1           0        5.480945    0.563846   -3.145311
    105          1           0        6.709375    1.363389    0.310928
    106          1           0        6.456737   -0.105753    0.873767
    107          1           0        7.349221   -1.336932   -1.052497
    108          1           0        7.749305    0.138461   -1.940515
    109          1           0        9.026745    1.079406    0.008606
    110          1           0        8.927188   -0.629054    0.831371
    111          1           0       10.395917   -0.136662   -1.857173
    112          1           0        9.239004   -2.234340   -1.987033
    113          1           0       11.030334   -2.481223   -1.510452
    114          1           0        9.759334   -2.594149   -0.161179
    115          1           0       11.407225    0.828068    0.258918
    116          1           0       11.317103   -0.937106    0.868443
    117          1           0       12.878814   -1.597426   -1.041153
    118          1           0       13.203846    0.204014   -1.478858
    119          1           0       13.751754    1.039741    0.309537
    120          1           0       14.128464   -0.586774    1.248560
    121          1           0       15.305806    0.271327   -1.531519
    122          1           0       15.339806   -2.348351   -0.236899
    123          1           0       14.816611   -1.996235   -1.697340
    124          1           0       16.687198   -1.927570   -1.448616
    125          1           0       16.129912    1.450426    0.681384
    126          1           0       16.592174   -0.142557    1.436963
    127          1           0       18.269374   -0.329227   -0.288899
    128          1           0       17.550442    0.971164   -1.071404
    129          1           0       18.402109    2.235355    0.783733
    130          1           0       18.742655    0.762792    1.842832
    131          1           0       20.414641    0.344316   -0.040694
    132          1           0       20.083457    3.221104   -0.648973
    133          1           0       21.330145    2.249452   -1.424954
    134          1           0       19.640674    1.879751   -1.794414
    135          1           0       21.274355    1.503665    2.226273
    136          1           0       22.138556    2.147119    0.898958
    137          1           0       20.588006    2.904403    1.434506
 ---------------------------------------------------------------------

 SCF Done:  E(RCAM-B3LYP) =  -2932.64082529     A.U. after   16 cycles

 Excitation energies and oscillator strengths:

 Excited State   1:      Singlet-A      2.1114 eV  587.23 nm  f=0.1448  <S**2>=0.000
     240 -> 242       -0.10917
     240 -> 243       -0.31770
     241 -> 242        0.60752
 This state for optimization and/or second-order correction.
 Total Energy, E(TD-HF/TD-KS) =  -2932.56323458
 Copying the excited state density for this state as the 1-particle RhoCI density.

 The electronic state is 1-A.
 Alpha  occ. eigenvalues --  -46.84798 -19.26407 -19.26078 -19.21558 -19.20942
 Alpha  occ. eigenvalues --  -19.17843 -14.42046 -14.39226 -14.39206 -14.38657
 Alpha  occ. eigenvalues --  -10.39482 -10.37736 -10.35900 -10.33722 -10.32156
 Alpha  occ. eigenvalues --  -10.31501 -10.30918 -10.29369 -10.29323 -10.29305
 Alpha  occ. eigenvalues --  -10.29288 -10.29196 -10.29116 -10.29057 -10.29007
 Alpha  occ. eigenvalues --  -10.28985 -10.28896 -10.28438 -10.28236 -10.28082
 Alpha  occ. eigenvalues --  -10.27995 -10.27976 -10.27953 -10.27634 -10.27432
 Alpha  occ. eigenvalues --  -10.27430 -10.27302 -10.27163 -10.27080 -10.26962
 Alpha  occ. eigenvalues --  -10.26900 -10.26655 -10.26536 -10.26421 -10.26400
 Alpha  occ. eigenvalues --  -10.26224 -10.26157 -10.26123 -10.26109 -10.26038
 Alpha  occ. eigenvalues --  -10.25983 -10.25903 -10.25844 -10.25759 -10.25589
 Alpha  occ. eigenvalues --  -10.25484 -10.25383 -10.25309 -10.25226 -10.24865
 Alpha  occ. eigenvalues --  -10.24699 -10.23805 -10.23685 -10.23666 -10.22243
 Alpha  occ. eigenvalues --   -3.13670  -1.88389  -1.87925  -1.87819  -1.18896
 Alpha  occ. eigenvalues --   -1.16720  -1.11787  -1.08751  -1.07847  -1.04361
 Alpha  occ. eigenvalues --   -1.03122  -1.02891  -1.01522  -0.91876  -0.91348
 Alpha  occ. eigenvalues --   -0.90973  -0.90109  -0.89705  -0.89595  -0.88846
 Alpha  occ. eigenvalues --   -0.88393  -0.88193  -0.87685  -0.87182  -0.85439
 Alpha  occ. eigenvalues --   -0.85104  -0.84359  -0.84028  -0.83413  -0.83073
 Alpha  occ. eigenvalues --   -0.81669  -0.80793  -0.80419  -0.79718  -0.78496
 Alpha  occ. eigenvalues --   -0.77343  -0.76922  -0.76319  -0.75470  -0.75231
 Alpha  occ. eigenvalues --   -0.75040  -0.74558  -0.74121  -0.72651  -0.72120
 Alpha  occ. eigenvalues --   -0.71651  -0.70263  -0.69448  -0.68690  -0.68302
 Alpha  occ. eigenvalues --   -0.67217  -0.66750  -0.64927  -0.64710  -0.63873
 Alpha  occ. eigenvalues --   -0.63529  -0.63439  -0.62850  -0.62262  -0.61581
 Alpha  occ. eigenvalues --   -0.61398  -0.60920  -0.60361  -0.59487  -0.58508
 Alpha  occ. eigenvalues --   -0.58097  -0.57827  -0.57017  -0.56142  -0.55891
 Alpha  occ. eigenvalues --   -0.55428  -0.55259  -0.55071  -0.54642  -0.54601
 Alpha  occ. eigenvalues --   -0.54287  -0.54254  -0.53601  -0.53231  -0.52994
 Alpha  occ. eigenvalues --   -0.52838  -0.52669  -0.52388  -0.52169  -0.52062
 Alpha  occ. eigenvalues --   -0.51798  -0.51441  -0.50936  -0.50672  -0.50586
 Alpha  occ. eigenvalues --   -0.50422  -0.50353  -0.50218  -0.49750  -0.49473
 Alpha  occ. eigenvalues --   -0.49325  -0.48900  -0.48597  -0.48347  -0.48305
 Alpha  occ. eigenvalues --   -0.48099  -0.47994  -0.47780  -0.47551  -0.47336
 Alpha  occ. eigenvalues --   -0.47209  -0.47016  -0.46575  -0.46137  -0.46031
 Alpha  occ. eigenvalues --   -0.45784  -0.45570  -0.45276  -0.44979  -0.44585
 Alpha  occ. eigenvalues --   -0.44506  -0.44439  -0.44180  -0.43790  -0.43674
 Alpha  occ. eigenvalues --   -0.43536  -0.43438  -0.43323  -0.43155  -0.42841
 Alpha  occ. eigenvalues --   -0.42706  -0.42329  -0.42151  -0.42120  -0.41932
 Alpha  occ. eigenvalues --   -0.41824  -0.41726  -0.41226  -0.41182  -0.40895
 Alpha  occ. eigenvalues --   -0.40747  -0.40669  -0.40482  -0.40418  -0.40046
 Alpha  occ. eigenvalues --   -0.39939  -0.39102  -0.38971  -0.38931  -0.38580
 Alpha  occ. eigenvalues --   -0.38347  -0.38127  -0.37971  -0.37731  -0.37343
 Alpha  occ. eigenvalues --   -0.37147  -0.36999  -0.36996  -0.36831  -0.36660
 Alpha  occ. eigenvalues --   -0.36466  -0.36156  -0.35852  -0.35565  -0.35430
 Alpha  occ. eigenvalues --   -0.35237  -0.34889  -0.34359  -0.34046  -0.33382
 Alpha  occ. eigenvalues --   -0.33290  -0.32645  -0.31136  -0.30469  -0.30262
 Alpha  occ. eigenvalues --   -0.30015  -0.29115  -0.28009  -0.27245  -0.22512
 Alpha  occ. eigenvalues --   -0.21975
 Alpha virt. eigenvalues --   -0.06562  -0.03904   0.01576   0.04134   0.04493
 Alpha virt. eigenvalues --    0.05689   0.06035   0.06455   0.06666   0.07335
 Alpha virt. eigenvalues --    0.08462   0.10277   0.10646   0.11006   0.11454

 Mulliken charges:
               1
     1  Mg   0.821361
     2  C    0.047315
     3  C   -0.234238
     4  C   -0.192805
     5  C   -0.189875
     6  N   -0.605437
     7  C    0.344589
     8  C   -0.139845
     9  C   -0.156696
    10  C    0.334207
    11  C   -0.305689
    12  C   -0.170912
    13  C   -0.268563
    14  C    0.606242
    15  O   -0.473515
    16  O   -0.484289
    17  N   -0.721289
    18  C    0.340255
    19  C   -0.018085
    20  C    0.000585
    21  C    0.307390
    22  C   -0.350350
    23  C   -0.056722
    24  C   -0.241758
    25  N   -0.699787
    26  C    0.307157
    27  C    0.053018
    28  C   -0.004461
    29  C    0.285316
    30  C   -0.341029
    31  C   -0.225095
    32  C   -0.289836
    33  N   -0.734091
    34  C    0.343283
    35  C    0.006439
    36  C   -0.004084
    37  C    0.274564
    38  C   -0.374646
    39  C    0.377694
    40  O   -0.449792
    41  C   -0.326512
    42  C    0.598121
    43  O   -0.533838
    44  O   -0.416821
    45  C   -0.075430
    46  C    0.008769
    47  C   -0.100550
    48  C    0.130874
    49  C   -0.345821
    50  C   -0.234060
    51  C   -0.162135
    52  C   -0.159252
    53  C   -0.075671
    54  C   -0.304901
    55  C   -0.161892
    56  C   -0.178829
    57  C   -0.164323
    58  C   -0.067186
    59  C   -0.319884
    60  C   -0.169318
    61  C   -0.177782
    62  C   -0.167147
    63  C   -0.066229
    64  C   -0.288992
    65  C   -0.314160
    66  H    0.078850
    67  H    0.091182
    68  H    0.081802
    69  H    0.113727
    70  H    0.096011
    71  H    0.110879
    72  H    0.087274
    73  H    0.135088
    74  H    0.125393
    75  H    0.127888
    76  H    0.133980
    77  H    0.127043
    78  H    0.123289
    79  H    0.134347
    80  H    0.115810
    81  H    0.082213
    82  H    0.106698
    83  H    0.101596
    84  H    0.087649
    85  H    0.122087
    86  H    0.085310
    87  H    0.108671
    88  H    0.113036
    89  H    0.083333
    90  H    0.114571
    91  H    0.098232
    92  H    0.138191
    93  H    0.140027
    94  H    0.134008
    95  H    0.144249
    96  H    0.120827
    97  H    0.139488
    98  H    0.133200
    99  H    0.121245
   100  H    0.101409
   101  H    0.089270
   102  H    0.096777
   103  H    0.069559
   104  H    0.140496
   105  H    0.089187
   106  H    0.085269
   107  H    0.121377
   108  H    0.101338
   109  H    0.093863
   110  H    0.052881
   111  H    0.088416
   112  H    0.087330
   113  H    0.103599
   114  H    0.095821
   115  H    0.084608
   116  H    0.097589
   117  H    0.065635
   118  H    0.084959
   119  H    0.078281
   120  H    0.100056
   121  H    0.088486
   122  H    0.099895
   123  H    0.105899
   124  H    0.104518
   125  H    0.087661
   126  H    0.079366
   127  H    0.093676
   128  H    0.095259
   129  H    0.081657
   130  H    0.046487
   131  H    0.089621
   132  H    0.095216
   133  H    0.109537
   134  H    0.096756
   135  H    0.090770
   136  H    0.097798
   137  H    0.108929
 Sum of Mulliken charges =   0.00000

 Dipole moment (field-independent basis, Debye):
    X=              0.2727    Y=              3.0734    Z=             -0.3119  Tot=              3.1011
 Quadrupole moment (field-independent basis, Debye-Ang):
   XX=           -330.2277   YY=           -392.2122   ZZ=           -398.0258
   XY=            -15.0517   XZ=              5.8983   YZ=             -0.9525

 Normal termination of Gaussian 09 at Tue Jul  2 20:42:43 2019.
