 Gaussian 16, Revision A.03,
 Gaussian 16:  ES64L-G16RevA.03 25-Dec-2016

 ----------------------------------------------------------------------
 # td=(NStates=1) iop(3/107=0140000000,3/108=0140000000) CAM-B3LYP/6-31
 G(d,p)
 ----------------------------------------------------------------------

 --
 TD
 --
 Symbolic Z-matrix:
 Charge =  0 Multiplicity = 1

                         Standard orientation:
 ---------------------------------------------------------------------
 Center     Atomic      Atomic             Coordinates (Angstroms)
 Number     Number       Type             X           Y           Z
 ---------------------------------------------------------------------
      1         12           0       -7.125603    0.563269    0.133877
      2          6           0       -4.879063   -1.970882    0.427290
      3          6           0       -4.829418    2.825219    1.317844
      4          6           0       -9.367338    3.055183   -0.611010
      5          6           0       -9.575543   -1.763848   -0.655927
      6          7           0       -5.127401    0.420468    0.706009
      7          6           0       -4.375451   -0.679311    0.778361
      8          6           0       -2.917409   -0.356459    1.242537
      9          6           0       -3.028656    1.085510    1.724234
     10          6           0       -4.409178    1.533380    1.243412
     11          6           0       -2.884495    1.178556    3.278926
     12          6           0       -1.951811   -0.615748    0.086271
     13          6           0       -0.476554   -0.358153    0.470641
     14          6           0        0.491764   -0.682569   -0.605010
     15          8           0        0.270678   -1.113885   -1.788694
     16          8           0        1.715265   -0.448981   -0.195558
     17          7           0       -7.075805    2.653614    0.346987
     18          6           0       -6.003178    3.354581    0.762761
     19          6           0       -6.302690    4.774220    0.825545
     20          6           0       -7.640668    4.840151    0.249097
     21          6           0       -8.050684    3.455064   -0.127326
     22          6           0       -5.431918    5.883734    1.250768
     23          6           0       -8.423156    6.070501    0.063801
     24          6           0       -8.283494    7.239274    0.756275
     25          7           0       -9.142262    0.685780   -0.440869
     26          6           0       -9.889962    1.822629   -0.697114
     27          6           0      -11.221908    1.492610   -1.180693
     28          6           0      -11.307705    0.129285   -1.196275
     29          6           0       -9.965058   -0.396622   -0.864954
     30          6           0      -12.173210    2.475677   -1.351617
     31          6           0      -12.459457   -0.648132   -1.670110
     32          6           0      -12.382601   -1.100773   -3.148301
     33          7           0       -7.242722   -1.370528   -0.151672
     34          6           0       -8.311609   -2.202588   -0.406143
     35          6           0       -7.906765   -3.619975   -0.458834
     36          6           0       -6.508980   -3.553564   -0.044115
     37          6           0       -6.210276   -2.171500    0.179593
     38          6           0       -8.673463   -4.865893   -0.808146
     39          6           0       -5.307784   -4.421012    0.158816
     40          8           0       -5.219131   -5.582366    0.152861
     41          6           0       -4.155321   -3.312256    0.492514
     42          6           0       -3.568696   -3.605087    1.805574
     43          8           0       -3.804542   -3.165855    2.951636
     44          8           0       -2.615043   -4.674127    1.682954
     45          6           0       -2.146010   -5.181002    2.895027
     46          6           0        2.704989   -0.725647   -1.138789
     47          6           0        4.129596   -0.371181   -0.558105
     48          6           0        5.059386    0.327238   -1.097445
     49          6           0        5.144527    1.134550   -2.356629
     50          6           0        6.400711    0.455020   -0.247274
     51          6           0        7.599914   -0.176699   -1.020199
     52          6           0        8.886721   -0.135101   -0.201037
     53          6           0       10.214857   -0.629232   -0.953048
     54          6           0       10.235892   -2.077619   -1.263903
     55          6           0       11.413814   -0.213941   -0.146263
     56          6           0       12.840997   -0.464037   -0.720153
     57          6           0       13.941121   -0.194625    0.266331
     58          6           0       15.370086   -0.292399   -0.372292
     59          6           0       15.718474   -1.739782   -0.792676
     60          6           0       16.412484    0.301064    0.465641
     61          6           0       17.827087    0.483392   -0.077445
     62          6           0       18.773916    1.442376    0.671807
     63          6           0       20.169374    1.488021    0.242001
     64          6           0       20.290831    2.125122   -1.190124
     65          6           0       21.032444    2.050545    1.400182
     66          1           0       -4.225644    3.639677    1.667971
     67          1           0      -10.038017    3.951719   -0.703939
     68          1           0      -10.452957   -2.383312   -1.002756
     69          1           0       -2.617128   -1.119922    2.075471
     70          1           0       -2.281879    1.823607    1.203109
     71          1           0       -1.836860    0.853452    3.604519
     72          1           0       -2.947751    2.284860    3.547088
     73          1           0       -3.503474    0.525280    3.686027
     74          1           0       -2.193511   -1.564666   -0.415774
     75          1           0       -2.128643    0.126188   -0.734444
     76          1           0       -0.269720    0.469836    0.760690
     77          1           0       -0.083985   -1.120559    1.278421
     78          1           0       -5.646365    6.727811    0.577292
     79          1           0       -5.575934    6.156814    2.335556
     80          1           0       -4.469040    5.451468    0.831492
     81          1           0       -9.249827    5.882123   -0.729525
     82          1           0       -8.821055    8.265912    0.430751
     83          1           0       -7.665867    7.267990    1.345638
     84          1           0      -11.993729    3.145008   -2.055482
     85          1           0      -13.128819    2.064023   -1.740704
     86          1           0      -12.365703    3.221822   -0.571539
     87          1           0      -12.625177   -1.638657   -1.205817
     88          1           0      -13.424766    0.047682   -1.580511
     89          1           0      -13.470098   -1.385099   -3.559537
     90          1           0      -12.100685   -0.191165   -3.615714
     91          1           0      -11.681491   -1.805095   -3.219242
     92          1           0       -8.927032   -4.896868   -1.775599
     93          1           0       -7.809969   -5.654231   -0.791857
     94          1           0       -9.555524   -4.821300   -0.148077
     95          1           0       -3.550054   -3.431851   -0.483414
     96          1           0       -1.967029   -4.455800    3.772400
     97          1           0       -2.888548   -6.135339    3.344660
     98          1           0       -1.211978   -5.815775    2.484864
     99          1           0        2.588393   -1.723257   -1.426700
    100          1           0        2.575922   -0.213911   -2.179875
    101          1           0        4.454963   -1.069898    0.280877
    102          1           0        4.199079    1.388406   -2.912854
    103          1           0        5.541192    2.048465   -1.931963
    104          1           0        6.072997    0.832869   -2.939460
    105          1           0        6.589188    1.425391    0.031990
    106          1           0        6.199195   -0.037577    0.644978
    107          1           0        7.305977   -1.209956   -1.457486
    108          1           0        7.806851    0.532245   -1.778299
    109          1           0        9.083670    0.940305    0.209222
    110          1           0        8.667904   -0.919314    0.719691
    111          1           0       10.244662    0.067105   -1.850888
    112          1           0        9.441928   -2.323879   -2.011450
    113          1           0       11.074030   -2.348313   -1.815649
    114          1           0        9.891468   -2.727407   -0.569099
    115          1           0       11.438642    0.913366    0.122245
    116          1           0       11.254664   -0.757568    0.878430
    117          1           0       12.755494   -1.569567   -0.945618
    118          1           0       13.015108    0.019527   -1.540867
    119          1           0       13.983441    0.770071    0.641987
    120          1           0       13.731697   -0.832295    1.245797
    121          1           0       15.065561    0.279849   -1.402765
    122          1           0       15.610630   -2.329969    0.151245
    123          1           0       15.105655   -2.002255   -1.577263
    124          1           0       16.782373   -1.708131   -1.088295
    125          1           0       16.096814    1.358195    0.877622
    126          1           0       16.495338   -0.472003    1.283343
    127          1           0       18.495141   -0.454717   -0.281149
    128          1           0       17.805015    0.922038   -1.007279
    129          1           0       18.123858    2.239896    0.654127
    130          1           0       18.976565    1.087060    1.671861
    131          1           0       20.413056    0.377645    0.105563
    132          1           0       19.688746    2.958168   -1.082482
    133          1           0       21.393988    2.228738   -1.337699
    134          1           0       19.945941    1.378156   -1.929790
    135          1           0       20.582552    1.761734    2.556911
    136          1           0       22.279482    1.905993    1.316052
    137          1           0       20.940960    3.192710    1.241900
 ---------------------------------------------------------------------

 SCF Done:  E(RCAM-B3LYP) =  -2933.44830869     A.U. after   16 cycles

 Excitation energies and oscillator strengths:

 Excited State   1:      Singlet-A      1.9748 eV  627.82 nm  f=0.2850  <S**2>=0.000
     240 -> 243       -0.21913
     241 -> 242        0.66997
 This state for optimization and/or second-order correction.
 Total Energy, E(TD-HF/TD-DFT) =  -2933.37573533
 Copying the excited state density for this state as the 1-particle RhoCI density.

 The electronic state is 1-A.
 Alpha  occ. eigenvalues --  -46.79884 -19.22972 -19.21437 -19.18414 -19.17814
 Alpha  occ. eigenvalues --  -19.15636 -14.38322 -14.35588 -14.35369 -14.35026
 Alpha  occ. eigenvalues --  -10.35625 -10.34335 -10.32139 -10.28463 -10.27303
 Alpha  occ. eigenvalues --  -10.27193 -10.26343 -10.25855 -10.25692 -10.25602
 Alpha  occ. eigenvalues --  -10.25303 -10.25276 -10.24793 -10.24369 -10.24185
 Alpha  occ. eigenvalues --  -10.24017 -10.23989 -10.23871 -10.23389 -10.23231
 Alpha  occ. eigenvalues --  -10.23162 -10.23103 -10.23017 -10.22991 -10.22846
 Alpha  occ. eigenvalues --  -10.22633 -10.22620 -10.22487 -10.22327 -10.22320
 Alpha  occ. eigenvalues --  -10.22277 -10.22205 -10.22195 -10.22102 -10.22100
 Alpha  occ. eigenvalues --  -10.21964 -10.21920 -10.21820 -10.21747 -10.21697
 Alpha  occ. eigenvalues --  -10.21620 -10.21555 -10.21417 -10.21254 -10.20614
 Alpha  occ. eigenvalues --  -10.20611 -10.20445 -10.20328 -10.20311 -10.20181
 Alpha  occ. eigenvalues --  -10.20124 -10.19730 -10.19426 -10.19191 -10.18834
 Alpha  occ. eigenvalues --   -3.08537  -1.83480  -1.83003  -1.82951  -1.15142
 Alpha  occ. eigenvalues --   -1.11235  -1.10576  -1.03147  -1.01159  -0.99590
 Alpha  occ. eigenvalues --   -0.98452  -0.97867  -0.96421  -0.88157  -0.86259
 Alpha  occ. eigenvalues --   -0.86059  -0.85577  -0.84929  -0.84917  -0.84207
 Alpha  occ. eigenvalues --   -0.83748  -0.83163  -0.83001  -0.82551  -0.81952
 Alpha  occ. eigenvalues --   -0.80180  -0.79972  -0.79510  -0.78430  -0.78259
 Alpha  occ. eigenvalues --   -0.77009  -0.76197  -0.75918  -0.75535  -0.74182
 Alpha  occ. eigenvalues --   -0.73796  -0.72539  -0.72071  -0.71352  -0.71264
 Alpha  occ. eigenvalues --   -0.71052  -0.70125  -0.70067  -0.69163  -0.68376
 Alpha  occ. eigenvalues --   -0.67487  -0.66443  -0.65468  -0.64997  -0.63987
 Alpha  occ. eigenvalues --   -0.63217  -0.62325  -0.60888  -0.60740  -0.60282
 Alpha  occ. eigenvalues --   -0.59891  -0.59782  -0.58391  -0.58168  -0.57898
 Alpha  occ. eigenvalues --   -0.56510  -0.56459  -0.56364  -0.55800  -0.55550
 Alpha  occ. eigenvalues --   -0.54715  -0.54423  -0.54167  -0.53638  -0.53544
 Alpha  occ. eigenvalues --   -0.52548  -0.51513  -0.51111  -0.50985  -0.50750
 Alpha  occ. eigenvalues --   -0.50688  -0.50204  -0.49931  -0.49812  -0.49582
 Alpha  occ. eigenvalues --   -0.49423  -0.49305  -0.49122  -0.48713  -0.48523
 Alpha  occ. eigenvalues --   -0.48008  -0.47607  -0.47537  -0.47414  -0.47229
 Alpha  occ. eigenvalues --   -0.46917  -0.46816  -0.46718  -0.46517  -0.46439
 Alpha  occ. eigenvalues --   -0.46242  -0.45989  -0.45730  -0.45601  -0.45292
 Alpha  occ. eigenvalues --   -0.44988  -0.44748  -0.44454  -0.44176  -0.44047
 Alpha  occ. eigenvalues --   -0.43871  -0.43491  -0.43388  -0.43097  -0.42740
 Alpha  occ. eigenvalues --   -0.42708  -0.42683  -0.42563  -0.42321  -0.42248
 Alpha  occ. eigenvalues --   -0.41633  -0.41492  -0.41379  -0.41344  -0.41302
 Alpha  occ. eigenvalues --   -0.41128  -0.40923  -0.40743  -0.40148  -0.40085
 Alpha  occ. eigenvalues --   -0.39793  -0.39702  -0.39541  -0.39317  -0.39009
 Alpha  occ. eigenvalues --   -0.38814  -0.38568  -0.38402  -0.38057  -0.37957
 Alpha  occ. eigenvalues --   -0.37592  -0.37446  -0.37295  -0.37281  -0.37212
 Alpha  occ. eigenvalues --   -0.37067  -0.36758  -0.36632  -0.36390  -0.36118
 Alpha  occ. eigenvalues --   -0.35761  -0.35596  -0.35193  -0.35040  -0.34670
 Alpha  occ. eigenvalues --   -0.34362  -0.34299  -0.33847  -0.33459  -0.33223
 Alpha  occ. eigenvalues --   -0.32976  -0.32806  -0.32557  -0.32200  -0.32184
 Alpha  occ. eigenvalues --   -0.32032  -0.31943  -0.31272  -0.30799  -0.30479
 Alpha  occ. eigenvalues --   -0.30441  -0.29977  -0.29553  -0.28944  -0.28062
 Alpha  occ. eigenvalues --   -0.27686  -0.27326  -0.25740  -0.23748  -0.21948
 Alpha  occ. eigenvalues --   -0.20056
 Alpha virt. eigenvalues --   -0.07528  -0.03999  -0.00639   0.01318   0.02453
 Alpha virt. eigenvalues --    0.03831   0.04667   0.04806   0.05176   0.05806
 Alpha virt. eigenvalues --    0.06265   0.08436   0.08950   0.09603   0.09610

 Mulliken charges:
               1
     1  Mg   0.813940
     2  C   -0.000900
     3  C   -0.169066
     4  C   -0.177405
     5  C   -0.183660
     6  N   -0.637410
     7  C    0.330186
     8  C   -0.147465
     9  C   -0.153122
    10  C    0.321661
    11  C   -0.294841
    12  C   -0.179664
    13  C   -0.211230
    14  C    0.582936
    15  O   -0.524658
    16  O   -0.420328
    17  N   -0.684446
    18  C    0.299218
    19  C    0.013049
    20  C   -0.032454
    21  C    0.300243
    22  C   -0.379111
    23  C   -0.086407
    24  C   -0.190250
    25  N   -0.666237
    26  C    0.327322
    27  C    0.093896
    28  C    0.052896
    29  C    0.232483
    30  C   -0.414423
    31  C   -0.277535
    32  C   -0.291629
    33  N   -0.730127
    34  C    0.302247
    35  C    0.010425
    36  C   -0.037500
    37  C    0.353303
    38  C   -0.369973
    39  C    0.365309
    40  O   -0.397407
    41  C   -0.328869
    42  C    0.639687
    43  O   -0.484145
    44  O   -0.448615
    45  C   -0.066198
    46  C    0.004936
    47  C   -0.179997
    48  C    0.163608
    49  C   -0.370434
    50  C   -0.236854
    51  C   -0.167954
    52  C   -0.169336
    53  C   -0.044500
    54  C   -0.319753
    55  C   -0.164977
    56  C   -0.170973
    57  C   -0.155267
    58  C   -0.060480
    59  C   -0.300876
    60  C   -0.158904
    61  C   -0.195156
    62  C   -0.151945
    63  C   -0.062808
    64  C   -0.312492
    65  C   -0.291597
    66  H    0.075245
    67  H    0.081903
    68  H    0.079818
    69  H    0.114829
    70  H    0.094013
    71  H    0.097294
    72  H    0.103365
    73  H    0.141220
    74  H    0.122142
    75  H    0.113003
    76  H    0.130467
    77  H    0.124181
    78  H    0.129656
    79  H    0.130338
    80  H    0.112579
    81  H    0.069924
    82  H    0.087853
    83  H    0.056375
    84  H    0.137973
    85  H    0.099958
    86  H    0.129789
    87  H    0.103221
    88  H    0.087938
    89  H    0.088841
    90  H    0.113177
    91  H    0.119201
    92  H    0.144869
    93  H    0.142292
    94  H    0.135576
    95  H    0.175202
    96  H    0.134407
    97  H    0.077058
    98  H    0.103774
    99  H    0.130717
   100  H    0.105298
   101  H    0.080091
   102  H    0.116792
   103  H    0.121823
   104  H    0.126280
   105  H    0.106985
   106  H    0.101670
   107  H    0.094774
   108  H    0.098917
   109  H    0.082295
   110  H    0.057576
   111  H    0.072037
   112  H    0.090267
   113  H    0.116959
   114  H    0.118821
   115  H    0.067736
   116  H    0.071335
   117  H    0.090613
   118  H    0.097060
   119  H    0.093326
   120  H    0.063810
   121  H    0.045071
   122  H    0.097090
   123  H    0.110717
   124  H    0.102127
   125  H    0.072661
   126  H    0.093241
   127  H    0.069847
   128  H    0.101893
   129  H    0.089661
   130  H    0.083450
   131  H    0.077792
   132  H    0.114557
   133  H    0.101367
   134  H    0.111641
   135  H    0.085316
   136  H    0.076417
   137  H    0.096520
 Sum of Mulliken charges =  -0.00000

 Dipole moment (field-independent basis, Debye):
    X=              1.0541    Y=              3.5490    Z=             -1.0473  Tot=              3.8475
 Quadrupole moment (field-independent basis, Debye-Ang):
   XX=           -348.6238   YY=           -399.8958   ZZ=           -401.7416
   XY=             -5.1077   XZ=             11.3381   YZ=              2.2970

 Normal termination of Gaussian 16 at Sun Sep 15 03:59:17 2019.
