 Gaussian 09, Revision D.01,
 Gaussian 09:  ES64L-G09RevD.01 24-Apr-2013

 -------------------------------------
 # td=(NStates=1) CAM-B3LYP/6-31G(d,p)
 -------------------------------------

 --
 TD
 --
 Symbolic Z-matrix:
 Charge =  0 Multiplicity = 1

                         Standard orientation:
 ---------------------------------------------------------------------
 Center     Atomic      Atomic             Coordinates (Angstroms)
 Number     Number       Type             X           Y           Z
 ---------------------------------------------------------------------
      1         12           0       -7.165597    0.601541    0.106038
      2          6           0       -4.765780   -1.943399    0.479676
      3          6           0       -4.843026    2.933011    1.136285
      4          6           0       -9.426174    3.063052   -0.575844
      5          6           0       -9.503121   -1.725130   -0.885629
      6          7           0       -5.111124    0.499051    0.748538
      7          6           0       -4.296619   -0.649950    0.819678
      8          6           0       -2.896759   -0.350865    1.333102
      9          6           0       -3.018076    1.104269    1.827283
     10          6           0       -4.357771    1.594138    1.169679
     11          6           0       -3.036612    1.216358    3.432513
     12          6           0       -1.929997   -0.627384    0.144838
     13          6           0       -0.449091   -0.500371    0.547039
     14          6           0        0.520348   -0.666544   -0.567068
     15          8           0        0.275217   -1.009566   -1.722858
     16          8           0        1.737880   -0.316127   -0.128169
     17          7           0       -7.083668    2.578858    0.164437
     18          6           0       -6.079012    3.337322    0.709632
     19          6           0       -6.495371    4.725293    0.625218
     20          6           0       -7.738994    4.895027    0.296638
     21          6           0       -8.226771    3.475121   -0.006151
     22          6           0       -5.641914    5.877570    1.202666
     23          6           0       -8.628195    6.027779    0.121147
     24          6           0       -8.661597    7.106509    0.955115
     25          7           0       -9.120446    0.640574   -0.524601
     26          6           0       -9.904187    1.710270   -0.654598
     27          6           0      -11.217815    1.457150   -1.224500
     28          6           0      -11.156491    0.026122   -1.345700
     29          6           0       -9.903274   -0.396860   -0.924279
     30          6           0      -12.322233    2.394483   -1.523716
     31          6           0      -12.334854   -0.794407   -1.851205
     32          6           0      -12.112102   -1.312406   -3.363775
     33          7           0       -7.267446   -1.426149   -0.114089
     34          6           0       -8.259500   -2.235684   -0.527431
     35          6           0       -7.800878   -3.573656   -0.622273
     36          6           0       -6.510616   -3.593301   -0.118959
     37          6           0       -6.141171   -2.244415    0.070435
     38          6           0       -8.585885   -4.784951   -0.914718
     39          6           0       -5.330961   -4.347508    0.297882
     40          8           0       -5.083631   -5.595676    0.285345
     41          6           0       -4.165852   -3.330186    0.586706
     42          6           0       -3.467817   -3.663788    1.907832
     43          8           0       -3.789801   -3.212206    3.036886
     44          8           0       -2.616285   -4.667088    1.883068
     45          6           0       -2.061078   -4.949441    3.095969
     46          6           0        2.894696   -0.610867   -1.109961
     47          6           0        4.235565   -0.364196   -0.491338
     48          6           0        5.133031    0.384011   -0.891134
     49          6           0        5.145047    1.175818   -2.240105
     50          6           0        6.507517    0.455759   -0.167089
     51          6           0        7.598821   -0.088382   -0.973264
     52          6           0        8.932484   -0.151487   -0.127093
     53          6           0       10.167515   -0.622069   -1.056043
     54          6           0       10.038114   -2.134840   -1.316108
     55          6           0       11.411834   -0.302202   -0.163226
     56          6           0       12.800803   -0.484170   -0.743660
     57          6           0       13.873611   -0.100337    0.168101
     58          6           0       15.395170   -0.192957   -0.530991
     59          6           0       15.711868   -1.701069   -0.725906
     60          6           0       16.305778    0.569733    0.278307
     61          6           0       17.656540    0.623543   -0.237067
     62          6           0       18.691060    1.392605    0.695791
     63          6           0       20.229580    1.346966    0.250724
     64          6           0       20.393782    2.119039   -1.101957
     65          6           0       21.157117    1.783485    1.392397
     66          1           0       -3.943385    3.401093    1.502958
     67          1           0       -9.966211    3.946753   -0.572445
     68          1           0      -10.107998   -2.584681   -1.320780
     69          1           0       -2.574359   -1.099640    2.016664
     70          1           0       -2.082230    1.687408    1.423683
     71          1           0       -1.960181    1.066579    3.749346
     72          1           0       -3.325469    2.166407    3.654172
     73          1           0       -3.658416    0.318170    3.879965
     74          1           0       -2.088739   -1.624002   -0.476166
     75          1           0       -1.970288    0.341205   -0.584534
     76          1           0       -0.267189    0.523092    0.729132
     77          1           0       -0.261888   -1.229167    1.219671
     78          1           0       -6.109925    6.871307    0.650878
     79          1           0       -5.802877    5.959946    2.241452
     80          1           0       -4.556622    5.817167    1.056504
     81          1           0       -9.437248    5.972086   -0.650965
     82          1           0       -9.411004    7.943275    0.913833
     83          1           0       -8.017471    7.198099    1.922212
     84          1           0      -12.111522    3.266052   -2.144833
     85          1           0      -13.175214    1.818865   -2.054378
     86          1           0      -12.748099    2.695891   -0.413929
     87          1           0      -12.611189   -1.642967   -1.107229
     88          1           0      -13.235131   -0.106916   -1.941236
     89          1           0      -13.254410   -1.904072   -3.473122
     90          1           0      -11.961983   -0.404481   -3.960335
     91          1           0      -11.283682   -1.984916   -3.429935
     92          1           0       -9.027849   -5.024711   -1.882092
     93          1           0       -7.838453   -5.594605   -0.801937
     94          1           0       -9.274255   -4.826086   -0.040501
     95          1           0       -3.501636   -3.625842   -0.157762
     96          1           0       -1.740817   -4.109344    3.700407
     97          1           0       -2.910789   -5.786469    3.659265
     98          1           0       -1.194402   -5.435716    2.834311
     99          1           0        2.817533   -1.795949   -1.304007
    100          1           0        2.866305    0.069818   -1.950041
    101          1           0        4.330365   -1.106365    0.168280
    102          1           0        4.005548    1.328578   -2.561731
    103          1           0        5.440534    2.254528   -2.118984
    104          1           0        5.608629    0.721984   -3.021156
    105          1           0        6.571744    1.623882   -0.108470
    106          1           0        6.516740    0.304044    0.874465
    107          1           0        7.401906   -1.030264   -1.304957
    108          1           0        7.866446    0.649684   -1.849952
    109          1           0        9.177195    0.990395    0.350277
    110          1           0        8.784310   -0.918507    0.645981
    111          1           0       10.305842    0.083883   -1.977219
    112          1           0        9.007233   -2.471450   -1.756675
    113          1           0       10.833996   -2.401227   -2.129528
    114          1           0       10.365409   -2.789407   -0.388771
    115          1           0       11.508574    0.647018    0.302581
    116          1           0       11.282446   -1.023462    0.710933
    117          1           0       12.897130   -1.363125   -1.005802
    118          1           0       13.036412    0.070272   -1.681625
    119          1           0       13.604701    0.965941    0.428308
    120          1           0       14.066906   -0.663547    1.198894
    121          1           0       15.266811    0.324897   -1.559543
    122          1           0       15.725767   -2.183811    0.139346
    123          1           0       14.892050   -2.276620   -1.184634
    124          1           0       16.701436   -1.688878   -1.288720
    125          1           0       15.783403    1.642322    0.229785
    126          1           0       16.058321    0.094261    1.224340
    127          1           0       18.049406   -0.316477   -0.391190
    128          1           0       17.848044    1.005576   -1.312666
    129          1           0       18.409914    2.479954    0.770117
    130          1           0       18.517988    0.893792    1.788417
    131          1           0       20.523970    0.219298   -0.120462
    132          1           0       20.129493    3.212140   -0.986414
    133          1           0       21.597168    1.758898   -1.479533
    134          1           0       19.923796    1.714785   -1.852492
    135          1           0       21.123950    1.269835    2.353876
    136          1           0       22.199030    1.819703    1.090247
    137          1           0       21.059285    2.904629    1.506628
 ---------------------------------------------------------------------

 SCF Done:  E(RCAM-B3LYP) =  -2932.61511748     A.U. after   17 cycles

 Excitation energies and oscillator strengths:

 Excited State   1:      Singlet-A      2.1880 eV  566.65 nm  f=0.1846  <S**2>=0.000
     240 -> 242       -0.14757
     240 -> 243        0.27391
     241 -> 242        0.61829
     241 -> 243        0.10548
 This state for optimization and/or second-order correction.
 Total Energy, E(TD-HF/TD-KS) =  -2932.53470858
 Copying the excited state density for this state as the 1-particle RhoCI density.

 The electronic state is 1-A.
 Alpha  occ. eigenvalues --  -46.83787 -19.26902 -19.25815 -19.19777 -19.19675
 Alpha  occ. eigenvalues --  -19.19530 -14.42009 -14.39859 -14.39122 -14.38766
 Alpha  occ. eigenvalues --  -10.39038 -10.38255 -10.35491 -10.32704 -10.32288
 Alpha  occ. eigenvalues --  -10.31280 -10.31277 -10.30954 -10.30273 -10.29997
 Alpha  occ. eigenvalues --  -10.29262 -10.29096 -10.29002 -10.28580 -10.28577
 Alpha  occ. eigenvalues --  -10.28240 -10.28153 -10.28060 -10.27931 -10.27906
 Alpha  occ. eigenvalues --  -10.27895 -10.27783 -10.27691 -10.27602 -10.27595
 Alpha  occ. eigenvalues --  -10.27583 -10.27469 -10.27454 -10.27426 -10.27378
 Alpha  occ. eigenvalues --  -10.27152 -10.27129 -10.27040 -10.26805 -10.26647
 Alpha  occ. eigenvalues --  -10.26627 -10.26255 -10.26160 -10.26154 -10.26109
 Alpha  occ. eigenvalues --  -10.26079 -10.25975 -10.25928 -10.25923 -10.25866
 Alpha  occ. eigenvalues --  -10.25695 -10.25453 -10.25076 -10.24921 -10.24873
 Alpha  occ. eigenvalues --  -10.24809 -10.24785 -10.24091 -10.23983 -10.22631
 Alpha  occ. eigenvalues --   -3.12887  -1.87590  -1.87132  -1.87066  -1.20602
 Alpha  occ. eigenvalues --   -1.16295  -1.07651  -1.07006  -1.06687  -1.04507
 Alpha  occ. eigenvalues --   -1.03112  -1.02573  -1.01459  -0.92489  -0.92308
 Alpha  occ. eigenvalues --   -0.91407  -0.90239  -0.89806  -0.89451  -0.88585
 Alpha  occ. eigenvalues --   -0.87563  -0.87421  -0.87401  -0.86731  -0.86536
 Alpha  occ. eigenvalues --   -0.85650  -0.84634  -0.83754  -0.83571  -0.82330
 Alpha  occ. eigenvalues --   -0.81728  -0.81112  -0.80765  -0.79929  -0.78449
 Alpha  occ. eigenvalues --   -0.77628  -0.77106  -0.76296  -0.76224  -0.75993
 Alpha  occ. eigenvalues --   -0.75701  -0.74771  -0.74170  -0.73088  -0.72146
 Alpha  occ. eigenvalues --   -0.71816  -0.70114  -0.69366  -0.68926  -0.68386
 Alpha  occ. eigenvalues --   -0.67194  -0.66778  -0.65679  -0.65225  -0.64312
 Alpha  occ. eigenvalues --   -0.63616  -0.63022  -0.62350  -0.62189  -0.61648
 Alpha  occ. eigenvalues --   -0.61450  -0.61134  -0.60558  -0.60041  -0.59026
 Alpha  occ. eigenvalues --   -0.58497  -0.58071  -0.57873  -0.57576  -0.57241
 Alpha  occ. eigenvalues --   -0.56329  -0.55838  -0.55377  -0.55314  -0.54534
 Alpha  occ. eigenvalues --   -0.54253  -0.54200  -0.54070  -0.53566  -0.53376
 Alpha  occ. eigenvalues --   -0.52596  -0.52492  -0.52187  -0.51784  -0.51580
 Alpha  occ. eigenvalues --   -0.51223  -0.51138  -0.50975  -0.50864  -0.50495
 Alpha  occ. eigenvalues --   -0.50365  -0.50193  -0.49903  -0.49826  -0.49559
 Alpha  occ. eigenvalues --   -0.49375  -0.49165  -0.48566  -0.48476  -0.48191
 Alpha  occ. eigenvalues --   -0.48159  -0.47951  -0.47459  -0.46965  -0.46698
 Alpha  occ. eigenvalues --   -0.46586  -0.46484  -0.46241  -0.46004  -0.45689
 Alpha  occ. eigenvalues --   -0.45546  -0.45383  -0.45134  -0.44862  -0.44759
 Alpha  occ. eigenvalues --   -0.44687  -0.44453  -0.44296  -0.43955  -0.43875
 Alpha  occ. eigenvalues --   -0.43612  -0.43368  -0.43220  -0.43115  -0.42968
 Alpha  occ. eigenvalues --   -0.42675  -0.42559  -0.42299  -0.42096  -0.42010
 Alpha  occ. eigenvalues --   -0.41983  -0.41805  -0.41709  -0.41435  -0.41370
 Alpha  occ. eigenvalues --   -0.41085  -0.40843  -0.40763  -0.40474  -0.40382
 Alpha  occ. eigenvalues --   -0.40238  -0.40138  -0.39747  -0.39628  -0.39079
 Alpha  occ. eigenvalues --   -0.38565  -0.38326  -0.38303  -0.37833  -0.37513
 Alpha  occ. eigenvalues --   -0.37231  -0.37145  -0.36890  -0.36529  -0.36443
 Alpha  occ. eigenvalues --   -0.36242  -0.36172  -0.35965  -0.35732  -0.35680
 Alpha  occ. eigenvalues --   -0.35441  -0.34814  -0.34703  -0.33738  -0.33260
 Alpha  occ. eigenvalues --   -0.32604  -0.32423  -0.32102  -0.31346  -0.30944
 Alpha  occ. eigenvalues --   -0.29976  -0.29084  -0.28839  -0.27461  -0.23317
 Alpha  occ. eigenvalues --   -0.21451
 Alpha virt. eigenvalues --   -0.05934  -0.03582   0.01152   0.03316   0.05149
 Alpha virt. eigenvalues --    0.05937   0.06431   0.06597   0.07097   0.07578
 Alpha virt. eigenvalues --    0.08268   0.10402   0.10919   0.11067   0.11337

 Mulliken charges:
               1
     1  Mg   0.820861
     2  C    0.080167
     3  C   -0.189791
     4  C   -0.140994
     5  C   -0.163135
     6  N   -0.625093
     7  C    0.304086
     8  C   -0.125607
     9  C   -0.160626
    10  C    0.295192
    11  C   -0.298948
    12  C   -0.188311
    13  C   -0.242072
    14  C    0.591531
    15  O   -0.491101
    16  O   -0.496346
    17  N   -0.693787
    18  C    0.364079
    19  C   -0.019233
    20  C    0.090294
    21  C    0.204642
    22  C   -0.366590
    23  C   -0.104724
    24  C   -0.239390
    25  N   -0.668024
    26  C    0.261881
    27  C    0.033571
    28  C    0.021887
    29  C    0.312481
    30  C   -0.370116
    31  C   -0.249803
    32  C   -0.287206
    33  N   -0.724788
    34  C    0.308500
    35  C   -0.026232
    36  C    0.066986
    37  C    0.215110
    38  C   -0.397159
    39  C    0.352248
    40  O   -0.497564
    41  C   -0.296586
    42  C    0.590751
    43  O   -0.509779
    44  O   -0.389450
    45  C   -0.067879
    46  C    0.013733
    47  C   -0.092538
    48  C    0.099140
    49  C   -0.366774
    50  C   -0.218867
    51  C   -0.157068
    52  C   -0.172161
    53  C   -0.059577
    54  C   -0.309490
    55  C   -0.173355
    56  C   -0.148771
    57  C   -0.188654
    58  C   -0.085609
    59  C   -0.309188
    60  C   -0.119959
    61  C   -0.189314
    62  C   -0.161016
    63  C   -0.048372
    64  C   -0.286812
    65  C   -0.308118
    66  H    0.084823
    67  H    0.073205
    68  H    0.101290
    69  H    0.123168
    70  H    0.093931
    71  H    0.109594
    72  H    0.122870
    73  H    0.134743
    74  H    0.124739
    75  H    0.084643
    76  H    0.140622
    77  H    0.135575
    78  H    0.098489
    79  H    0.132891
    80  H    0.111237
    81  H    0.112687
    82  H    0.111071
    83  H    0.110379
    84  H    0.127584
    85  H    0.107187
    86  H    0.107942
    87  H    0.100004
    88  H    0.096964
    89  H    0.071430
    90  H    0.119648
    91  H    0.120671
    92  H    0.124885
    93  H    0.147505
    94  H    0.133327
    95  H    0.165282
    96  H    0.132726
    97  H    0.092336
    98  H    0.117313
    99  H    0.116123
   100  H    0.118195
   101  H    0.087558
   102  H    0.093028
   103  H    0.115099
   104  H    0.147157
   105  H    0.083997
   106  H    0.109533
   107  H    0.107695
   108  H    0.090268
   109  H    0.065045
   110  H    0.097897
   111  H    0.081387
   112  H    0.101420
   113  H    0.098544
   114  H    0.101414
   115  H    0.089589
   116  H    0.075339
   117  H    0.095343
   118  H    0.083573
   119  H    0.076867
   120  H    0.065837
   121  H    0.064044
   122  H    0.111458
   123  H    0.100940
   124  H    0.098713
   125  H    0.077173
   126  H    0.091385
   127  H    0.107183
   128  H    0.079930
   129  H    0.086035
   130  H    0.066162
   131  H    0.056067
   132  H    0.101027
   133  H    0.052207
   134  H    0.127436
   135  H    0.112589
   136  H    0.102870
   137  H    0.091949
 Sum of Mulliken charges =   0.00000

 Dipole moment (field-independent basis, Debye):
    X=              2.5680    Y=              5.5953    Z=              0.4059  Tot=              6.1699
 Quadrupole moment (field-independent basis, Debye-Ang):
   XX=           -342.3947   YY=           -396.5444   ZZ=           -400.2872
   XY=            -41.1470   XZ=              3.4588   YZ=              4.7549

 Normal termination of Gaussian 09 at Fri Jul  5 02:04:21 2019.
