 Gaussian 09, Revision D.01,
 Gaussian 09:  ES64L-G09RevD.01 24-Apr-2013

 -------------------------------------
 # td=(NStates=1) CAM-B3LYP/6-31G(d,p)
 -------------------------------------

 --
 TD
 --
 Symbolic Z-matrix:
 Charge =  0 Multiplicity = 1

                         Standard orientation:
 ---------------------------------------------------------------------
 Center     Atomic      Atomic             Coordinates (Angstroms)
 Number     Number       Type             X           Y           Z
 ---------------------------------------------------------------------
      1         12           0       -7.052578    0.623803    0.086933
      2          6           0       -5.006889   -2.014488    0.579199
      3          6           0       -4.784351    2.858742    1.335175
      4          6           0       -9.443291    3.065102   -0.382851
      5          6           0       -9.500219   -1.714637   -0.961927
      6          7           0       -5.112779    0.377009    0.825560
      7          6           0       -4.335269   -0.726365    0.843466
      8          6           0       -2.989509   -0.473083    1.288313
      9          6           0       -3.010016    1.067284    1.700081
     10          6           0       -4.395814    1.556413    1.098739
     11          6           0       -2.895839    1.339717    3.225999
     12          6           0       -1.934246   -0.801628    0.140148
     13          6           0       -0.518988   -0.489953    0.705247
     14          6           0        0.541261   -0.715563   -0.472620
     15          8           0        0.349518   -1.082016   -1.585026
     16          8           0        1.834978   -0.460067   -0.097970
     17          7           0       -7.148003    2.633614    0.279268
     18          6           0       -6.057093    3.443654    0.778058
     19          6           0       -6.449604    4.832937    0.755496
     20          6           0       -7.790780    4.891550    0.286545
     21          6           0       -8.166194    3.482727    0.077046
     22          6           0       -5.532422    5.902966    1.227063
     23          6           0       -8.615290    6.079799    0.047476
     24          6           0       -8.452778    7.159764    0.749563
     25          7           0       -9.072724    0.697599   -0.565898
     26          6           0       -9.897554    1.789958   -0.681539
     27          6           0      -11.168491    1.453537   -1.127930
     28          6           0      -11.237936    0.144617   -1.240487
     29          6           0       -9.878554   -0.448953   -0.993554
     30          6           0      -12.253691    2.408597   -1.368721
     31          6           0      -12.300720   -0.715594   -1.942961
     32          6           0      -12.320717   -0.986574   -3.511426
     33          7           0       -7.386411   -1.434427   -0.193089
     34          6           0       -8.287993   -2.295946   -0.687435
     35          6           0       -7.887926   -3.585098   -0.565598
     36          6           0       -6.544373   -3.586071   -0.154384
     37          6           0       -6.289089   -2.106233    0.089465
     38          6           0       -8.754043   -4.743679   -1.045404
     39          6           0       -5.408700   -4.381318    0.264469
     40          8           0       -5.319525   -5.601257    0.276008
     41          6           0       -4.323282   -3.332695    0.600557
     42          6           0       -3.683833   -3.651012    2.020506
     43          8           0       -3.973065   -3.167626    3.070472
     44          8           0       -2.824657   -4.736482    1.833160
     45          6           0       -2.300158   -5.229183    3.009503
     46          6           0        2.799329   -0.573201   -1.066036
     47          6           0        4.090321   -0.467470   -0.404417
     48          6           0        5.118059    0.313966   -0.866140
     49          6           0        5.020444    1.143642   -2.109492
     50          6           0        6.463643    0.459668   -0.160623
     51          6           0        7.655693   -0.149872   -0.971951
     52          6           0        8.952762   -0.321665   -0.102832
     53          6           0       10.141714   -0.553482   -0.950978
     54          6           0       10.263536   -2.003415   -1.431469
     55          6           0       11.489661   -0.120772   -0.242317
     56          6           0       12.827321   -0.196268   -0.925871
     57          6           0       13.990485   -0.034774    0.059675
     58          6           0       15.430271   -0.047222   -0.592832
     59          6           0       15.685689   -1.543625   -0.986650
     60          6           0       16.489620    0.406482    0.374299
     61          6           0       17.981992    0.538636   -0.239245
     62          6           0       18.954440    1.086653    0.656918
     63          6           0       20.415228    1.234946    0.239761
     64          6           0       20.465993    2.149209   -0.897955
     65          6           0       21.259940    1.737823    1.432689
     66          1           0       -3.936199    3.436874    1.914410
     67          1           0       -9.974473    3.800230   -0.522675
     68          1           0      -10.324070   -2.399234   -1.110402
     69          1           0       -2.729670   -0.995085    2.068294
     70          1           0       -2.215466    1.781245    1.267931
     71          1           0       -1.922086    0.909207    3.645091
     72          1           0       -3.199786    2.385786    3.412994
     73          1           0       -3.454749    0.499347    3.654154
     74          1           0       -1.944329   -2.058525    0.041405
     75          1           0       -2.229610   -0.341262   -0.970119
     76          1           0       -0.231262    0.508600    1.037024
     77          1           0       -0.228145   -0.947437    1.478475
     78          1           0       -5.646913    6.752969    0.652001
     79          1           0       -5.797858    6.143065    2.279943
     80          1           0       -4.435943    5.580550    1.269650
     81          1           0       -9.388202    6.224781   -0.674461
     82          1           0       -8.980555    8.191485    0.540305
     83          1           0       -7.706724    7.235657    1.496665
     84          1           0      -12.139465    3.024304   -2.201264
     85          1           0      -13.160839    1.833549   -1.685012
     86          1           0      -12.420691    3.161459   -0.536521
     87          1           0      -12.664380   -1.584889   -1.335099
     88          1           0      -13.365982   -0.248971   -1.795992
     89          1           0      -12.996866   -1.555637   -3.834841
     90          1           0      -12.441024   -0.039083   -4.110357
     91          1           0      -11.190167   -1.586983   -3.501222
     92          1           0       -9.293208   -4.484947   -1.923515
     93          1           0       -8.151441   -5.517101   -1.044121
     94          1           0       -9.454559   -4.951441   -0.372481
     95          1           0       -3.421830   -3.330016   -0.030267
     96          1           0       -1.783924   -4.465569    3.581223
     97          1           0       -3.019254   -5.755591    3.470041
     98          1           0       -1.733596   -6.062132    2.584046
     99          1           0        2.729410   -1.737390   -1.321420
    100          1           0        2.633698    0.172447   -1.822592
    101          1           0        4.345651   -1.064125    0.535916
    102          1           0        4.021191    1.244137   -2.431984
    103          1           0        5.515880    2.278755   -1.891241
    104          1           0        5.508134    0.789174   -2.881605
    105          1           0        6.596877    1.422546    0.023780
    106          1           0        6.386960    0.022224    0.822684
    107          1           0        7.318190   -1.122463   -1.285771
    108          1           0        7.699014    0.490876   -1.619567
    109          1           0        9.048374    0.699535    0.467598
    110          1           0        8.732704   -1.176030    0.662320
    111          1           0       10.169466    0.069864   -1.892261
    112          1           0        9.389875   -2.345570   -1.755690
    113          1           0       11.131853   -2.172557   -2.191205
    114          1           0       10.604547   -2.731259   -0.639823
    115          1           0       11.424066    0.861606    0.325861
    116          1           0       11.651920   -0.784105    0.656721
    117          1           0       13.106581   -1.152345   -1.338267
    118          1           0       12.933917    0.651477   -1.774023
    119          1           0       13.967264    1.048204    0.462213
    120          1           0       14.119230   -0.899658    0.808270
    121          1           0       15.252619    0.596908   -1.444734
    122          1           0       15.925265   -2.253657   -0.073765
    123          1           0       14.868154   -2.098911   -1.702745
    124          1           0       16.501231   -1.586770   -1.823353
    125          1           0       16.214099    1.445360    0.920168
    126          1           0       16.471165   -0.261172    1.234862
    127          1           0       18.358136   -0.455368   -0.560703
    128          1           0       17.913861    1.186725   -1.197195
    129          1           0       18.609733    2.053590    0.935182
    130          1           0       18.914150    0.561575    1.579959
    131          1           0       20.750536    0.286761   -0.118466
    132          1           0       19.920854    3.150082   -0.872001
    133          1           0       21.460221    2.258128   -1.242414
    134          1           0       20.144453    1.686101   -1.973594
    135          1           0       21.363005    1.063859    2.158508
    136          1           0       22.236124    1.678085    1.072486
    137          1           0       21.046718    2.724219    2.006456
 ---------------------------------------------------------------------

 SCF Done:  E(RCAM-B3LYP) =  -2932.58126518     A.U. after   17 cycles

 Excitation energies and oscillator strengths:

 Excited State   1:      Singlet-A      1.8929 eV  655.00 nm  f=0.3527  <S**2>=0.000
     240 -> 243        0.21599
     241 -> 242        0.66236
 This state for optimization and/or second-order correction.
 Total Energy, E(TD-HF/TD-KS) =  -2932.51170270
 Copying the excited state density for this state as the 1-particle RhoCI density.

 The electronic state is 1-A.
 Alpha  occ. eigenvalues --  -46.85106 -19.25663 -19.24948 -19.22552 -19.21243
 Alpha  occ. eigenvalues --  -19.19982 -14.42758 -14.39920 -14.39068 -14.38852
 Alpha  occ. eigenvalues --  -10.39719 -10.39306 -10.34879 -10.31704 -10.31452
 Alpha  occ. eigenvalues --  -10.31191 -10.31148 -10.31124 -10.29387 -10.29304
 Alpha  occ. eigenvalues --  -10.28836 -10.28746 -10.28736 -10.28734 -10.28631
 Alpha  occ. eigenvalues --  -10.28218 -10.27962 -10.27781 -10.27624 -10.27584
 Alpha  occ. eigenvalues --  -10.27553 -10.27486 -10.27389 -10.27367 -10.27159
 Alpha  occ. eigenvalues --  -10.26903 -10.26841 -10.26827 -10.26659 -10.26573
 Alpha  occ. eigenvalues --  -10.26440 -10.26333 -10.26254 -10.26111 -10.26008
 Alpha  occ. eigenvalues --  -10.25991 -10.25946 -10.25772 -10.25628 -10.25560
 Alpha  occ. eigenvalues --  -10.25551 -10.25479 -10.25389 -10.25382 -10.25317
 Alpha  occ. eigenvalues --  -10.25281 -10.25181 -10.25083 -10.24693 -10.24184
 Alpha  occ. eigenvalues --  -10.24097 -10.23622 -10.23467 -10.23125 -10.22556
 Alpha  occ. eigenvalues --   -3.13955  -1.88671  -1.88180  -1.88136  -1.19366
 Alpha  occ. eigenvalues --   -1.18493  -1.11141  -1.10297  -1.10246  -1.05457
 Alpha  occ. eigenvalues --   -1.03749  -1.02442  -1.01088  -0.93093  -0.91166
 Alpha  occ. eigenvalues --   -0.90753  -0.90203  -0.89630  -0.89500  -0.88979
 Alpha  occ. eigenvalues --   -0.88432  -0.88355  -0.87729  -0.87538  -0.86171
 Alpha  occ. eigenvalues --   -0.85347  -0.84630  -0.83908  -0.83434  -0.82917
 Alpha  occ. eigenvalues --   -0.81894  -0.81533  -0.80634  -0.80094  -0.79075
 Alpha  occ. eigenvalues --   -0.78298  -0.77307  -0.76692  -0.76390  -0.76286
 Alpha  occ. eigenvalues --   -0.75988  -0.74403  -0.73691  -0.73473  -0.72943
 Alpha  occ. eigenvalues --   -0.71899  -0.70489  -0.70048  -0.69069  -0.68917
 Alpha  occ. eigenvalues --   -0.67519  -0.66570  -0.65843  -0.65324  -0.64646
 Alpha  occ. eigenvalues --   -0.63981  -0.63183  -0.63008  -0.62488  -0.62470
 Alpha  occ. eigenvalues --   -0.61704  -0.61004  -0.60593  -0.60270  -0.59645
 Alpha  occ. eigenvalues --   -0.59003  -0.58676  -0.58088  -0.57702  -0.57495
 Alpha  occ. eigenvalues --   -0.56631  -0.56185  -0.55735  -0.55401  -0.55033
 Alpha  occ. eigenvalues --   -0.54579  -0.54312  -0.54130  -0.54009  -0.53557
 Alpha  occ. eigenvalues --   -0.53388  -0.52882  -0.52500  -0.52368  -0.52089
 Alpha  occ. eigenvalues --   -0.51655  -0.51513  -0.51255  -0.50736  -0.50515
 Alpha  occ. eigenvalues --   -0.50334  -0.50243  -0.50021  -0.49900  -0.49636
 Alpha  occ. eigenvalues --   -0.49593  -0.49410  -0.48916  -0.48839  -0.48630
 Alpha  occ. eigenvalues --   -0.48415  -0.48163  -0.47775  -0.47634  -0.47546
 Alpha  occ. eigenvalues --   -0.47088  -0.46995  -0.46894  -0.46705  -0.46280
 Alpha  occ. eigenvalues --   -0.46079  -0.45604  -0.45595  -0.45557  -0.45271
 Alpha  occ. eigenvalues --   -0.45121  -0.44996  -0.44707  -0.44599  -0.44446
 Alpha  occ. eigenvalues --   -0.44328  -0.44254  -0.43671  -0.43558  -0.43346
 Alpha  occ. eigenvalues --   -0.43116  -0.42797  -0.42562  -0.42464  -0.42376
 Alpha  occ. eigenvalues --   -0.42162  -0.41855  -0.41700  -0.41398  -0.41237
 Alpha  occ. eigenvalues --   -0.41113  -0.40921  -0.40547  -0.40518  -0.40452
 Alpha  occ. eigenvalues --   -0.40297  -0.40184  -0.39768  -0.39723  -0.39090
 Alpha  occ. eigenvalues --   -0.39010  -0.38657  -0.38373  -0.38200  -0.37533
 Alpha  occ. eigenvalues --   -0.37445  -0.37250  -0.36977  -0.36843  -0.36342
 Alpha  occ. eigenvalues --   -0.36212  -0.36053  -0.35934  -0.35782  -0.35485
 Alpha  occ. eigenvalues --   -0.35458  -0.35103  -0.34862  -0.34299  -0.33766
 Alpha  occ. eigenvalues --   -0.32990  -0.32843  -0.32231  -0.31170  -0.29870
 Alpha  occ. eigenvalues --   -0.29594  -0.28529  -0.28495  -0.27583  -0.23384
 Alpha  occ. eigenvalues --   -0.20800
 Alpha virt. eigenvalues --   -0.07364  -0.02677   0.00893   0.04344   0.05547
 Alpha virt. eigenvalues --    0.05802   0.06276   0.06546   0.07343   0.07410
 Alpha virt. eigenvalues --    0.07798   0.10197   0.10761   0.11589   0.12236

 Mulliken charges:
               1
     1  Mg   0.812653
     2  C    0.063091
     3  C   -0.191301
     4  C   -0.100447
     5  C   -0.204753
     6  N   -0.632444
     7  C    0.341495
     8  C   -0.155420
     9  C   -0.152779
    10  C    0.309355
    11  C   -0.308103
    12  C   -0.176445
    13  C   -0.239204
    14  C    0.569427
    15  O   -0.445641
    16  O   -0.475696
    17  N   -0.704776
    18  C    0.238854
    19  C    0.021695
    20  C   -0.000850
    21  C    0.296083
    22  C   -0.376651
    23  C   -0.062291
    24  C   -0.243616
    25  N   -0.684341
    26  C    0.328618
    27  C    0.101200
    28  C    0.004871
    29  C    0.279161
    30  C   -0.382972
    31  C   -0.275381
    32  C   -0.266381
    33  N   -0.728791
    34  C    0.293978
    35  C   -0.010859
    36  C   -0.042150
    37  C    0.345844
    38  C   -0.344801
    39  C    0.386599
    40  O   -0.467135
    41  C   -0.321503
    42  C    0.595739
    43  O   -0.443105
    44  O   -0.458495
    45  C   -0.078971
    46  C    0.038744
    47  C   -0.125975
    48  C    0.092555
    49  C   -0.349104
    50  C   -0.244800
    51  C   -0.152341
    52  C   -0.181448
    53  C   -0.040575
    54  C   -0.310761
    55  C   -0.172596
    56  C   -0.163647
    57  C   -0.171235
    58  C   -0.057865
    59  C   -0.311834
    60  C   -0.164580
    61  C   -0.171408
    62  C   -0.152990
    63  C   -0.058296
    64  C   -0.299684
    65  C   -0.314959
    66  H    0.097200
    67  H    0.022719
    68  H    0.087325
    69  H    0.118888
    70  H    0.096732
    71  H    0.098827
    72  H    0.116254
    73  H    0.129370
    74  H    0.091826
    75  H    0.128142
    76  H    0.137631
    77  H    0.141867
    78  H    0.132823
    79  H    0.126134
    80  H    0.105270
    81  H    0.102763
    82  H    0.090894
    83  H    0.098872
    84  H    0.128837
    85  H    0.110518
    86  H    0.115563
    87  H    0.107450
    88  H    0.076233
    89  H    0.124947
    90  H    0.105811
    91  H    0.075630
    92  H    0.121958
    93  H    0.142869
    94  H    0.132927
    95  H    0.161309
    96  H    0.118597
    97  H    0.133319
    98  H    0.119628
    99  H    0.103235
   100  H    0.114436
   101  H    0.088567
   102  H    0.106522
   103  H    0.072957
   104  H    0.140835
   105  H    0.110110
   106  H    0.087844
   107  H    0.103452
   108  H    0.104363
   109  H    0.080703
   110  H    0.089281
   111  H    0.085972
   112  H    0.110855
   113  H    0.092451
   114  H    0.092472
   115  H    0.079108
   116  H    0.081333
   117  H    0.099150
   118  H    0.063953
   119  H    0.075347
   120  H    0.081522
   121  H    0.090422
   122  H    0.098585
   123  H    0.081673
   124  H    0.095148
   125  H    0.066409
   126  H    0.091975
   127  H    0.087029
   128  H    0.082080
   129  H    0.086359
   130  H    0.081150
   131  H    0.091592
   132  H    0.101039
   133  H    0.101127
   134  H    0.069970
   135  H    0.111777
   136  H    0.101798
   137  H    0.097707
 Sum of Mulliken charges =   0.00000

 Dipole moment (field-independent basis, Debye):
    X=              1.5111    Y=              4.6763    Z=              0.3657  Tot=              4.9280
 Quadrupole moment (field-independent basis, Debye-Ang):
   XX=           -332.5908   YY=           -394.5072   ZZ=           -396.5210
   XY=            -29.6397   XZ=             18.4657   YZ=             -2.8083

 Normal termination of Gaussian 09 at Sat Jul  6 01:42:39 2019.
