 Gaussian 16, Revision A.03,
 Gaussian 16:  ES64L-G16RevA.03 25-Dec-2016

 ----------------------------------------------------------------------
 # td=(NStates=1) iop(3/107=0140000000,3/108=0140000000) CAM-B3LYP/6-31
 G(d,p)
 ----------------------------------------------------------------------

 --
 TD
 --
 Symbolic Z-matrix:
 Charge =  0 Multiplicity = 1

                         Standard orientation:
 ---------------------------------------------------------------------
 Center     Atomic      Atomic             Coordinates (Angstroms)
 Number     Number       Type             X           Y           Z
 ---------------------------------------------------------------------
      1         12           0       -7.066461    0.625659    0.038580
      2          6           0       -4.819231   -1.960949    0.419321
      3          6           0       -4.861085    2.818860    1.160339
      4          6           0       -9.292046    3.099016   -0.539677
      5          6           0       -9.448280   -1.669485   -0.885611
      6          7           0       -5.090350    0.373314    0.757177
      7          6           0       -4.377363   -0.643066    0.829152
      8          6           0       -2.956728   -0.370727    1.231354
      9          6           0       -3.061325    1.199279    1.629449
     10          6           0       -4.398854    1.450258    1.146643
     11          6           0       -2.934742    1.286309    3.179589
     12          6           0       -1.879778   -0.690898    0.139288
     13          6           0       -0.383288   -0.488523    0.564983
     14          6           0        0.591913   -0.799480   -0.487786
     15          8           0        0.224935   -1.093290   -1.632570
     16          8           0        1.846292   -0.586232   -0.116689
     17          7           0       -7.154927    2.683273    0.327610
     18          6           0       -6.117577    3.371042    0.789801
     19          6           0       -6.416287    4.757272    0.874162
     20          6           0       -7.761608    4.928138    0.277724
     21          6           0       -8.155165    3.574337   -0.046335
     22          6           0       -5.473430    5.958592    1.066486
     23          6           0       -8.416262    6.165586   -0.019106
     24          6           0       -8.218908    7.321928    0.593501
     25          7           0       -9.152105    0.647722   -0.502233
     26          6           0       -9.950118    1.786430   -0.677157
     27          6           0      -11.203150    1.414149   -1.085358
     28          6           0      -11.301600    0.077367   -1.148296
     29          6           0       -9.996940   -0.432149   -0.816260
     30          6           0      -12.161569    2.512547   -1.228743
     31          6           0      -12.486623   -0.702303   -1.643856
     32          6           0      -12.405149   -1.115358   -3.088130
     33          7           0       -7.196825   -1.388394   -0.129274
     34          6           0       -8.190057   -2.232004   -0.561356
     35          6           0       -7.778608   -3.607958   -0.571682
     36          6           0       -6.427829   -3.603120   -0.201699
     37          6           0       -6.112360   -2.167801    0.078214
     38          6           0       -8.601931   -4.830779   -0.812532
     39          6           0       -5.354984   -4.446274    0.229087
     40          8           0       -5.310577   -5.576445    0.237683
     41          6           0       -4.196074   -3.369406    0.521590
     42          6           0       -3.569875   -3.744563    1.843577
     43          8           0       -3.627677   -3.165143    2.932950
     44          8           0       -2.792134   -4.801980    1.628681
     45          6           0       -2.103185   -5.259262    2.906050
     46          6           0        2.766596   -0.736905   -1.099924
     47          6           0        4.158285   -0.512870   -0.373363
     48          6           0        5.039444    0.266640   -0.900018
     49          6           0        5.013200    1.041111   -2.212522
     50          6           0        6.347615    0.384729   -0.231462
     51          6           0        7.566463   -0.070868   -1.064827
     52          6           0        8.888750   -0.035800   -0.296433
     53          6           0       10.181597   -0.549950   -1.041187
     54          6           0       10.175625   -1.966375   -1.492615
     55          6           0       11.371424   -0.201499   -0.035491
     56          6           0       12.786643   -0.448541   -0.628705
     57          6           0       13.976301   -0.112768    0.212853
     58          6           0       15.349027   -0.187961   -0.519333
     59          6           0       15.545480   -1.628941   -0.896092
     60          6           0       16.416126    0.311237    0.469548
     61          6           0       17.810583    0.593254   -0.210328
     62          6           0       18.682287    1.315151    0.751293
     63          6           0       20.147255    1.341619    0.213712
     64          6           0       20.306798    2.133935   -1.044538
     65          6           0       21.038699    2.035144    1.380238
     66          1           0       -3.980529    3.395963    1.759506
     67          1           0      -10.044718    3.917146   -0.727861
     68          1           0      -10.444776   -2.317819   -1.076448
     69          1           0       -2.761176   -1.026625    2.250519
     70          1           0       -2.379999    1.960325    1.408928
     71          1           0       -1.852339    0.963254    3.338363
     72          1           0       -2.934593    2.237972    3.600361
     73          1           0       -3.687504    0.553993    3.855294
     74          1           0       -1.968056   -1.634817   -0.190028
     75          1           0       -2.230650    0.041257   -0.651652
     76          1           0       -0.265595    0.655387    0.894818
     77          1           0       -0.289335   -0.992111    1.530737
     78          1           0       -5.717534    6.746854    0.545478
     79          1           0       -5.758535    6.252912    2.156934
     80          1           0       -4.407883    5.685936    1.127847
     81          1           0       -9.126538    5.725232   -0.761024
     82          1           0       -8.782767    8.275129    0.463593
     83          1           0       -7.356422    7.481079    1.270040
     84          1           0      -11.936185    3.308042   -2.008342
     85          1           0      -13.190977    2.037262   -1.476296
     86          1           0      -12.394583    3.263452   -0.505266
     87          1           0      -12.193270   -1.586348   -1.025299
     88          1           0      -13.379825   -0.087431   -1.416874
     89          1           0      -13.323309   -1.649981   -3.438162
     90          1           0      -12.512100   -0.080474   -3.442328
     91          1           0      -11.422428   -1.565437   -3.417749
     92          1           0       -9.119363   -4.595900   -1.882096
     93          1           0       -8.128847   -5.808475   -0.800488
     94          1           0       -9.308981   -4.976883    0.009352
     95          1           0       -3.479636   -3.602066   -0.309218
     96          1           0       -1.836830   -4.393273    3.431011
     97          1           0       -2.893886   -5.444549    3.626315
     98          1           0       -1.479325   -5.988108    2.551706
     99          1           0        2.813115   -1.787849   -1.574835
    100          1           0        2.740075   -0.159865   -2.041399
    101          1           0        4.426089   -1.280630    0.395620
    102          1           0        3.934875    1.338490   -2.255216
    103          1           0        5.790167    1.924967   -2.145842
    104          1           0        5.317871    0.289811   -3.192175
    105          1           0        6.511426    1.473115    0.176761
    106          1           0        6.461268   -0.163852    0.765911
    107          1           0        7.556408   -1.076198   -1.538509
    108          1           0        7.925414    0.763580   -1.831733
    109          1           0        9.142337    0.905857    0.057044
    110          1           0        8.777555   -0.705947    0.718966
    111          1           0       10.321166    0.134671   -1.843206
    112          1           0        9.323099   -2.274980   -2.163225
    113          1           0       11.135903   -2.324019   -2.075352
    114          1           0       10.090189   -2.693742   -0.561600
    115          1           0       11.448483    0.785689    0.477806
    116          1           0       11.233139   -1.060680    0.701383
    117          1           0       12.837331   -1.356070   -1.151720
    118          1           0       12.844822    0.129534   -1.622022
    119          1           0       13.980257    0.932711    0.715951
    120          1           0       14.021454   -0.820102    1.042867
    121          1           0       15.242739    0.537393   -1.512116
    122          1           0       15.797280   -2.035646    0.046463
    123          1           0       14.672092   -2.158180   -1.486229
    124          1           0       16.529749   -1.789245   -1.417883
    125          1           0       16.410333    1.338242    0.841473
    126          1           0       16.608252   -0.481845    1.133595
    127          1           0       18.355945   -0.386155   -0.321372
    128          1           0       17.687166    1.112604   -0.948030
    129          1           0       18.484304    2.402942    1.007787
    130          1           0       18.859469    0.709579    1.900785
    131          1           0       20.568423    0.490667    0.154865
    132          1           0       20.156439    3.030136   -0.931225
    133          1           0       21.236357    1.946964   -1.443842
    134          1           0       19.646665    1.615598   -1.635869
    135          1           0       21.049744    1.602841    2.286243
    136          1           0       22.065723    1.992857    1.040944
    137          1           0       20.727014    3.067195    1.615704
 ---------------------------------------------------------------------

 SCF Done:  E(RCAM-B3LYP) =  -2933.40480960     A.U. after   15 cycles

 Excitation energies and oscillator strengths:

 Excited State   1:      Singlet-A      2.0740 eV  597.79 nm  f=0.2423  <S**2>=0.000
     240 -> 242       -0.11451
     240 -> 243        0.25221
     241 -> 242        0.64051
 This state for optimization and/or second-order correction.
 Total Energy, E(TD-HF/TD-DFT) =  -2933.32859041
 Copying the excited state density for this state as the 1-particle RhoCI density.

 The electronic state is 1-A.
 Alpha  occ. eigenvalues --  -46.81006 -19.23885 -19.21811 -19.16813 -19.16601
 Alpha  occ. eigenvalues --  -19.16161 -14.37948 -14.34996 -14.34925 -14.34013
 Alpha  occ. eigenvalues --  -10.35005 -10.33936 -10.29725 -10.27842 -10.26374
 Alpha  occ. eigenvalues --  -10.26197 -10.25805 -10.25249 -10.25082 -10.24576
 Alpha  occ. eigenvalues --  -10.24342 -10.24309 -10.24290 -10.23920 -10.23906
 Alpha  occ. eigenvalues --  -10.23811 -10.23780 -10.23470 -10.23230 -10.23185
 Alpha  occ. eigenvalues --  -10.23081 -10.23048 -10.22931 -10.22877 -10.22851
 Alpha  occ. eigenvalues --  -10.22726 -10.22567 -10.22502 -10.22456 -10.22359
 Alpha  occ. eigenvalues --  -10.22324 -10.22305 -10.22296 -10.22230 -10.22135
 Alpha  occ. eigenvalues --  -10.22087 -10.22073 -10.22023 -10.21760 -10.21552
 Alpha  occ. eigenvalues --  -10.21505 -10.21353 -10.21260 -10.21228 -10.21077
 Alpha  occ. eigenvalues --  -10.20708 -10.20671 -10.20644 -10.20240 -10.20169
 Alpha  occ. eigenvalues --  -10.20055 -10.19712 -10.19106 -10.18342 -10.16497
 Alpha  occ. eigenvalues --   -3.09371  -1.84325  -1.83831  -1.83773  -1.16305
 Alpha  occ. eigenvalues --   -1.12373  -1.11305  -1.04643  -1.03589  -1.02541
 Alpha  occ. eigenvalues --   -0.98601  -0.98345  -0.96492  -0.87064  -0.86408
 Alpha  occ. eigenvalues --   -0.86059  -0.85083  -0.84609  -0.84484  -0.83973
 Alpha  occ. eigenvalues --   -0.83607  -0.83322  -0.82988  -0.82081  -0.81400
 Alpha  occ. eigenvalues --   -0.80320  -0.79708  -0.78635  -0.78401  -0.77843
 Alpha  occ. eigenvalues --   -0.77118  -0.76493  -0.75546  -0.74882  -0.73584
 Alpha  occ. eigenvalues --   -0.73143  -0.72525  -0.72475  -0.71850  -0.70997
 Alpha  occ. eigenvalues --   -0.70790  -0.70103  -0.69843  -0.69084  -0.68153
 Alpha  occ. eigenvalues --   -0.67251  -0.66389  -0.65187  -0.64720  -0.64522
 Alpha  occ. eigenvalues --   -0.63806  -0.62954  -0.62304  -0.61117  -0.60639
 Alpha  occ. eigenvalues --   -0.60121  -0.59924  -0.59190  -0.58564  -0.57751
 Alpha  occ. eigenvalues --   -0.57594  -0.56743  -0.56337  -0.56017  -0.54970
 Alpha  occ. eigenvalues --   -0.54352  -0.54122  -0.53923  -0.53801  -0.53064
 Alpha  occ. eigenvalues --   -0.52492  -0.51894  -0.51501  -0.51272  -0.50949
 Alpha  occ. eigenvalues --   -0.50839  -0.50738  -0.50402  -0.50043  -0.49597
 Alpha  occ. eigenvalues --   -0.49489  -0.49182  -0.48972  -0.48848  -0.48447
 Alpha  occ. eigenvalues --   -0.48150  -0.47883  -0.47723  -0.47068  -0.46779
 Alpha  occ. eigenvalues --   -0.46632  -0.46553  -0.46401  -0.46207  -0.45865
 Alpha  occ. eigenvalues --   -0.45767  -0.45617  -0.45523  -0.45141  -0.44747
 Alpha  occ. eigenvalues --   -0.44662  -0.44490  -0.44175  -0.43805  -0.43722
 Alpha  occ. eigenvalues --   -0.43313  -0.43216  -0.42917  -0.42818  -0.42462
 Alpha  occ. eigenvalues --   -0.42358  -0.42158  -0.42003  -0.41946  -0.41933
 Alpha  occ. eigenvalues --   -0.41691  -0.41367  -0.41082  -0.41026  -0.40860
 Alpha  occ. eigenvalues --   -0.40695  -0.40599  -0.40490  -0.39782  -0.39677
 Alpha  occ. eigenvalues --   -0.39497  -0.39452  -0.39248  -0.39220  -0.38685
 Alpha  occ. eigenvalues --   -0.38673  -0.38466  -0.38362  -0.38267  -0.38015
 Alpha  occ. eigenvalues --   -0.37940  -0.37412  -0.37268  -0.37183  -0.37136
 Alpha  occ. eigenvalues --   -0.37042  -0.36378  -0.36113  -0.36041  -0.35985
 Alpha  occ. eigenvalues --   -0.35761  -0.35441  -0.35105  -0.34801  -0.34598
 Alpha  occ. eigenvalues --   -0.34021  -0.33891  -0.33677  -0.33558  -0.33270
 Alpha  occ. eigenvalues --   -0.33118  -0.32900  -0.32841  -0.32799  -0.32430
 Alpha  occ. eigenvalues --   -0.32337  -0.32215  -0.31449  -0.30683  -0.30585
 Alpha  occ. eigenvalues --   -0.30190  -0.29743  -0.29628  -0.28007  -0.27588
 Alpha  occ. eigenvalues --   -0.26951  -0.26648  -0.25195  -0.23978  -0.21655
 Alpha  occ. eigenvalues --   -0.19534
 Alpha virt. eigenvalues --   -0.06519  -0.04214  -0.00133   0.02477   0.02912
 Alpha virt. eigenvalues --    0.03814   0.04179   0.04725   0.05483   0.05903
 Alpha virt. eigenvalues --    0.06776   0.08884   0.09322   0.09435   0.09897

 Mulliken charges:
               1
     1  Mg   0.815086
     2  C    0.055995
     3  C   -0.206642
     4  C   -0.214116
     5  C   -0.195451
     6  N   -0.612901
     7  C    0.327381
     8  C   -0.201408
     9  C   -0.159794
    10  C    0.359140
    11  C   -0.306701
    12  C   -0.136577
    13  C   -0.287917
    14  C    0.627130
    15  O   -0.482146
    16  O   -0.405814
    17  N   -0.717077
    18  C    0.356610
    19  C   -0.016550
    20  C   -0.015760
    21  C    0.339272
    22  C   -0.356928
    23  C    0.003546
    24  C   -0.290865
    25  N   -0.670759
    26  C    0.284188
    27  C    0.087296
    28  C    0.008834
    29  C    0.285777
    30  C   -0.400187
    31  C   -0.236310
    32  C   -0.292291
    33  N   -0.722903
    34  C    0.280956
    35  C    0.044313
    36  C   -0.025218
    37  C    0.299516
    38  C   -0.372631
    39  C    0.359787
    40  O   -0.385693
    41  C   -0.349285
    42  C    0.623554
    43  O   -0.515398
    44  O   -0.449986
    45  C   -0.096388
    46  C   -0.017361
    47  C   -0.149734
    48  C    0.168025
    49  C   -0.340534
    50  C   -0.236216
    51  C   -0.160713
    52  C   -0.166916
    53  C   -0.056689
    54  C   -0.308512
    55  C   -0.171788
    56  C   -0.182452
    57  C   -0.148685
    58  C   -0.055375
    59  C   -0.304690
    60  C   -0.175956
    61  C   -0.160674
    62  C   -0.163694
    63  C   -0.066816
    64  C   -0.285090
    65  C   -0.336807
    66  H    0.066890
    67  H    0.062097
    68  H    0.057397
    69  H    0.121719
    70  H    0.114313
    71  H    0.097402
    72  H    0.115118
    73  H    0.106521
    74  H    0.126082
    75  H    0.108003
    76  H    0.118013
    77  H    0.138979
    78  H    0.135676
    79  H    0.110409
    80  H    0.112607
    81  H    0.082238
    82  H    0.106316
    83  H    0.099193
    84  H    0.110863
    85  H    0.082563
    86  H    0.136486
    87  H    0.098794
    88  H    0.107034
    89  H    0.106031
    90  H    0.108051
    91  H    0.113108
    92  H    0.104721
    93  H    0.144948
    94  H    0.133787
    95  H    0.162995
    96  H    0.147481
    97  H    0.139593
    98  H    0.134509
    99  H    0.107542
   100  H    0.117874
   101  H    0.095994
   102  H    0.117903
   103  H    0.108841
   104  H    0.103240
   105  H    0.087970
   106  H    0.088639
   107  H    0.099715
   108  H    0.075462
   109  H    0.101040
   110  H    0.046714
   111  H    0.092323
   112  H    0.104712
   113  H    0.095341
   114  H    0.090662
   115  H    0.092787
   116  H    0.084041
   117  H    0.093111
   118  H    0.062659
   119  H    0.073350
   120  H    0.086414
   121  H    0.048237
   122  H    0.105862
   123  H    0.101063
   124  H    0.093346
   125  H    0.100747
   126  H    0.097349
   127  H    0.087128
   128  H    0.106249
   129  H    0.083980
   130  H    0.040067
   131  H    0.093870
   132  H    0.106161
   133  H    0.101383
   134  H    0.102089
   135  H    0.104658
   136  H    0.088484
   137  H    0.089045
 Sum of Mulliken charges =  -0.00000

 Dipole moment (field-independent basis, Debye):
    X=              3.1903    Y=              3.2407    Z=              0.3190  Tot=              4.5587
 Quadrupole moment (field-independent basis, Debye-Ang):
   XX=           -362.8140   YY=           -387.9663   ZZ=           -400.1010
   XY=            -21.5378   XZ=              3.0068   YZ=             -1.2709

 Normal termination of Gaussian 16 at Mon Sep 23 16:54:29 2019.
