 Gaussian 09, Revision D.01,
 Gaussian 09:  ES64L-G09RevD.01 24-Apr-2013

 -------------------------------------
 # td=(NStates=1) CAM-B3LYP/6-31G(d,p)
 -------------------------------------

 --
 TD
 --
 Symbolic Z-matrix:
 Charge =  0 Multiplicity = 1

                         Standard orientation:
 ---------------------------------------------------------------------
 Center     Atomic      Atomic             Coordinates (Angstroms)
 Number     Number       Type             X           Y           Z
 ---------------------------------------------------------------------
      1         12           0       -7.146342    0.553690    0.004736
      2          6           0       -4.811517   -1.934685    0.516996
      3          6           0       -4.847641    2.888772    1.079011
      4          6           0       -9.480503    3.028159   -0.365341
      5          6           0       -9.562245   -1.802134   -0.795444
      6          7           0       -5.129711    0.403168    0.680899
      7          6           0       -4.388912   -0.712777    0.767239
      8          6           0       -2.958403   -0.359968    1.284721
      9          6           0       -3.042180    1.176960    1.654660
     10          6           0       -4.519754    1.585854    1.031198
     11          6           0       -2.966162    1.272102    3.201433
     12          6           0       -1.906645   -0.636151    0.127754
     13          6           0       -0.453971   -0.441673    0.587385
     14          6           0        0.581152   -0.580690   -0.550567
     15          8           0        0.308583   -1.082938   -1.654010
     16          8           0        1.797364   -0.426527   -0.061376
     17          7           0       -7.039666    2.551788    0.332884
     18          6           0       -6.021780    3.377962    0.687985
     19          6           0       -6.489683    4.769567    0.757670
     20          6           0       -7.855176    4.778162    0.401689
     21          6           0       -8.217890    3.346373    0.203338
     22          6           0       -5.671412    5.935247    1.134055
     23          6           0       -8.704927    5.983635    0.088966
     24          6           0       -8.477910    7.230922    0.566367
     25          7           0       -9.122290    0.614009   -0.556402
     26          6           0       -9.977171    1.770519   -0.709553
     27          6           0      -11.172363    1.382352   -1.188681
     28          6           0      -11.232372    0.043170   -1.217003
     29          6           0       -9.940684   -0.431531   -0.922654
     30          6           0      -12.295935    2.300566   -1.351253
     31          6           0      -12.386713   -0.891251   -1.761168
     32          6           0      -12.264927   -1.236604   -3.274325
     33          7           0       -7.228554   -1.372473   -0.159965
     34          6           0       -8.217641   -2.203076   -0.545079
     35          6           0       -7.800642   -3.600323   -0.482503
     36          6           0       -6.489093   -3.554462   -0.056000
     37          6           0       -6.129418   -2.256772    0.112670
     38          6           0       -8.508548   -4.937884   -0.813360
     39          6           0       -5.247196   -4.310195    0.220203
     40          8           0       -5.028256   -5.522335    0.233688
     41          6           0       -4.246344   -3.230901    0.629658
     42          6           0       -3.556216   -3.620175    1.945462
     43          8           0       -3.813527   -2.901132    2.937669
     44          8           0       -2.603988   -4.617680    1.795096
     45          6           0       -2.038523   -4.960803    3.072057
     46          6           0        2.863992   -0.643049   -1.204078
     47          6           0        4.074912   -0.393593   -0.485863
     48          6           0        5.095564    0.410475   -0.897428
     49          6           0        5.068603    1.151696   -2.240215
     50          6           0        6.454509    0.418757   -0.145877
     51          6           0        7.679986   -0.089190   -0.978940
     52          6           0        8.990460   -0.005828   -0.147425
     53          6           0       10.177487   -0.665683   -0.860855
     54          6           0       10.021978   -2.096932   -1.251126
     55          6           0       11.382017   -0.359821   -0.009352
     56          6           0       12.749234   -0.466420   -0.758162
     57          6           0       13.970791   -0.155804    0.181279
     58          6           0       15.383025   -0.207589   -0.521424
     59          6           0       15.721738   -1.565404   -0.974948
     60          6           0       16.430460    0.420158    0.441313
     61          6           0       17.723681    0.506046   -0.194636
     62          6           0       18.798661    1.241286    0.688661
     63          6           0       20.213368    1.382034    0.207684
     64          6           0       20.284955    2.244970   -1.085885
     65          6           0       21.195338    1.837152    1.315430
     66          1           0       -3.971413    3.459198    1.318979
     67          1           0      -10.262620    3.834357   -0.556492
     68          1           0      -10.202731   -2.533833   -0.876967
     69          1           0       -2.556763   -1.112141    2.010060
     70          1           0       -2.322844    1.877691    1.117475
     71          1           0       -1.991567    1.108278    3.620858
     72          1           0       -3.171572    2.260863    3.635660
     73          1           0       -3.867109    0.572466    3.384407
     74          1           0       -1.935969   -1.565616   -0.258981
     75          1           0       -2.029231   -0.094072   -0.848214
     76          1           0       -0.348258    0.553727    1.221912
     77          1           0       -0.305773   -1.073651    1.394428
     78          1           0       -5.588911    6.588598    0.222558
     79          1           0       -5.979724    6.477824    2.131126
     80          1           0       -4.442459    5.574391    1.484314
     81          1           0       -9.415320    5.852181   -0.591417
     82          1           0       -9.065401    8.094031    0.299482
     83          1           0       -7.637620    7.738762    1.262243
     84          1           0      -12.127821    2.943313   -2.400849
     85          1           0      -13.220398    1.792210   -1.383423
     86          1           0      -12.636801    3.108920   -0.714646
     87          1           0      -12.331046   -1.854599   -1.195909
     88          1           0      -13.358468   -0.524800   -1.567491
     89          1           0      -12.892433   -1.944472   -3.684551
     90          1           0      -12.401333   -0.227642   -3.941641
     91          1           0      -11.119557   -1.744549   -3.308005
     92          1           0       -9.101362   -4.789452   -1.860330
     93          1           0       -7.678091   -5.705095   -0.585678
     94          1           0       -9.348423   -5.059555   -0.165669
     95          1           0       -3.300746   -3.245841   -0.122863
     96          1           0       -1.482616   -4.061878    3.442349
     97          1           0       -2.784848   -5.278288    3.649178
     98          1           0       -1.340846   -5.785320    2.525445
     99          1           0        2.572797   -1.529939   -1.680044
    100          1           0        2.624521    0.093180   -1.984477
    101          1           0        4.369796   -1.071618    0.383500
    102          1           0        4.011959    1.349601   -2.601065
    103          1           0        5.523736    2.112971   -2.330875
    104          1           0        5.589898    0.494134   -2.904514
    105          1           0        6.777122    1.446556   -0.078560
    106          1           0        6.469043   -0.050646    0.791570
    107          1           0        7.733681   -1.268635   -1.453171
    108          1           0        7.800093    0.590805   -1.947804
    109          1           0        9.119024    1.084427    0.138402
    110          1           0        8.881868   -0.607256    0.694313
    111          1           0       10.366815   -0.079447   -1.821233
    112          1           0        9.118029   -2.194126   -1.784459
    113          1           0       10.734222   -2.654645   -1.850366
    114          1           0        9.894033   -2.741355   -0.360782
    115          1           0       11.286630    0.642055    0.296636
    116          1           0       11.252291   -1.024153    0.910184
    117          1           0       12.872377   -1.503244   -1.008147
    118          1           0       12.810980    0.302233   -1.639680
    119          1           0       13.849678    0.861608    0.481910
    120          1           0       13.738657   -0.674784    1.053739
    121          1           0       15.369644    0.476411   -1.493824
    122          1           0       15.984258   -2.102988   -0.214983
    123          1           0       14.937544   -2.141089   -1.742013
    124          1           0       16.747682   -1.794477   -1.537883
    125          1           0       16.001248    1.384264    0.932228
    126          1           0       16.630960   -0.130033    1.279283
    127          1           0       18.170937   -0.541731   -0.389662
    128          1           0       17.682420    1.106527   -1.045375
    129          1           0       18.252201    2.219274    0.546359
    130          1           0       18.797236    0.906248    1.715786
    131          1           0       20.761265    0.338496   -0.087547
    132          1           0       20.040451    3.412480   -0.880600
    133          1           0       21.322841    2.202518   -1.443566
    134          1           0       19.937321    1.729314   -1.737829
    135          1           0       21.075349    1.166853    2.289890
    136          1           0       22.284095    1.715326    1.240248
    137          1           0       21.055131    2.834876    1.765364
 ---------------------------------------------------------------------

 SCF Done:  E(RCAM-B3LYP) =  -2932.60858986     A.U. after   18 cycles

 Excitation energies and oscillator strengths:

 Excited State   1:      Singlet-A      2.0373 eV  608.58 nm  f=0.2218  <S**2>=0.000
     240 -> 243        0.26117
     241 -> 242        0.64847
 This state for optimization and/or second-order correction.
 Total Energy, E(TD-HF/TD-KS) =  -2932.53372164
 Copying the excited state density for this state as the 1-particle RhoCI density.

 The electronic state is 1-A.
 Alpha  occ. eigenvalues --  -46.82568 -19.27059 -19.25901 -19.21726 -19.20593
 Alpha  occ. eigenvalues --  -19.20091 -14.41080 -14.39577 -14.38746 -14.38513
 Alpha  occ. eigenvalues --  -10.40093 -10.38734 -10.35471 -10.31728 -10.31708
 Alpha  occ. eigenvalues --  -10.30767 -10.30277 -10.29992 -10.29501 -10.29033
 Alpha  occ. eigenvalues --  -10.28908 -10.28731 -10.28641 -10.28603 -10.28368
 Alpha  occ. eigenvalues --  -10.28338 -10.28285 -10.28000 -10.27972 -10.27709
 Alpha  occ. eigenvalues --  -10.27696 -10.27680 -10.27510 -10.27434 -10.27390
 Alpha  occ. eigenvalues --  -10.27387 -10.27162 -10.27127 -10.27127 -10.26953
 Alpha  occ. eigenvalues --  -10.26952 -10.26732 -10.26654 -10.26443 -10.26297
 Alpha  occ. eigenvalues --  -10.26181 -10.25940 -10.25765 -10.25602 -10.25467
 Alpha  occ. eigenvalues --  -10.25463 -10.25400 -10.25156 -10.25039 -10.24861
 Alpha  occ. eigenvalues --  -10.24806 -10.24707 -10.24702 -10.24692 -10.24690
 Alpha  occ. eigenvalues --  -10.24545 -10.24508 -10.24256 -10.24169 -10.23675
 Alpha  occ. eigenvalues --   -3.11859  -1.86548  -1.86108  -1.86056  -1.17086
 Alpha  occ. eigenvalues --   -1.16653  -1.10417  -1.08849  -1.06916  -1.03845
 Alpha  occ. eigenvalues --   -1.02685  -1.02348  -1.01349  -0.94391  -0.91602
 Alpha  occ. eigenvalues --   -0.91037  -0.90352  -0.89590  -0.88418  -0.88235
 Alpha  occ. eigenvalues --   -0.88160  -0.87975  -0.87328  -0.86415  -0.85737
 Alpha  occ. eigenvalues --   -0.84551  -0.84160  -0.83449  -0.83217  -0.82449
 Alpha  occ. eigenvalues --   -0.81706  -0.81442  -0.80851  -0.80473  -0.77594
 Alpha  occ. eigenvalues --   -0.77279  -0.77126  -0.76936  -0.76464  -0.76257
 Alpha  occ. eigenvalues --   -0.75964  -0.75015  -0.74302  -0.73196  -0.72404
 Alpha  occ. eigenvalues --   -0.71562  -0.69805  -0.69102  -0.68803  -0.68055
 Alpha  occ. eigenvalues --   -0.67381  -0.66201  -0.65650  -0.64949  -0.64196
 Alpha  occ. eigenvalues --   -0.64153  -0.63664  -0.63171  -0.62873  -0.62339
 Alpha  occ. eigenvalues --   -0.61514  -0.60915  -0.60455  -0.60116  -0.59432
 Alpha  occ. eigenvalues --   -0.58299  -0.57984  -0.57789  -0.56893  -0.56621
 Alpha  occ. eigenvalues --   -0.56133  -0.55670  -0.55525  -0.54954  -0.54930
 Alpha  occ. eigenvalues --   -0.54411  -0.53911  -0.53830  -0.53631  -0.52849
 Alpha  occ. eigenvalues --   -0.52777  -0.52344  -0.52159  -0.51986  -0.51664
 Alpha  occ. eigenvalues --   -0.51546  -0.51373  -0.51200  -0.51102  -0.50771
 Alpha  occ. eigenvalues --   -0.50550  -0.50106  -0.49982  -0.49840  -0.49563
 Alpha  occ. eigenvalues --   -0.49257  -0.48952  -0.48832  -0.48586  -0.48114
 Alpha  occ. eigenvalues --   -0.47729  -0.47515  -0.47407  -0.47245  -0.46932
 Alpha  occ. eigenvalues --   -0.46809  -0.46473  -0.46180  -0.46138  -0.45856
 Alpha  occ. eigenvalues --   -0.45536  -0.45442  -0.44886  -0.44819  -0.44687
 Alpha  occ. eigenvalues --   -0.44576  -0.44532  -0.44243  -0.44012  -0.43862
 Alpha  occ. eigenvalues --   -0.43751  -0.43323  -0.43264  -0.43030  -0.42864
 Alpha  occ. eigenvalues --   -0.42836  -0.42441  -0.42275  -0.42077  -0.41983
 Alpha  occ. eigenvalues --   -0.41914  -0.41740  -0.41625  -0.41321  -0.41078
 Alpha  occ. eigenvalues --   -0.40703  -0.40610  -0.40226  -0.39965  -0.39780
 Alpha  occ. eigenvalues --   -0.39710  -0.39556  -0.39392  -0.38916  -0.38780
 Alpha  occ. eigenvalues --   -0.38699  -0.38543  -0.38320  -0.37875  -0.37722
 Alpha  occ. eigenvalues --   -0.37560  -0.37473  -0.37083  -0.37055  -0.36646
 Alpha  occ. eigenvalues --   -0.36613  -0.36300  -0.36268  -0.35869  -0.35668
 Alpha  occ. eigenvalues --   -0.35163  -0.34957  -0.34312  -0.33715  -0.33495
 Alpha  occ. eigenvalues --   -0.33177  -0.32445  -0.32210  -0.31131  -0.30527
 Alpha  occ. eigenvalues --   -0.29698  -0.29192  -0.28233  -0.27243  -0.23084
 Alpha  occ. eigenvalues --   -0.21383
 Alpha virt. eigenvalues --   -0.06635  -0.03423   0.01641   0.04010   0.04839
 Alpha virt. eigenvalues --    0.04979   0.06165   0.06270   0.06997   0.07731
 Alpha virt. eigenvalues --    0.08633   0.10723   0.11129   0.11730   0.11858

 Mulliken charges:
               1
     1  Mg   0.807860
     2  C    0.199755
     3  C   -0.164843
     4  C   -0.178856
     5  C   -0.111348
     6  N   -0.674182
     7  C    0.324799
     8  C   -0.156342
     9  C   -0.159242
    10  C    0.318089
    11  C   -0.291371
    12  C   -0.192820
    13  C   -0.271419
    14  C    0.618701
    15  O   -0.504814
    16  O   -0.475930
    17  N   -0.703896
    18  C    0.356485
    19  C    0.020510
    20  C    0.006000
    21  C    0.273782
    22  C   -0.368372
    23  C   -0.054606
    24  C   -0.249678
    25  N   -0.691316
    26  C    0.285570
    27  C    0.063786
    28  C    0.005492
    29  C    0.285182
    30  C   -0.388063
    31  C   -0.232226
    32  C   -0.279142
    33  N   -0.729790
    34  C    0.280737
    35  C   -0.024480
    36  C    0.057001
    37  C    0.191432
    38  C   -0.371292
    39  C    0.384144
    40  O   -0.473292
    41  C   -0.380796
    42  C    0.627462
    43  O   -0.479472
    44  O   -0.458695
    45  C   -0.076126
    46  C   -0.022971
    47  C   -0.107281
    48  C    0.105799
    49  C   -0.377660
    50  C   -0.215620
    51  C   -0.179409
    52  C   -0.168133
    53  C   -0.060751
    54  C   -0.319094
    55  C   -0.168950
    56  C   -0.186193
    57  C   -0.183937
    58  C   -0.042098
    59  C   -0.298612
    60  C   -0.171489
    61  C   -0.183959
    62  C   -0.170156
    63  C   -0.047352
    64  C   -0.282992
    65  C   -0.318289
    66  H    0.089843
    67  H    0.096217
    68  H    0.069908
    69  H    0.120176
    70  H    0.094327
    71  H    0.113104
    72  H    0.097105
    73  H    0.124501
    74  H    0.119686
    75  H    0.107408
    76  H    0.102903
    77  H    0.136854
    78  H    0.134325
    79  H    0.123656
    80  H    0.059568
    81  H    0.099586
    82  H    0.103055
    83  H    0.101745
    84  H    0.083007
    85  H    0.115726
    86  H    0.127386
    87  H    0.099348
    88  H    0.107439
    89  H    0.120031
    90  H    0.090874
    91  H    0.076774
    92  H    0.110717
    93  H    0.156029
    94  H    0.135176
    95  H    0.156790
    96  H    0.130228
    97  H    0.149734
    98  H    0.123444
    99  H    0.163917
   100  H    0.132515
   101  H    0.093589
   102  H    0.108316
   103  H    0.118754
   104  H    0.142210
   105  H    0.111039
   106  H    0.109416
   107  H    0.061547
   108  H    0.078057
   109  H    0.092166
   110  H    0.101726
   111  H    0.072214
   112  H    0.107610
   113  H    0.115043
   114  H    0.091958
   115  H    0.093748
   116  H    0.073817
   117  H    0.102747
   118  H    0.080039
   119  H    0.089124
   120  H    0.098153
   121  H    0.069136
   122  H    0.119142
   123  H    0.081988
   124  H    0.078131
   125  H    0.079029
   126  H    0.103291
   127  H    0.083114
   128  H    0.102068
   129  H    0.086025
   130  H    0.086589
   131  H    0.059459
   132  H    0.091078
   133  H    0.090326
   134  H    0.113768
   135  H    0.071633
   136  H    0.105800
   137  H    0.099826
 Sum of Mulliken charges =   0.00000

 Dipole moment (field-independent basis, Debye):
    X=              2.5158    Y=              3.8360    Z=              0.1408  Tot=              4.5895
 Quadrupole moment (field-independent basis, Debye-Ang):
   XX=           -329.9729   YY=           -387.5858   ZZ=           -398.7754
   XY=            -22.0678   XZ=             11.3496   YZ=             -5.0598

 Normal termination of Gaussian 09 at Thu Jul  4 16:55:47 2019.
