 Gaussian 09, Revision D.01,
 Gaussian 09:  ES64L-G09RevD.01 24-Apr-2013

 -------------------------------------
 # td=(NStates=1) CAM-B3LYP/6-31G(d,p)
 -------------------------------------

 --
 TD
 --
 Symbolic Z-matrix:
 Charge =  0 Multiplicity = 1

                         Standard orientation:
 ---------------------------------------------------------------------
 Center     Atomic      Atomic             Coordinates (Angstroms)
 Number     Number       Type             X           Y           Z
 ---------------------------------------------------------------------
      1         12           0       -7.155549    0.640577    0.064183
      2          6           0       -4.878869   -1.993908    0.381524
      3          6           0       -4.728944    2.765373    1.109714
      4          6           0       -9.390012    3.185671   -0.463244
      5          6           0       -9.584803   -1.654334   -0.822286
      6          7           0       -5.160944    0.331718    0.725212
      7          6           0       -4.361146   -0.743543    0.714291
      8          6           0       -2.929189   -0.434932    1.204167
      9          6           0       -3.057136    0.925098    1.641175
     10          6           0       -4.426419    1.406904    1.187949
     11          6           0       -3.050086    1.173254    3.219236
     12          6           0       -1.845774   -0.769291    0.136483
     13          6           0       -0.444423   -0.509545    0.687743
     14          6           0        0.529386   -0.723712   -0.556339
     15          8           0        0.310156   -1.047365   -1.705226
     16          8           0        1.750223   -0.409448   -0.143261
     17          7           0       -7.105806    2.660794    0.396603
     18          6           0       -6.010912    3.361404    0.768401
     19          6           0       -6.365645    4.761851    0.713298
     20          6           0       -7.658170    4.820774    0.410478
     21          6           0       -8.146267    3.556583    0.167384
     22          6           0       -5.443615    5.857117    1.079109
     23          6           0       -8.433834    6.096082    0.199132
     24          6           0       -8.201581    7.350031    0.738102
     25          7           0       -9.119348    0.708287   -0.398719
     26          6           0       -9.824795    1.862889   -0.622803
     27          6           0      -11.170674    1.552853   -1.126761
     28          6           0      -11.253046    0.156110   -1.156724
     29          6           0       -9.926332   -0.376822   -0.767831
     30          6           0      -12.206717    2.544636   -1.334323
     31          6           0      -12.380674   -0.746881   -1.772541
     32          6           0      -12.138925   -1.031565   -3.155898
     33          7           0       -7.254713   -1.411328   -0.201055
     34          6           0       -8.223149   -2.236852   -0.672096
     35          6           0       -7.820424   -3.608950   -0.681659
     36          6           0       -6.558907   -3.615819   -0.165357
     37          6           0       -6.218887   -2.210253   -0.016413
     38          6           0       -8.638371   -4.856395   -0.970172
     39          6           0       -5.409565   -4.357731    0.214921
     40          8           0       -5.287747   -5.501648    0.295508
     41          6           0       -4.239743   -3.339904    0.548974
     42          6           0       -3.638976   -3.697740    1.838100
     43          8           0       -3.916340   -3.160859    2.911894
     44          8           0       -2.759483   -4.652650    1.723771
     45          6           0       -2.131172   -5.186025    2.902938
     46          6           0        2.795134   -0.731830   -1.107672
     47          6           0        4.101773   -0.467990   -0.468923
     48          6           0        5.113327    0.328095   -0.977204
     49          6           0        5.089917    1.115092   -2.271068
     50          6           0        6.359870    0.374701   -0.167328
     51          6           0        7.625408   -0.134796   -0.986435
     52          6           0        8.988597   -0.168173   -0.211128
     53          6           0       10.247994   -0.544888   -0.945710
     54          6           0       10.175246   -1.947444   -1.284295
     55          6           0       11.397040   -0.201045   -0.020217
     56          6           0       12.795279   -0.418692   -0.605948
     57          6           0       13.961692   -0.116468    0.318252
     58          6           0       15.306780   -0.178005   -0.445996
     59          6           0       15.535586   -1.544871   -0.883532
     60          6           0       16.329383    0.384445    0.562145
     61          6           0       17.738931    0.568969   -0.172775
     62          6           0       18.878518    1.148797    0.792441
     63          6           0       20.278158    1.371083    0.112811
     64          6           0       20.219220    2.234491   -1.129198
     65          6           0       21.233459    1.874385    1.156047
     66          1           0       -4.051605    3.599976    1.515775
     67          1           0      -10.244878    4.081284   -0.537017
     68          1           0      -10.455573   -2.423099   -1.086103
     69          1           0       -2.686909   -1.092711    2.021482
     70          1           0       -2.403664    1.666130    1.248992
     71          1           0       -2.087431    0.775071    3.596143
     72          1           0       -3.256664    2.305613    3.232627
     73          1           0       -3.822682    0.607443    3.865715
     74          1           0       -1.932874   -1.899456   -0.194595
     75          1           0       -2.108595   -0.293167   -0.772682
     76          1           0       -0.264408    0.401541    1.210605
     77          1           0       -0.283634   -1.238833    1.423753
     78          1           0       -5.824483    6.708449    0.613259
     79          1           0       -5.533281    5.855032    2.119737
     80          1           0       -4.393550    5.622253    0.858484
     81          1           0       -9.119916    6.086951   -0.567201
     82          1           0       -8.855370    8.130545    0.363533
     83          1           0       -7.285233    7.464984    1.411076
     84          1           0      -12.065854    3.430029   -2.055114
     85          1           0      -13.204123    2.162777   -1.690322
     86          1           0      -12.496643    3.043542   -0.377829
     87          1           0      -12.362916   -1.764826   -1.226661
     88          1           0      -13.283943   -0.225501   -1.653770
     89          1           0      -12.968639   -1.702227   -3.766895
     90          1           0      -11.886870    0.050040   -3.935329
     91          1           0      -11.254432   -1.591182   -3.457142
     92          1           0       -8.794963   -4.937534   -2.130417
     93          1           0       -8.028239   -5.714298   -0.630017
     94          1           0       -9.742316   -4.733877   -0.571530
     95          1           0       -3.574195   -3.502642   -0.293434
     96          1           0       -1.511988   -4.475456    3.353365
     97          1           0       -2.811157   -5.657107    3.489064
     98          1           0       -1.514976   -5.968740    2.473583
     99          1           0        2.617964   -1.808974   -1.386166
    100          1           0        2.790895   -0.178513   -2.051259
    101          1           0        4.450800   -0.890505    0.633875
    102          1           0        4.049674    1.044203   -2.728358
    103          1           0        5.443013    2.128895   -2.189067
    104          1           0        5.655373    0.618473   -2.871296
    105          1           0        6.873453    1.433715    0.150115
    106          1           0        6.240715   -0.293573    0.782670
    107          1           0        7.413501   -1.150044   -1.366624
    108          1           0        7.767931    0.699102   -1.911127
    109          1           0        8.915283    0.924244    0.298207
    110          1           0        8.603409   -0.909312    0.765429
    111          1           0       10.281262    0.222706   -1.826232
    112          1           0        9.251278   -2.199034   -1.672841
    113          1           0       10.965118   -2.260616   -1.977084
    114          1           0       10.293630   -2.317008   -0.381854
    115          1           0       11.342946    0.895595    0.358743
    116          1           0       11.295058   -0.814320    1.045449
    117          1           0       12.882705   -1.517187   -0.905580
    118          1           0       12.784781    0.118722   -1.609607
    119          1           0       13.886306    0.853286    0.811884
    120          1           0       14.108699   -0.665715    1.268991
    121          1           0       15.288794    0.494479   -1.278493
    122          1           0       15.663002   -2.321833   -0.090888
    123          1           0       14.871779   -1.895859   -1.554216
    124          1           0       16.527442   -1.727119   -1.493193
    125          1           0       16.022919    1.443369    0.944393
    126          1           0       16.505583   -0.366319    1.484957
    127          1           0       18.223864   -0.502183   -0.575671
    128          1           0       17.676182    1.288076   -1.075772
    129          1           0       18.367240    2.111982    1.187867
    130          1           0       19.110047    0.497696    1.746455
    131          1           0       20.469329    0.230238   -0.136764
    132          1           0       20.424902    3.329724   -0.692781
    133          1           0       21.116336    1.938825   -1.796298
    134          1           0       19.428592    1.988496   -1.817333
    135          1           0       21.206430    1.039414    1.769960
    136          1           0       22.286179    1.971336    0.674015
    137          1           0       20.806286    2.867376    1.470750
 ---------------------------------------------------------------------

 SCF Done:  E(RCAM-B3LYP) =  -2932.72395539     A.U. after   18 cycles

 Excitation energies and oscillator strengths:

 Excited State   1:      Singlet-A      1.9252 eV  643.99 nm  f=0.3272  <S**2>=0.000
     240 -> 243        0.20536
     241 -> 242        0.67120
 This state for optimization and/or second-order correction.
 Total Energy, E(TD-HF/TD-KS) =  -2932.65320402
 Copying the excited state density for this state as the 1-particle RhoCI density.

 The electronic state is 1-A.
 Alpha  occ. eigenvalues --  -46.84247 -19.26452 -19.26268 -19.21312 -19.20048
 Alpha  occ. eigenvalues --  -19.19235 -14.41865 -14.39515 -14.39105 -14.39073
 Alpha  occ. eigenvalues --  -10.39510 -10.38271 -10.34062 -10.32289 -10.30997
 Alpha  occ. eigenvalues --  -10.30317 -10.30127 -10.29749 -10.29613 -10.29289
 Alpha  occ. eigenvalues --  -10.29076 -10.28772 -10.28672 -10.28357 -10.28151
 Alpha  occ. eigenvalues --  -10.28121 -10.28027 -10.27914 -10.27783 -10.27687
 Alpha  occ. eigenvalues --  -10.27576 -10.27562 -10.27448 -10.27367 -10.27336
 Alpha  occ. eigenvalues --  -10.27253 -10.27237 -10.27226 -10.27118 -10.26993
 Alpha  occ. eigenvalues --  -10.26990 -10.26987 -10.26891 -10.26828 -10.26781
 Alpha  occ. eigenvalues --  -10.26745 -10.26742 -10.26688 -10.26645 -10.26440
 Alpha  occ. eigenvalues --  -10.26250 -10.26219 -10.26163 -10.25997 -10.25988
 Alpha  occ. eigenvalues --  -10.25638 -10.25588 -10.25317 -10.25290 -10.24928
 Alpha  occ. eigenvalues --  -10.24822 -10.24669 -10.24023 -10.23927 -10.22744
 Alpha  occ. eigenvalues --   -3.13273  -1.87984  -1.87505  -1.87453  -1.19067
 Alpha  occ. eigenvalues --   -1.18972  -1.14635  -1.09160  -1.07582  -1.05158
 Alpha  occ. eigenvalues --   -1.04236  -1.03771  -1.01878  -0.92379  -0.92150
 Alpha  occ. eigenvalues --   -0.90967  -0.90509  -0.90215  -0.89316  -0.88841
 Alpha  occ. eigenvalues --   -0.88682  -0.88208  -0.87747  -0.86805  -0.86121
 Alpha  occ. eigenvalues --   -0.84848  -0.84251  -0.83828  -0.83148  -0.82938
 Alpha  occ. eigenvalues --   -0.81789  -0.81310  -0.80331  -0.80248  -0.78367
 Alpha  occ. eigenvalues --   -0.77807  -0.77485  -0.76998  -0.76245  -0.76084
 Alpha  occ. eigenvalues --   -0.75801  -0.74765  -0.74270  -0.72623  -0.72380
 Alpha  occ. eigenvalues --   -0.70989  -0.70059  -0.68534  -0.68313  -0.68103
 Alpha  occ. eigenvalues --   -0.66598  -0.65323  -0.65216  -0.64934  -0.64133
 Alpha  occ. eigenvalues --   -0.63914  -0.63446  -0.62356  -0.61974  -0.61603
 Alpha  occ. eigenvalues --   -0.60803  -0.60541  -0.60049  -0.59770  -0.59064
 Alpha  occ. eigenvalues --   -0.58751  -0.58323  -0.57866  -0.57274  -0.57123
 Alpha  occ. eigenvalues --   -0.56566  -0.56181  -0.55257  -0.54999  -0.54560
 Alpha  occ. eigenvalues --   -0.54360  -0.54283  -0.54206  -0.53948  -0.53715
 Alpha  occ. eigenvalues --   -0.53116  -0.52821  -0.52563  -0.52211  -0.51934
 Alpha  occ. eigenvalues --   -0.51638  -0.51423  -0.50951  -0.50814  -0.50665
 Alpha  occ. eigenvalues --   -0.50401  -0.50145  -0.50031  -0.49714  -0.49625
 Alpha  occ. eigenvalues --   -0.49443  -0.49287  -0.48875  -0.48742  -0.48167
 Alpha  occ. eigenvalues --   -0.48081  -0.47967  -0.47840  -0.47453  -0.47178
 Alpha  occ. eigenvalues --   -0.46875  -0.46586  -0.46530  -0.46345  -0.46251
 Alpha  occ. eigenvalues --   -0.46187  -0.46028  -0.45599  -0.45482  -0.45246
 Alpha  occ. eigenvalues --   -0.45135  -0.44976  -0.44740  -0.44547  -0.44305
 Alpha  occ. eigenvalues --   -0.44072  -0.43911  -0.43811  -0.43645  -0.43328
 Alpha  occ. eigenvalues --   -0.43182  -0.42982  -0.42586  -0.42408  -0.41995
 Alpha  occ. eigenvalues --   -0.41949  -0.41651  -0.41408  -0.41300  -0.41185
 Alpha  occ. eigenvalues --   -0.41085  -0.40723  -0.40591  -0.40226  -0.39986
 Alpha  occ. eigenvalues --   -0.39877  -0.39704  -0.39648  -0.39323  -0.39020
 Alpha  occ. eigenvalues --   -0.38457  -0.38228  -0.38205  -0.38132  -0.37553
 Alpha  occ. eigenvalues --   -0.37356  -0.37262  -0.36797  -0.36704  -0.36525
 Alpha  occ. eigenvalues --   -0.36431  -0.36178  -0.35970  -0.35937  -0.35644
 Alpha  occ. eigenvalues --   -0.35634  -0.35114  -0.34906  -0.34231  -0.33448
 Alpha  occ. eigenvalues --   -0.32947  -0.32735  -0.31389  -0.30865  -0.29935
 Alpha  occ. eigenvalues --   -0.29568  -0.29313  -0.28432  -0.27687  -0.23068
 Alpha  occ. eigenvalues --   -0.20697
 Alpha virt. eigenvalues --   -0.07025  -0.02109   0.02415   0.04503   0.04908
 Alpha virt. eigenvalues --    0.05744   0.06494   0.06744   0.07258   0.07428
 Alpha virt. eigenvalues --    0.08480   0.10695   0.11337   0.11584   0.11700

 Mulliken charges:
               1
     1  Mg   0.822495
     2  C    0.054594
     3  C   -0.194386
     4  C   -0.185713
     5  C   -0.199662
     6  N   -0.638602
     7  C    0.299873
     8  C   -0.130973
     9  C   -0.155601
    10  C    0.336982
    11  C   -0.299953
    12  C   -0.183779
    13  C   -0.269565
    14  C    0.610097
    15  O   -0.478202
    16  O   -0.460345
    17  N   -0.718887
    18  C    0.304996
    19  C    0.000948
    20  C    0.011043
    21  C    0.290840
    22  C   -0.374290
    23  C   -0.079620
    24  C   -0.255074
    25  N   -0.715616
    26  C    0.320084
    27  C    0.062969
    28  C   -0.014831
    29  C    0.344957
    30  C   -0.411128
    31  C   -0.206172
    32  C   -0.268162
    33  N   -0.682571
    34  C    0.234983
    35  C   -0.000409
    36  C    0.054882
    37  C    0.265988
    38  C   -0.367936
    39  C    0.329390
    40  O   -0.418415
    41  C   -0.326440
    42  C    0.626299
    43  O   -0.514191
    44  O   -0.440573
    45  C   -0.078915
    46  C    0.007653
    47  C   -0.143180
    48  C    0.138538
    49  C   -0.358423
    50  C   -0.219717
    51  C   -0.178477
    52  C   -0.149529
    53  C   -0.053723
    54  C   -0.287327
    55  C   -0.163421
    56  C   -0.178617
    57  C   -0.172769
    58  C   -0.041905
    59  C   -0.303335
    60  C   -0.171913
    61  C   -0.174347
    62  C   -0.160737
    63  C   -0.062509
    64  C   -0.294469
    65  C   -0.283872
    66  H    0.080900
    67  H    0.097113
    68  H    0.086088
    69  H    0.126668
    70  H    0.115213
    71  H    0.101931
    72  H    0.100627
    73  H    0.125989
    74  H    0.103911
    75  H    0.126786
    76  H    0.143101
    77  H    0.143391
    78  H    0.126562
    79  H    0.141246
    80  H    0.112316
    81  H    0.095070
    82  H    0.107811
    83  H    0.103100
    84  H    0.114290
    85  H    0.111796
    86  H    0.127405
    87  H    0.102220
    88  H    0.117471
    89  H    0.078445
    90  H    0.049503
    91  H    0.123669
    92  H    0.112333
    93  H    0.149291
    94  H    0.111023
    95  H    0.161829
    96  H    0.130719
    97  H    0.145719
    98  H    0.125776
    99  H    0.126925
   100  H    0.123262
   101  H    0.077638
   102  H    0.100248
   103  H    0.125737
   104  H    0.148347
   105  H    0.082351
   106  H    0.088913
   107  H    0.098145
   108  H    0.056979
   109  H    0.068764
   110  H    0.048816
   111  H    0.077206
   112  H    0.107030
   113  H    0.100796
   114  H    0.117938
   115  H    0.083313
   116  H    0.061877
   117  H    0.093362
   118  H    0.086625
   119  H    0.083692
   120  H    0.092291
   121  H    0.092246
   122  H    0.097351
   123  H    0.116714
   124  H    0.077555
   125  H    0.087863
   126  H    0.079634
   127  H    0.064868
   128  H    0.088337
   129  H    0.066508
   130  H    0.070809
   131  H    0.066911
   132  H    0.087514
   133  H    0.089819
   134  H    0.110239
   135  H    0.112680
   136  H    0.088757
   137  H    0.103304
 Sum of Mulliken charges =   0.00000

 Dipole moment (field-independent basis, Debye):
    X=              2.7053    Y=              3.3104    Z=             -0.6215  Tot=              4.3201
 Quadrupole moment (field-independent basis, Debye-Ang):
   XX=           -363.0734   YY=           -390.6349   ZZ=           -400.1601
   XY=            -25.8200   XZ=              8.1323   YZ=             -2.7389

 Normal termination of Gaussian 09 at Fri Jul  5 18:56:38 2019.
