 Gaussian 09, Revision D.01,
 Gaussian 09:  ES64L-G09RevD.01 24-Apr-2013

 -------------------------------------
 # td=(NStates=1) CAM-B3LYP/6-31G(d,p)
 -------------------------------------

 --
 TD
 --
 Symbolic Z-matrix:
 Charge =  0 Multiplicity = 1

                         Standard orientation:
 ---------------------------------------------------------------------
 Center     Atomic      Atomic             Coordinates (Angstroms)
 Number     Number       Type             X           Y           Z
 ---------------------------------------------------------------------
      1         12           0       -7.153794    0.572595    0.063092
      2          6           0       -4.819675   -1.903012    0.597808
      3          6           0       -4.775145    2.903411    1.223412
      4          6           0       -9.364571    2.964146   -0.372808
      5          6           0       -9.453857   -1.781453   -0.981592
      6          7           0       -5.128072    0.455915    0.634816
      7          6           0       -4.297170   -0.708996    0.774230
      8          6           0       -2.925101   -0.310401    1.286210
      9          6           0       -2.964883    1.125671    1.782869
     10          6           0       -4.340182    1.563228    1.208116
     11          6           0       -2.932713    1.225621    3.264391
     12          6           0       -1.945241   -0.436155    0.058374
     13          6           0       -0.472834   -0.241860    0.491268
     14          6           0        0.461331   -0.524653   -0.628895
     15          8           0        0.117570   -0.838756   -1.737821
     16          8           0        1.705760   -0.334396   -0.154006
     17          7           0       -7.084717    2.595149    0.463277
     18          6           0       -5.977664    3.341044    0.721906
     19          6           0       -6.352062    4.777086    0.726688
     20          6           0       -7.678807    4.799552    0.478133
     21          6           0       -8.130635    3.405599    0.093783
     22          6           0       -5.410235    5.848224    1.069849
     23          6           0       -8.520536    5.916852    0.148820
     24          6           0       -8.405350    7.216802    0.596825
     25          7           0       -9.097960    0.591255   -0.604445
     26          6           0       -9.768887    1.793863   -0.674823
     27          6           0      -11.124632    1.453936   -1.086392
     28          6           0      -11.215319    0.092520   -1.225299
     29          6           0       -9.871798   -0.424908   -0.925042
     30          6           0      -12.234275    2.397093   -1.364710
     31          6           0      -12.431771   -0.853706   -1.673076
     32          6           0      -12.226276   -1.113792   -3.170680
     33          7           0       -7.156387   -1.431348   -0.193666
     34          6           0       -8.215597   -2.339446   -0.545257
     35          6           0       -7.786696   -3.599141   -0.645803
     36          6           0       -6.452426   -3.473252   -0.083252
     37          6           0       -6.178143   -2.241213    0.183619
     38          6           0       -8.591917   -4.812877   -1.120115
     39          6           0       -5.303407   -4.310415    0.168445
     40          8           0       -5.230524   -5.512298    0.222293
     41          6           0       -4.229167   -3.312652    0.647029
     42          6           0       -3.561488   -3.627187    1.972937
     43          8           0       -3.958646   -3.162822    3.051698
     44          8           0       -2.690527   -4.583008    1.782455
     45          6           0       -2.041660   -5.167118    2.994223
     46          6           0        2.760461   -0.606636   -1.187379
     47          6           0        4.080862   -0.470252   -0.499175
     48          6           0        5.040680    0.366173   -0.963708
     49          6           0        5.103173    1.332829   -2.156500
     50          6           0        6.412086    0.409129   -0.269261
     51          6           0        7.633556   -0.238959   -1.023481
     52          6           0        8.970381   -0.185211   -0.167236
     53          6           0       10.206184   -0.658012   -0.808219
     54          6           0       10.231887   -2.124174   -1.166259
     55          6           0       11.436865   -0.270690    0.062227
     56          6           0       12.761793   -0.607122   -0.635033
     57          6           0       13.912175   -0.220891    0.312272
     58          6           0       15.210278   -0.265172   -0.477682
     59          6           0       15.652397   -1.649242   -1.075464
     60          6           0       16.393389    0.220800    0.483673
     61          6           0       17.691847    0.559481   -0.263499
     62          6           0       18.650765    1.194515    0.686272
     63          6           0       20.142637    1.294129    0.204583
     64          6           0       20.329544    2.291177   -1.035295
     65          6           0       21.116846    1.955826    1.223389
     66          1           0       -4.161082    3.578870    1.546212
     67          1           0      -10.078541    3.814662   -0.588921
     68          1           0      -10.275901   -2.383485   -1.203592
     69          1           0       -2.646654   -0.771471    2.152345
     70          1           0       -2.159626    1.828434    1.444027
     71          1           0       -1.954278    0.832630    3.689127
     72          1           0       -2.984777    2.343232    3.472025
     73          1           0       -3.819237    0.768355    3.739273
     74          1           0       -1.865665   -1.447143   -0.271650
     75          1           0       -2.150018    0.072268   -0.945982
     76          1           0       -0.392964    0.632964    0.947285
     77          1           0       -0.188376   -0.905142    1.217116
     78          1           0       -5.801811    6.748263    0.493520
     79          1           0       -5.375181    6.088930    2.221882
     80          1           0       -4.595685    5.416223    0.479456
     81          1           0       -9.450754    5.796853   -0.598266
     82          1           0       -9.158857    8.001394    0.173182
     83          1           0       -7.911301    7.736027    1.354074
     84          1           0      -12.151585    2.857061   -2.493887
     85          1           0      -13.129617    1.733579   -1.474335
     86          1           0      -12.546519    3.186051   -0.661256
     87          1           0      -12.470456   -1.757147   -1.005561
     88          1           0      -13.411991   -0.416061   -1.585718
     89          1           0      -13.089340   -1.655149   -3.619884
     90          1           0      -12.025672   -0.377028   -3.835874
     91          1           0      -11.451397   -1.790816   -3.212786
     92          1           0       -8.888170   -5.180935   -2.253661
     93          1           0       -8.111074   -5.815888   -0.704154
     94          1           0       -9.499419   -4.887730   -0.589101
     95          1           0       -3.383790   -3.399308   -0.116284
     96          1           0       -1.160677   -4.588979    3.421460
     97          1           0       -2.883103   -5.214798    3.679216
     98          1           0       -1.513746   -6.274977    2.701396
     99          1           0        2.810290   -1.513805   -1.724598
    100          1           0        2.589324    0.180762   -2.023572
    101          1           0        4.379852   -1.034641    0.360070
    102          1           0        4.030254    1.170951   -2.489922
    103          1           0        5.378003    2.299070   -1.686158
    104          1           0        5.826005    1.103134   -2.850308
    105          1           0        6.921912    1.370189   -0.184266
    106          1           0        6.373137    0.042753    0.790915
    107          1           0        7.512137   -1.367036   -1.297221
    108          1           0        7.754882    0.416930   -1.946926
    109          1           0        8.961597    0.898335    0.255557
    110          1           0        8.755089   -0.794023    0.659261
    111          1           0       10.367611   -0.131351   -1.823321
    112          1           0        9.334780   -2.413405   -1.835902
    113          1           0       11.156494   -2.344687   -1.693937
    114          1           0       10.197335   -2.808450   -0.118680
    115          1           0       11.531101    0.848667    0.151373
    116          1           0       11.246635   -0.702151    0.945676
    117          1           0       12.714337   -1.685547   -0.965936
    118          1           0       12.780700    0.107128   -1.596135
    119          1           0       13.452326    0.856686    0.663946
    120          1           0       13.794365   -1.006536    1.186159
    121          1           0       15.266346    0.356969   -1.369734
    122          1           0       15.374625   -2.575743   -0.367195
    123          1           0       15.044063   -1.915842   -1.919509
    124          1           0       16.783192   -1.513388   -1.254501
    125          1           0       15.906202    1.080763    1.178680
    126          1           0       16.565849   -0.462583    1.308567
    127          1           0       18.068870   -0.289063   -0.921490
    128          1           0       17.257056    1.236876   -1.124418
    129          1           0       18.477843    2.303758    0.724219
    130          1           0       18.793748    0.648041    1.604448
    131          1           0       20.537593    0.343555   -0.011137
    132          1           0       19.797546    3.189178   -0.769365
    133          1           0       21.178930    2.571613   -1.309614
    134          1           0       19.810358    1.935778   -2.031379
    135          1           0       21.067762    1.288834    2.081631
    136          1           0       22.168196    1.878667    0.770443
    137          1           0       21.093243    3.141548    1.477164
 ---------------------------------------------------------------------

 SCF Done:  E(RCAM-B3LYP) =  -2932.66410671     A.U. after   18 cycles

 Excitation energies and oscillator strengths:

 Excited State   1:      Singlet-A      1.9740 eV  628.09 nm  f=0.3023  <S**2>=0.000
     240 -> 243        0.18544
     241 -> 242        0.67587
 This state for optimization and/or second-order correction.
 Total Energy, E(TD-HF/TD-KS) =  -2932.59156409
 Copying the excited state density for this state as the 1-particle RhoCI density.

 The electronic state is 1-A.
 Alpha  occ. eigenvalues --  -46.83416 -19.27036 -19.26929 -19.21289 -19.19591
 Alpha  occ. eigenvalues --  -19.18718 -14.41785 -14.39793 -14.38861 -14.37381
 Alpha  occ. eigenvalues --  -10.38877 -10.38481 -10.33593 -10.33140 -10.32870
 Alpha  occ. eigenvalues --  -10.32158 -10.30479 -10.30258 -10.29341 -10.29016
 Alpha  occ. eigenvalues --  -10.28723 -10.28496 -10.27995 -10.27844 -10.27655
 Alpha  occ. eigenvalues --  -10.27634 -10.27571 -10.27521 -10.27267 -10.27198
 Alpha  occ. eigenvalues --  -10.27164 -10.27066 -10.27015 -10.27002 -10.26978
 Alpha  occ. eigenvalues --  -10.26894 -10.26894 -10.26858 -10.26651 -10.26626
 Alpha  occ. eigenvalues --  -10.26535 -10.26397 -10.26385 -10.26348 -10.26347
 Alpha  occ. eigenvalues --  -10.26325 -10.26190 -10.26148 -10.26104 -10.26079
 Alpha  occ. eigenvalues --  -10.26074 -10.26055 -10.25997 -10.25890 -10.25856
 Alpha  occ. eigenvalues --  -10.25706 -10.25518 -10.25398 -10.25391 -10.25029
 Alpha  occ. eigenvalues --  -10.24837 -10.24292 -10.23784 -10.23135 -10.22744
 Alpha  occ. eigenvalues --   -3.12479  -1.87191  -1.86744  -1.86629  -1.18103
 Alpha  occ. eigenvalues --   -1.17956  -1.10117  -1.09926  -1.07328  -1.04478
 Alpha  occ. eigenvalues --   -1.03612  -1.03256  -0.99943  -0.92008  -0.91385
 Alpha  occ. eigenvalues --   -0.90660  -0.90274  -0.89953  -0.89550  -0.89344
 Alpha  occ. eigenvalues --   -0.88239  -0.87888  -0.87834  -0.86923  -0.85887
 Alpha  occ. eigenvalues --   -0.85074  -0.84195  -0.83600  -0.83338  -0.83182
 Alpha  occ. eigenvalues --   -0.81637  -0.81013  -0.80743  -0.79882  -0.78350
 Alpha  occ. eigenvalues --   -0.77834  -0.76595  -0.76009  -0.75364  -0.75337
 Alpha  occ. eigenvalues --   -0.75095  -0.74610  -0.74020  -0.73623  -0.73261
 Alpha  occ. eigenvalues --   -0.71361  -0.70581  -0.70071  -0.68691  -0.68038
 Alpha  occ. eigenvalues --   -0.67211  -0.65999  -0.65309  -0.64702  -0.64134
 Alpha  occ. eigenvalues --   -0.63826  -0.63728  -0.63200  -0.62674  -0.62128
 Alpha  occ. eigenvalues --   -0.61811  -0.60878  -0.60715  -0.59632  -0.59387
 Alpha  occ. eigenvalues --   -0.58682  -0.58225  -0.57656  -0.57043  -0.56659
 Alpha  occ. eigenvalues --   -0.55882  -0.55474  -0.55371  -0.55267  -0.55064
 Alpha  occ. eigenvalues --   -0.54968  -0.54552  -0.53773  -0.53652  -0.53344
 Alpha  occ. eigenvalues --   -0.52750  -0.52463  -0.52415  -0.52322  -0.52185
 Alpha  occ. eigenvalues --   -0.51248  -0.51016  -0.50651  -0.50443  -0.50179
 Alpha  occ. eigenvalues --   -0.50022  -0.49787  -0.49572  -0.49456  -0.49291
 Alpha  occ. eigenvalues --   -0.48956  -0.48679  -0.48640  -0.48280  -0.48219
 Alpha  occ. eigenvalues --   -0.47842  -0.47654  -0.47460  -0.47308  -0.47190
 Alpha  occ. eigenvalues --   -0.46855  -0.46632  -0.46323  -0.46181  -0.45869
 Alpha  occ. eigenvalues --   -0.45712  -0.45508  -0.45436  -0.45184  -0.44826
 Alpha  occ. eigenvalues --   -0.44646  -0.44610  -0.44459  -0.44399  -0.44021
 Alpha  occ. eigenvalues --   -0.43936  -0.43655  -0.43401  -0.43274  -0.42996
 Alpha  occ. eigenvalues --   -0.42797  -0.42646  -0.42401  -0.42313  -0.42091
 Alpha  occ. eigenvalues --   -0.41783  -0.41625  -0.41569  -0.41456  -0.41152
 Alpha  occ. eigenvalues --   -0.40966  -0.40425  -0.40096  -0.39963  -0.39915
 Alpha  occ. eigenvalues --   -0.39798  -0.39746  -0.39557  -0.39545  -0.39027
 Alpha  occ. eigenvalues --   -0.39016  -0.38578  -0.38522  -0.37865  -0.37823
 Alpha  occ. eigenvalues --   -0.37524  -0.37384  -0.37234  -0.36918  -0.36597
 Alpha  occ. eigenvalues --   -0.36469  -0.36380  -0.36061  -0.35693  -0.35587
 Alpha  occ. eigenvalues --   -0.35471  -0.35291  -0.34914  -0.34212  -0.33117
 Alpha  occ. eigenvalues --   -0.32866  -0.32636  -0.31915  -0.31428  -0.30026
 Alpha  occ. eigenvalues --   -0.28861  -0.28694  -0.27658  -0.27220  -0.23546
 Alpha  occ. eigenvalues --   -0.21493
 Alpha virt. eigenvalues --   -0.07476  -0.02244   0.02432   0.04217   0.05992
 Alpha virt. eigenvalues --    0.06317   0.06693   0.07126   0.07183   0.07314
 Alpha virt. eigenvalues --    0.08981   0.11090   0.11162   0.11408   0.11876

 Mulliken charges:
               1
     1  Mg   0.797876
     2  C    0.105553
     3  C   -0.174205
     4  C   -0.183808
     5  C   -0.142322
     6  N   -0.620678
     7  C    0.260963
     8  C   -0.136890
     9  C   -0.139346
    10  C    0.299486
    11  C   -0.309903
    12  C   -0.193498
    13  C   -0.271421
    14  C    0.623971
    15  O   -0.474702
    16  O   -0.482825
    17  N   -0.696091
    18  C    0.336098
    19  C    0.005466
    20  C    0.029843
    21  C    0.285333
    22  C   -0.360866
    23  C   -0.102997
    24  C   -0.255479
    25  N   -0.726519
    26  C    0.367841
    27  C    0.016047
    28  C    0.005296
    29  C    0.295588
    30  C   -0.384171
    31  C   -0.241144
    32  C   -0.312165
    33  N   -0.724374
    34  C    0.219212
    35  C    0.101540
    36  C   -0.066690
    37  C    0.345519
    38  C   -0.395658
    39  C    0.359761
    40  O   -0.458060
    41  C   -0.334175
    42  C    0.627825
    43  O   -0.505927
    44  O   -0.434794
    45  C   -0.088182
    46  C   -0.011984
    47  C   -0.130442
    48  C    0.103313
    49  C   -0.337889
    50  C   -0.234100
    51  C   -0.182928
    52  C   -0.165034
    53  C   -0.055664
    54  C   -0.295771
    55  C   -0.163247
    56  C   -0.187257
    57  C   -0.155361
    58  C   -0.051602
    59  C   -0.303721
    60  C   -0.179257
    61  C   -0.178993
    62  C   -0.152221
    63  C   -0.087813
    64  C   -0.302066
    65  C   -0.304134
    66  H    0.064488
    67  H    0.092670
    68  H    0.086024
    69  H    0.120731
    70  H    0.110565
    71  H    0.107623
    72  H    0.098459
    73  H    0.135665
    74  H    0.120902
    75  H    0.128705
    76  H    0.131980
    77  H    0.138120
    78  H    0.120866
    79  H    0.129797
    80  H    0.126926
    81  H    0.101539
    82  H    0.082985
    83  H    0.115922
    84  H    0.097419
    85  H    0.112761
    86  H    0.121925
    87  H    0.112654
    88  H    0.111828
    89  H    0.091202
    90  H    0.127135
    91  H    0.119568
    92  H    0.108627
    93  H    0.130535
    94  H    0.130804
    95  H    0.148464
    96  H    0.126762
    97  H    0.159322
    98  H    0.114350
    99  H    0.152221
   100  H    0.123067
   101  H    0.099778
   102  H    0.091582
   103  H    0.123514
   104  H    0.138239
   105  H    0.097599
   106  H    0.084935
   107  H    0.082872
   108  H    0.083141
   109  H    0.073735
   110  H    0.099553
   111  H    0.068644
   112  H    0.099123
   113  H    0.114130
   114  H    0.063159
   115  H    0.086214
   116  H    0.098066
   117  H    0.091757
   118  H    0.072505
   119  H    0.074988
   120  H    0.089247
   121  H    0.093144
   122  H    0.078918
   123  H    0.108781
   124  H    0.096868
   125  H    0.069620
   126  H    0.093802
   127  H    0.095503
   128  H    0.085428
   129  H    0.103054
   130  H    0.099545
   131  H    0.095105
   132  H    0.096610
   133  H    0.110996
   134  H    0.067865
   135  H    0.095188
   136  H    0.096300
   137  H    0.087728
 Sum of Mulliken charges =   0.00000

 Dipole moment (field-independent basis, Debye):
    X=              2.6727    Y=              5.1174    Z=              0.3456  Tot=              5.7836
 Quadrupole moment (field-independent basis, Debye-Ang):
   XX=           -339.8750   YY=           -393.4395   ZZ=           -396.9678
   XY=            -31.7857   XZ=             12.6021   YZ=             -0.5579

 Normal termination of Gaussian 09 at Thu Jul  4 13:35:37 2019.
