 Gaussian 09, Revision D.01,
 Gaussian 09:  ES64L-G09RevD.01 24-Apr-2013

 -------------------------------------
 # td=(NStates=1) CAM-B3LYP/6-31G(d,p)
 -------------------------------------

 --
 TD
 --
 Symbolic Z-matrix:
 Charge =  0 Multiplicity = 1

                         Standard orientation:
 ---------------------------------------------------------------------
 Center     Atomic      Atomic             Coordinates (Angstroms)
 Number     Number       Type             X           Y           Z
 ---------------------------------------------------------------------
      1         12           0       -7.178539    0.669912   -0.066553
      2          6           0       -4.833345   -1.943739    0.531774
      3          6           0       -4.799908    2.806268    1.086794
      4          6           0       -9.488735    3.162663   -0.345690
      5          6           0       -9.447626   -1.702630   -0.945842
      6          7           0       -5.193726    0.366876    0.619380
      7          6           0       -4.361155   -0.744805    0.778569
      8          6           0       -3.028448   -0.425245    1.274501
      9          6           0       -3.154280    1.085564    1.753903
     10          6           0       -4.428210    1.552410    1.169177
     11          6           0       -3.146100    1.178018    3.280465
     12          6           0       -2.024361   -0.505917    0.149622
     13          6           0       -0.547239   -0.404337    0.581954
     14          6           0        0.467464   -0.698768   -0.537002
     15          8           0        0.265485   -1.239583   -1.570118
     16          8           0        1.781610   -0.437242    0.006888
     17          7           0       -7.036939    2.678573    0.350361
     18          6           0       -6.038473    3.365215    0.751373
     19          6           0       -6.438377    4.869814    0.717808
     20          6           0       -7.733238    4.896364    0.324022
     21          6           0       -8.137040    3.600264   -0.064423
     22          6           0       -5.563653    5.891796    1.241325
     23          6           0       -8.490559    6.128883   -0.009771
     24          6           0       -8.522306    7.254061    0.748793
     25          7           0       -9.114382    0.707295   -0.466363
     26          6           0       -9.877753    1.836378   -0.613488
     27          6           0      -11.190887    1.436115   -1.185861
     28          6           0      -11.193181    0.089538   -1.323490
     29          6           0       -9.891649   -0.382688   -0.850989
     30          6           0      -12.190422    2.451071   -1.554641
     31          6           0      -12.421444   -0.775473   -1.854564
     32          6           0      -12.175016   -1.068289   -3.402593
     33          7           0       -7.239671   -1.415434   -0.051527
     34          6           0       -8.213645   -2.169296   -0.491906
     35          6           0       -7.833249   -3.584614   -0.494357
     36          6           0       -6.481425   -3.606953   -0.241868
     37          6           0       -6.190551   -2.204752    0.129227
     38          6           0       -8.673942   -4.832528   -0.747644
     39          6           0       -5.270212   -4.350512    0.129656
     40          8           0       -5.166210   -5.547423    0.203440
     41          6           0       -4.187288   -3.385427    0.542794
     42          6           0       -3.597501   -3.695024    1.957575
     43          8           0       -3.854582   -3.067343    2.954962
     44          8           0       -2.752553   -4.755902    1.848900
     45          6           0       -2.303616   -5.265061    3.080686
     46          6           0        2.803892   -0.813753   -0.972021
     47          6           0        4.183201   -0.578231   -0.311015
     48          6           0        5.064760    0.226090   -0.872503
     49          6           0        5.013834    0.868337   -2.333648
     50          6           0        6.413387    0.322224   -0.207606
     51          6           0        7.722166   -0.317720   -0.924855
     52          6           0        8.912333   -0.181595   -0.154759
     53          6           0       10.088238   -0.611813   -0.933016
     54          6           0       10.081180   -2.079329   -1.248007
     55          6           0       11.464063   -0.187855   -0.149165
     56          6           0       12.845045   -0.311807   -0.891122
     57          6           0       13.935840    0.027868   -0.026417
     58          6           0       15.421492   -0.073968   -0.566215
     59          6           0       15.823715   -1.582847   -0.980360
     60          6           0       16.451434    0.517113    0.377671
     61          6           0       17.839181    0.693633   -0.303258
     62          6           0       18.820600    1.364891    0.708971
     63          6           0       20.324258    1.397651    0.237446
     64          6           0       20.630705    2.020153   -1.068329
     65          6           0       21.106717    1.929790    1.505718
     66          1           0       -3.906039    3.440519    1.522118
     67          1           0      -10.098457    4.147990   -0.429702
     68          1           0      -10.198315   -2.421229   -1.275456
     69          1           0       -2.990918   -1.398608    2.036372
     70          1           0       -2.450364    1.798773    1.290125
     71          1           0       -2.069245    1.000696    3.778415
     72          1           0       -3.523436    2.216682    3.490614
     73          1           0       -3.891772    0.540197    3.599452
     74          1           0       -2.314871   -1.500734   -0.559964
     75          1           0       -2.150623    0.413387   -0.565626
     76          1           0       -0.061762    0.679070    0.946791
     77          1           0       -0.250069   -1.126923    1.321229
     78          1           0       -5.687925    6.854336    0.811912
     79          1           0       -5.475653    6.260377    2.389924
     80          1           0       -4.562458    5.645166    1.172874
     81          1           0       -9.009590    6.363866   -0.917349
     82          1           0       -9.386289    7.999586    0.716461
     83          1           0       -8.242781    7.263849    1.887017
     84          1           0      -11.947575    3.060407   -2.384817
     85          1           0      -13.105099    1.745900   -1.591771
     86          1           0      -12.440664    3.206707   -0.943966
     87          1           0      -12.426083   -1.754014   -1.395249
     88          1           0      -13.315829   -0.245254   -1.734036
     89          1           0      -12.812984   -1.926056   -3.676427
     90          1           0      -12.236803   -0.086517   -3.810152
     91          1           0      -11.034277   -1.374624   -3.577546
     92          1           0       -8.749980   -4.835199   -2.057876
     93          1           0       -8.170695   -5.726840   -0.685656
     94          1           0       -9.652059   -4.696196   -0.224790
     95          1           0       -3.351186   -3.556651   -0.056497
     96          1           0       -1.958407   -4.515168    3.722326
     97          1           0       -2.989159   -5.798808    3.657076
     98          1           0       -1.341194   -6.057530    2.724775
     99          1           0        2.632222   -1.922383   -1.007939
    100          1           0        2.775565   -0.347593   -1.964137
    101          1           0        4.477414   -1.130463    0.743399
    102          1           0        3.869242    1.172971   -2.297584
    103          1           0        5.769705    1.629990   -2.215661
    104          1           0        5.284554    0.118525   -3.208054
    105          1           0        6.758554    1.489291   -0.053884
    106          1           0        6.331826    0.021758    0.866365
    107          1           0        7.559868   -1.299642   -1.136735
    108          1           0        8.151563    0.254487   -1.748511
    109          1           0        9.105330    0.837612    0.414616
    110          1           0        8.870124   -0.754693    0.918042
    111          1           0       10.249107   -0.066839   -1.866177
    112          1           0        9.328563   -2.455659   -1.850621
    113          1           0       10.946369   -2.428575   -1.761603
    114          1           0        9.905940   -2.955175   -0.576768
    115          1           0       11.413722    0.856394    0.094072
    116          1           0       11.461187   -0.903444    0.655554
    117          1           0       12.942395   -1.232715   -1.352933
    118          1           0       12.933846    0.161522   -1.711685
    119          1           0       13.997670    1.096726    0.326366
    120          1           0       14.077961   -0.476470    1.167778
    121          1           0       15.403842    0.634985   -1.476317
    122          1           0       16.027304   -1.886735    0.049097
    123          1           0       14.932079   -1.966550   -1.539241
    124          1           0       16.532438   -1.640228   -1.750852
    125          1           0       16.110805    1.442874    1.034176
    126          1           0       16.718849   -0.234818    1.205263
    127          1           0       18.210239   -0.363338   -0.298896
    128          1           0       18.017100    1.242646   -1.295654
    129          1           0       18.484055    2.378126    0.791474
    130          1           0       18.555295    0.941537    1.775331
    131          1           0       20.925769    0.514967    0.231010
    132          1           0       20.229706    2.952768   -1.219433
    133          1           0       21.729406    2.087370   -1.585838
    134          1           0       20.101955    1.366123   -1.928708
    135          1           0       20.858870    1.421793    2.528627
    136          1           0       22.150993    1.827420    1.369099
    137          1           0       20.784614    3.054920    1.859075
 ---------------------------------------------------------------------

 SCF Done:  E(RCAM-B3LYP) =  -2932.54752421     A.U. after   16 cycles

 Excitation energies and oscillator strengths:

 Excited State   1:      Singlet-A      1.9612 eV  632.18 nm  f=0.3313  <S**2>=0.000
     240 -> 243       -0.19186
     241 -> 242        0.67606
 This state for optimization and/or second-order correction.
 Total Energy, E(TD-HF/TD-KS) =  -2932.47545138
 Copying the excited state density for this state as the 1-particle RhoCI density.

 The electronic state is 1-A.
 Alpha  occ. eigenvalues --  -46.84086 -19.27562 -19.24879 -19.22639 -19.22318
 Alpha  occ. eigenvalues --  -19.20167 -14.40310 -14.40234 -14.40108 -14.39145
 Alpha  occ. eigenvalues --  -10.40519 -10.39288 -10.35058 -10.32085 -10.31584
 Alpha  occ. eigenvalues --  -10.30493 -10.30083 -10.29887 -10.29442 -10.29227
 Alpha  occ. eigenvalues --  -10.29225 -10.29211 -10.29197 -10.29127 -10.28954
 Alpha  occ. eigenvalues --  -10.28854 -10.28738 -10.28471 -10.28177 -10.27944
 Alpha  occ. eigenvalues --  -10.27893 -10.27721 -10.27655 -10.27467 -10.27284
 Alpha  occ. eigenvalues --  -10.27262 -10.27228 -10.27195 -10.27039 -10.26858
 Alpha  occ. eigenvalues --  -10.26726 -10.26522 -10.26473 -10.26424 -10.26410
 Alpha  occ. eigenvalues --  -10.26407 -10.26405 -10.26120 -10.26060 -10.26056
 Alpha  occ. eigenvalues --  -10.25977 -10.25933 -10.25838 -10.25826 -10.25706
 Alpha  occ. eigenvalues --  -10.25564 -10.25564 -10.25292 -10.25159 -10.25045
 Alpha  occ. eigenvalues --  -10.24950 -10.24757 -10.24524 -10.23646 -10.23041
 Alpha  occ. eigenvalues --   -3.13179  -1.87874  -1.87397  -1.87382  -1.19481
 Alpha  occ. eigenvalues --   -1.16875  -1.11884  -1.11341  -1.08991  -1.05836
 Alpha  occ. eigenvalues --   -1.03664  -1.02385  -1.00459  -0.92398  -0.91886
 Alpha  occ. eigenvalues --   -0.90330  -0.89996  -0.89244  -0.88855  -0.88553
 Alpha  occ. eigenvalues --   -0.88309  -0.88163  -0.87938  -0.86879  -0.85715
 Alpha  occ. eigenvalues --   -0.85307  -0.84098  -0.83748  -0.83112  -0.82708
 Alpha  occ. eigenvalues --   -0.81669  -0.81074  -0.80510  -0.79500  -0.78623
 Alpha  occ. eigenvalues --   -0.77707  -0.77574  -0.76703  -0.76124  -0.75556
 Alpha  occ. eigenvalues --   -0.75202  -0.74851  -0.74200  -0.72695  -0.71763
 Alpha  occ. eigenvalues --   -0.71529  -0.70144  -0.69312  -0.68936  -0.68538
 Alpha  occ. eigenvalues --   -0.66713  -0.66200  -0.65627  -0.65007  -0.64965
 Alpha  occ. eigenvalues --   -0.64505  -0.63877  -0.63155  -0.62250  -0.61337
 Alpha  occ. eigenvalues --   -0.61185  -0.60721  -0.60101  -0.59537  -0.59035
 Alpha  occ. eigenvalues --   -0.58069  -0.57925  -0.57615  -0.56845  -0.56187
 Alpha  occ. eigenvalues --   -0.55992  -0.55663  -0.55481  -0.55346  -0.54969
 Alpha  occ. eigenvalues --   -0.54196  -0.54172  -0.53728  -0.53225  -0.53076
 Alpha  occ. eigenvalues --   -0.52776  -0.52680  -0.52403  -0.52048  -0.51698
 Alpha  occ. eigenvalues --   -0.51515  -0.51273  -0.51105  -0.50951  -0.50549
 Alpha  occ. eigenvalues --   -0.50288  -0.49938  -0.49755  -0.49475  -0.49313
 Alpha  occ. eigenvalues --   -0.49255  -0.49125  -0.49036  -0.48861  -0.48307
 Alpha  occ. eigenvalues --   -0.48131  -0.48010  -0.47867  -0.47618  -0.47554
 Alpha  occ. eigenvalues --   -0.46958  -0.46793  -0.46190  -0.45996  -0.45877
 Alpha  occ. eigenvalues --   -0.45799  -0.45660  -0.45366  -0.45226  -0.45114
 Alpha  occ. eigenvalues --   -0.44794  -0.44698  -0.44471  -0.44147  -0.43914
 Alpha  occ. eigenvalues --   -0.43858  -0.43670  -0.43455  -0.43270  -0.43170
 Alpha  occ. eigenvalues --   -0.43073  -0.42459  -0.42127  -0.42065  -0.42047
 Alpha  occ. eigenvalues --   -0.41887  -0.41833  -0.41790  -0.41582  -0.41345
 Alpha  occ. eigenvalues --   -0.41127  -0.40925  -0.40724  -0.40361  -0.40127
 Alpha  occ. eigenvalues --   -0.39854  -0.39462  -0.39334  -0.39057  -0.38689
 Alpha  occ. eigenvalues --   -0.38534  -0.38357  -0.38237  -0.38075  -0.37527
 Alpha  occ. eigenvalues --   -0.37003  -0.36729  -0.36703  -0.36651  -0.36408
 Alpha  occ. eigenvalues --   -0.36244  -0.35824  -0.35561  -0.35291  -0.35219
 Alpha  occ. eigenvalues --   -0.35161  -0.34609  -0.34401  -0.34146  -0.33845
 Alpha  occ. eigenvalues --   -0.33102  -0.32735  -0.31678  -0.31186  -0.30558
 Alpha  occ. eigenvalues --   -0.29729  -0.29633  -0.28859  -0.27945  -0.23606
 Alpha  occ. eigenvalues --   -0.20783
 Alpha virt. eigenvalues --   -0.06653  -0.02222   0.02173   0.03226   0.04630
 Alpha virt. eigenvalues --    0.05289   0.05878   0.06105   0.06520   0.08168
 Alpha virt. eigenvalues --    0.08715   0.10150   0.10444   0.11146   0.11659

 Mulliken charges:
               1
     1  Mg   0.827991
     2  C    0.060346
     3  C   -0.220790
     4  C   -0.156042
     5  C   -0.173585
     6  N   -0.649974
     7  C    0.310837
     8  C   -0.150610
     9  C   -0.168408
    10  C    0.332872
    11  C   -0.282039
    12  C   -0.164074
    13  C   -0.251809
    14  C    0.592587
    15  O   -0.430366
    16  O   -0.520437
    17  N   -0.681955
    18  C    0.363680
    19  C    0.032400
    20  C    0.032668
    21  C    0.190431
    22  C   -0.386210
    23  C   -0.101819
    24  C   -0.253665
    25  N   -0.708761
    26  C    0.290658
    27  C    0.009518
    28  C    0.010717
    29  C    0.274613
    30  C   -0.364062
    31  C   -0.232876
    32  C   -0.308542
    33  N   -0.686014
    34  C    0.315117
    35  C   -0.014480
    36  C    0.007476
    37  C    0.235408
    38  C   -0.339981
    39  C    0.380277
    40  O   -0.451943
    41  C   -0.297422
    42  C    0.615002
    43  O   -0.453920
    44  O   -0.430877
    45  C   -0.085449
    46  C    0.019615
    47  C   -0.123063
    48  C    0.104179
    49  C   -0.336669
    50  C   -0.239883
    51  C   -0.151117
    52  C   -0.158847
    53  C   -0.078315
    54  C   -0.333961
    55  C   -0.182237
    56  C   -0.179958
    57  C   -0.147902
    58  C   -0.073326
    59  C   -0.306674
    60  C   -0.186510
    61  C   -0.173111
    62  C   -0.180679
    63  C   -0.038863
    64  C   -0.315731
    65  C   -0.310384
    66  H    0.079501
    67  H    0.107538
    68  H    0.096756
    69  H    0.124026
    70  H    0.107817
    71  H    0.099169
    72  H    0.095295
    73  H    0.138187
    74  H    0.102536
    75  H    0.106650
    76  H    0.121683
    77  H    0.149560
    78  H    0.128374
    79  H    0.096480
    80  H    0.119362
    81  H    0.115426
    82  H    0.101331
    83  H    0.094454
    84  H    0.126727
    85  H    0.093232
    86  H    0.127388
    87  H    0.108231
    88  H    0.114529
    89  H    0.109026
    90  H    0.124283
    91  H    0.095123
    92  H    0.080491
    93  H    0.159806
    94  H    0.126210
    95  H    0.164337
    96  H    0.136224
    97  H    0.141461
    98  H    0.092662
    99  H    0.115732
   100  H    0.119153
   101  H    0.086876
   102  H    0.110770
   103  H    0.124442
   104  H    0.120961
   105  H    0.063167
   106  H    0.096754
   107  H    0.116026
   108  H    0.098450
   109  H    0.077891
   110  H    0.058711
   111  H    0.093113
   112  H    0.108243
   113  H    0.103397
   114  H    0.098185
   115  H    0.095491
   116  H    0.108298
   117  H    0.098019
   118  H    0.101038
   119  H    0.089058
   120  H    0.032374
   121  H    0.068002
   122  H    0.112023
   123  H    0.092606
   124  H    0.116323
   125  H    0.075272
   126  H    0.081790
   127  H    0.102396
   128  H    0.090721
   129  H    0.102513
   130  H    0.081746
   131  H    0.103331
   132  H    0.117292
   133  H    0.091449
   134  H    0.083539
   135  H    0.091634
   136  H    0.101535
   137  H    0.064754
 Sum of Mulliken charges =   0.00000

 Dipole moment (field-independent basis, Debye):
    X=              0.3627    Y=              2.9726    Z=             -0.9678  Tot=              3.1472
 Quadrupole moment (field-independent basis, Debye-Ang):
   XX=           -346.2490   YY=           -394.0729   ZZ=           -395.3094
   XY=            -20.8595   XZ=              1.1163   YZ=             -4.1225

 Normal termination of Gaussian 09 at Thu Jul  4 12:23:58 2019.
