 Gaussian 09, Revision D.01,
 Gaussian 09:  ES64L-G09RevD.01 24-Apr-2013

 -------------------------------------
 # td=(NStates=1) CAM-B3LYP/6-31G(d,p)
 -------------------------------------

 --
 TD
 --
 Symbolic Z-matrix:
 Charge =  0 Multiplicity = 1

                         Standard orientation:
 ---------------------------------------------------------------------
 Center     Atomic      Atomic             Coordinates (Angstroms)
 Number     Number       Type             X           Y           Z
 ---------------------------------------------------------------------
      1         12           0       -7.207726    0.621000    0.178791
      2          6           0       -4.819779   -1.969836    0.568938
      3          6           0       -4.699631    2.882636    1.313424
      4          6           0       -9.434552    3.081926   -0.363973
      5          6           0       -9.590048   -1.785894   -0.895195
      6          7           0       -5.160994    0.470542    0.760206
      7          6           0       -4.439696   -0.690063    0.831559
      8          6           0       -2.994028   -0.419060    1.347565
      9          6           0       -3.090810    1.030397    1.724692
     10          6           0       -4.405740    1.493085    1.286675
     11          6           0       -2.634163    1.427566    3.136335
     12          6           0       -1.945039   -0.802208    0.204504
     13          6           0       -0.478011   -0.529497    0.599272
     14          6           0        0.527947   -0.796276   -0.514202
     15          8           0        0.211593   -1.087571   -1.623017
     16          8           0        1.747900   -0.440563   -0.152743
     17          7           0       -7.060850    2.619339    0.341108
     18          6           0       -6.006792    3.380399    0.835576
     19          6           0       -6.360347    4.855073    0.770292
     20          6           0       -7.685355    4.945578    0.313820
     21          6           0       -8.047799    3.519965    0.090343
     22          6           0       -5.372562    5.999319    0.900072
     23          6           0       -8.563580    6.051686    0.027103
     24          6           0       -8.445056    7.220035    0.690946
     25          7           0       -9.086003    0.694757   -0.639477
     26          6           0       -9.833025    1.791007   -0.763893
     27          6           0      -11.238869    1.508723   -1.151843
     28          6           0      -11.222846    0.189997   -1.312047
     29          6           0       -9.876957   -0.428575   -0.978918
     30          6           0      -12.302564    2.556284   -1.382348
     31          6           0      -12.321782   -0.678415   -1.800396
     32          6           0      -12.037659   -1.352947   -3.232304
     33          7           0       -7.227317   -1.443414   -0.177904
     34          6           0       -8.283558   -2.351809   -0.599940
     35          6           0       -7.824294   -3.719006   -0.475129
     36          6           0       -6.526945   -3.537989   -0.121219
     37          6           0       -6.251209   -2.205170    0.132113
     38          6           0       -8.726750   -4.839449   -0.848737
     39          6           0       -5.322498   -4.386041    0.160297
     40          8           0       -5.074021   -5.572607    0.128623
     41          6           0       -4.181477   -3.275218    0.614575
     42          6           0       -3.602627   -3.591569    1.976680
     43          8           0       -3.776650   -2.960694    3.032036
     44          8           0       -2.717233   -4.632707    1.829991
     45          6           0       -2.111179   -5.096224    3.045495
     46          6           0        2.796537   -0.604448   -1.221508
     47          6           0        4.117144   -0.483978   -0.553235
     48          6           0        5.066855    0.253930   -1.095084
     49          6           0        4.994815    1.144967   -2.313279
     50          6           0        6.449153    0.310882   -0.390897
     51          6           0        7.682492   -0.204193   -1.099442
     52          6           0        8.945050   -0.157789   -0.175325
     53          6           0       10.242745   -0.694019   -0.850268
     54          6           0       10.067735   -2.128843   -1.381006
     55          6           0       11.405408   -0.425779    0.065461
     56          6           0       12.727952   -0.524196   -0.687242
     57          6           0       13.927282   -0.192258    0.287751
     58          6           0       15.353879   -0.197743   -0.427069
     59          6           0       15.727882   -1.646149   -0.870195
     60          6           0       16.416288    0.450759    0.563404
     61          6           0       17.747956    0.673891   -0.137200
     62          6           0       18.754601    1.415992    0.679485
     63          6           0       20.144471    1.406632    0.164568
     64          6           0       20.287757    2.174591   -1.150855
     65          6           0       21.044963    1.981356    1.270936
     66          1           0       -3.904593    3.580804    1.582644
     67          1           0      -10.165308    3.983741   -0.547355
     68          1           0      -10.261241   -2.442806   -0.965271
     69          1           0       -2.992833   -1.091205    2.334562
     70          1           0       -2.353021    1.619166    1.051343
     71          1           0       -1.592150    1.378350    3.420094
     72          1           0       -2.773041    2.452070    3.223937
     73          1           0       -3.353505    0.888206    3.923315
     74          1           0       -1.925051   -1.791393   -0.087967
     75          1           0       -2.171119   -0.417403   -0.782056
     76          1           0       -0.204476    0.471984    0.872734
     77          1           0       -0.170323   -1.399316    1.459995
     78          1           0       -5.932111    6.670448    0.324006
     79          1           0       -5.395754    6.250398    1.914562
     80          1           0       -4.425991    5.796683    0.543740
     81          1           0       -9.427981    5.822784   -0.564174
     82          1           0       -9.210291    8.043412    0.669959
     83          1           0       -7.817413    7.201027    1.554455
     84          1           0      -12.387332    3.201337   -2.370931
     85          1           0      -13.349816    2.070832   -1.540279
     86          1           0      -12.230291    3.198365   -0.497786
     87          1           0      -12.367402   -1.665654   -1.017277
     88          1           0      -13.282357   -0.054476   -1.835676
     89          1           0      -12.928449   -1.992782   -3.619681
     90          1           0      -11.610465   -0.582837   -3.997687
     91          1           0      -11.144115   -2.001637   -3.023218
     92          1           0       -8.869451   -4.889104   -1.913578
     93          1           0       -8.253401   -5.782132   -0.523944
     94          1           0       -9.679276   -4.785359   -0.288618
     95          1           0       -3.264488   -3.371889   -0.164202
     96          1           0       -1.597556   -4.148993    3.371285
     97          1           0       -2.890132   -5.249942    3.836738
     98          1           0       -1.610031   -5.948760    2.784852
     99          1           0        2.649474   -1.510562   -1.573833
    100          1           0        2.562477    0.200184   -2.072015
    101          1           0        4.236533   -1.021967    0.420389
    102          1           0        3.939981    0.876487   -2.903095
    103          1           0        5.059413    2.370452   -2.055515
    104          1           0        5.752614    0.763910   -3.007525
    105          1           0        6.616442    1.306453   -0.130683
    106          1           0        6.506500   -0.350359    0.570194
    107          1           0        7.430001   -1.312294   -1.369664
    108          1           0        7.984512    0.287625   -2.044681
    109          1           0        9.272002    0.942949    0.111272
    110          1           0        8.792282   -0.685266    0.636412
    111          1           0       10.438969    0.062731   -1.648584
    112          1           0        9.332995   -2.277318   -2.312765
    113          1           0       10.968329   -2.500950   -1.895449
    114          1           0        9.581378   -2.750375   -0.510460
    115          1           0       11.252534    0.636480    0.616691
    116          1           0       11.454799   -0.911760    1.027365
    117          1           0       12.851497   -1.587503   -1.186943
    118          1           0       12.716440   -0.003835   -1.464311
    119          1           0       13.738861    0.957647    0.678003
    120          1           0       14.006784   -0.823077    1.163852
    121          1           0       15.251923    0.468029   -1.244306
    122          1           0       15.938447   -2.372963   -0.075335
    123          1           0       14.908146   -1.949071   -1.461068
    124          1           0       16.762557   -1.672077   -1.436613
    125          1           0       16.055377    1.512339    1.008752
    126          1           0       16.405612   -0.431237    1.471234
    127          1           0       18.364027   -0.392754   -0.574421
    128          1           0       17.404186    1.231529   -1.112982
    129          1           0       18.568256    2.428169    0.695237
    130          1           0       18.701834    1.084188    1.633127
    131          1           0       20.404188    0.469134    0.022722
    132          1           0       19.912305    3.147895   -1.127913
    133          1           0       21.358357    2.293001   -1.524244
    134          1           0       19.380245    1.888451   -1.823118
    135          1           0       20.572120    1.326229    2.084544
    136          1           0       22.201543    1.879687    1.020129
    137          1           0       20.802852    2.926236    1.560131
 ---------------------------------------------------------------------

 SCF Done:  E(RCAM-B3LYP) =  -2932.66283529     A.U. after   18 cycles

 Excitation energies and oscillator strengths:

 Excited State   1:      Singlet-A      1.8636 eV  665.31 nm  f=0.2964  <S**2>=0.000
     240 -> 243        0.18456
     241 -> 242        0.67436
 This state for optimization and/or second-order correction.
 Total Energy, E(TD-HF/TD-KS) =  -2932.59435051
 Copying the excited state density for this state as the 1-particle RhoCI density.

 The electronic state is 1-A.
 Alpha  occ. eigenvalues --  -46.84864 -19.25465 -19.25427 -19.21005 -19.20537
 Alpha  occ. eigenvalues --  -19.19711 -14.41841 -14.40762 -14.40058 -14.38941
 Alpha  occ. eigenvalues --  -10.39148 -10.37708 -10.35349 -10.31838 -10.31564
 Alpha  occ. eigenvalues --  -10.31420 -10.31419 -10.30420 -10.29827 -10.29480
 Alpha  occ. eigenvalues --  -10.29441 -10.28996 -10.28507 -10.28453 -10.28451
 Alpha  occ. eigenvalues --  -10.28279 -10.28262 -10.28040 -10.28027 -10.27898
 Alpha  occ. eigenvalues --  -10.27872 -10.27842 -10.27688 -10.27653 -10.27525
 Alpha  occ. eigenvalues --  -10.27237 -10.27213 -10.27167 -10.27005 -10.26994
 Alpha  occ. eigenvalues --  -10.26954 -10.26874 -10.26782 -10.26523 -10.26403
 Alpha  occ. eigenvalues --  -10.26310 -10.26288 -10.26283 -10.26248 -10.26157
 Alpha  occ. eigenvalues --  -10.25976 -10.25948 -10.25844 -10.25808 -10.25710
 Alpha  occ. eigenvalues --  -10.25657 -10.25037 -10.25009 -10.24888 -10.24788
 Alpha  occ. eigenvalues --  -10.24528 -10.24337 -10.24309 -10.23857 -10.22701
 Alpha  occ. eigenvalues --   -3.13824  -1.88533  -1.88063  -1.87996  -1.18086
 Alpha  occ. eigenvalues --   -1.16521  -1.10810  -1.08906  -1.07977  -1.04307
 Alpha  occ. eigenvalues --   -1.03487  -1.03188  -1.02385  -0.91412  -0.91273
 Alpha  occ. eigenvalues --   -0.91130  -0.90286  -0.90200  -0.88915  -0.88474
 Alpha  occ. eigenvalues --   -0.87935  -0.87827  -0.87284  -0.86973  -0.85854
 Alpha  occ. eigenvalues --   -0.85164  -0.84007  -0.82989  -0.82734  -0.81638
 Alpha  occ. eigenvalues --   -0.81173  -0.80711  -0.80007  -0.79639  -0.78558
 Alpha  occ. eigenvalues --   -0.77674  -0.76299  -0.76047  -0.75763  -0.75426
 Alpha  occ. eigenvalues --   -0.74732  -0.74691  -0.74494  -0.73584  -0.72604
 Alpha  occ. eigenvalues --   -0.71368  -0.70045  -0.69345  -0.68709  -0.68076
 Alpha  occ. eigenvalues --   -0.66685  -0.65874  -0.65586  -0.64580  -0.64468
 Alpha  occ. eigenvalues --   -0.64022  -0.63729  -0.63226  -0.62384  -0.61866
 Alpha  occ. eigenvalues --   -0.61302  -0.60052  -0.59347  -0.59047  -0.58978
 Alpha  occ. eigenvalues --   -0.58570  -0.57765  -0.57206  -0.56747  -0.56527
 Alpha  occ. eigenvalues --   -0.55532  -0.54936  -0.54832  -0.54711  -0.54655
 Alpha  occ. eigenvalues --   -0.54064  -0.53741  -0.53397  -0.53208  -0.52742
 Alpha  occ. eigenvalues --   -0.52650  -0.52526  -0.52196  -0.52019  -0.51534
 Alpha  occ. eigenvalues --   -0.51361  -0.51313  -0.51131  -0.50405  -0.50313
 Alpha  occ. eigenvalues --   -0.50046  -0.49826  -0.49781  -0.49598  -0.49375
 Alpha  occ. eigenvalues --   -0.49092  -0.49080  -0.48705  -0.48476  -0.48359
 Alpha  occ. eigenvalues --   -0.47966  -0.47749  -0.47677  -0.47390  -0.47274
 Alpha  occ. eigenvalues --   -0.47014  -0.46768  -0.46552  -0.46373  -0.45892
 Alpha  occ. eigenvalues --   -0.45549  -0.45434  -0.45312  -0.45266  -0.45107
 Alpha  occ. eigenvalues --   -0.44876  -0.44747  -0.44325  -0.44150  -0.43859
 Alpha  occ. eigenvalues --   -0.43772  -0.43682  -0.43439  -0.43368  -0.43143
 Alpha  occ. eigenvalues --   -0.43094  -0.42914  -0.42686  -0.42486  -0.42327
 Alpha  occ. eigenvalues --   -0.42108  -0.41979  -0.41785  -0.41569  -0.41411
 Alpha  occ. eigenvalues --   -0.41271  -0.40930  -0.40629  -0.40307  -0.39911
 Alpha  occ. eigenvalues --   -0.39831  -0.39669  -0.39391  -0.39152  -0.38836
 Alpha  occ. eigenvalues --   -0.38581  -0.38474  -0.38240  -0.37991  -0.37842
 Alpha  occ. eigenvalues --   -0.37642  -0.37413  -0.37233  -0.36984  -0.36691
 Alpha  occ. eigenvalues --   -0.36364  -0.35971  -0.35850  -0.35710  -0.35381
 Alpha  occ. eigenvalues --   -0.35263  -0.34776  -0.34615  -0.33617  -0.33386
 Alpha  occ. eigenvalues --   -0.33208  -0.32614  -0.31466  -0.30538  -0.30297
 Alpha  occ. eigenvalues --   -0.29496  -0.29248  -0.28705  -0.27908  -0.22992
 Alpha  occ. eigenvalues --   -0.20682
 Alpha virt. eigenvalues --   -0.07196  -0.02117   0.02139   0.03456   0.05077
 Alpha virt. eigenvalues --    0.05444   0.06169   0.06552   0.07389   0.08145
 Alpha virt. eigenvalues --    0.08637   0.10793   0.11154   0.11449   0.11619

 Mulliken charges:
               1
     1  Mg   0.835793
     2  C    0.132598
     3  C   -0.206240
     4  C   -0.207653
     5  C   -0.117277
     6  N   -0.655493
     7  C    0.275394
     8  C   -0.162982
     9  C   -0.164679
    10  C    0.371838
    11  C   -0.303003
    12  C   -0.177387
    13  C   -0.255367
    14  C    0.591044
    15  O   -0.472398
    16  O   -0.490327
    17  N   -0.685591
    18  C    0.288126
    19  C   -0.065376
    20  C    0.049704
    21  C    0.271666
    22  C   -0.348493
    23  C   -0.062147
    24  C   -0.259007
    25  N   -0.692275
    26  C    0.321818
    27  C    0.058891
    28  C    0.020587
    29  C    0.292049
    30  C   -0.366763
    31  C   -0.244574
    32  C   -0.299137
    33  N   -0.708974
    34  C    0.171267
    35  C    0.051284
    36  C   -0.045923
    37  C    0.337984
    38  C   -0.378939
    39  C    0.383470
    40  O   -0.449096
    41  C   -0.368945
    42  C    0.637691
    43  O   -0.491735
    44  O   -0.462881
    45  C   -0.075694
    46  C    0.017382
    47  C   -0.127531
    48  C    0.118583
    49  C   -0.343298
    50  C   -0.210623
    51  C   -0.180698
    52  C   -0.172158
    53  C   -0.054642
    54  C   -0.301705
    55  C   -0.173089
    56  C   -0.159220
    57  C   -0.175338
    58  C   -0.068757
    59  C   -0.306643
    60  C   -0.155082
    61  C   -0.150604
    62  C   -0.172049
    63  C   -0.047310
    64  C   -0.320998
    65  C   -0.299888
    66  H    0.097179
    67  H    0.081813
    68  H    0.060858
    69  H    0.143425
    70  H    0.104324
    71  H    0.117722
    72  H    0.108374
    73  H    0.103854
    74  H    0.119582
    75  H    0.126187
    76  H    0.132568
    77  H    0.099393
    78  H    0.133019
    79  H    0.131626
    80  H    0.125540
    81  H    0.101331
    82  H    0.108470
    83  H    0.115189
    84  H    0.114416
    85  H    0.106936
    86  H    0.127088
    87  H    0.075906
    88  H    0.091019
    89  H    0.102668
    90  H    0.104455
    91  H    0.105988
    92  H    0.140159
    93  H    0.137998
    94  H    0.122169
    95  H    0.156372
    96  H    0.122836
    97  H    0.129064
    98  H    0.133979
    99  H    0.143201
   100  H    0.117729
   101  H    0.107215
   102  H    0.082135
   103  H    0.108898
   104  H    0.135153
   105  H    0.106586
   106  H    0.082760
   107  H    0.085415
   108  H    0.088241
   109  H    0.074625
   110  H    0.100956
   111  H    0.082467
   112  H    0.088475
   113  H    0.106699
   114  H    0.096072
   115  H    0.063762
   116  H    0.094567
   117  H    0.074702
   118  H    0.104794
   119  H    0.061018
   120  H    0.098278
   121  H    0.089528
   122  H    0.104705
   123  H    0.109856
   124  H    0.090033
   125  H    0.078622
   126  H    0.055009
   127  H    0.051693
   128  H    0.081410
   129  H    0.100166
   130  H    0.100063
   131  H    0.098077
   132  H    0.103794
   133  H    0.098290
   134  H    0.084233
   135  H    0.083845
   136  H    0.084748
   137  H    0.111491
 Sum of Mulliken charges =   0.00000

 Dipole moment (field-independent basis, Debye):
    X=              1.2667    Y=              5.2791    Z=              0.5553  Tot=              5.4573
 Quadrupole moment (field-independent basis, Debye-Ang):
   XX=           -353.1158   YY=           -388.9949   ZZ=           -399.3942
   XY=            -23.6949   XZ=              4.4345   YZ=             -1.0314

 Normal termination of Gaussian 09 at Wed Jul  3 08:06:32 2019.
