 Gaussian 09, Revision D.01,
 Gaussian 09:  ES64L-G09RevD.01 24-Apr-2013

 -------------------------------------
 # td=(NStates=1) CAM-B3LYP/6-31G(d,p)
 -------------------------------------

 --
 TD
 --
 Symbolic Z-matrix:
 Charge =  0 Multiplicity = 1

                         Standard orientation:
 ---------------------------------------------------------------------
 Center     Atomic      Atomic             Coordinates (Angstroms)
 Number     Number       Type             X           Y           Z
 ---------------------------------------------------------------------
      1         12           0       -7.200216    0.562653    0.028384
      2          6           0       -4.748917   -1.999129    0.463966
      3          6           0       -4.836763    2.772510    1.167166
      4          6           0       -9.392688    3.022179   -0.403823
      5          6           0       -9.461243   -1.768335   -0.844941
      6          7           0       -5.132055    0.500400    0.731709
      7          6           0       -4.330565   -0.695667    0.812297
      8          6           0       -2.892698   -0.373095    1.239304
      9          6           0       -3.110273    1.078664    1.850471
     10          6           0       -4.415008    1.481057    1.217678
     11          6           0       -3.121710    1.239202    3.400635
     12          6           0       -1.786892   -0.482448    0.103921
     13          6           0       -0.422953   -0.255041    0.594483
     14          6           0        0.559018   -0.550639   -0.502737
     15          8           0        0.319246   -0.890872   -1.692287
     16          8           0        1.859354   -0.378383   -0.172424
     17          7           0       -7.193814    2.627716    0.306823
     18          6           0       -6.049623    3.311233    0.721925
     19          6           0       -6.391257    4.747939    0.742621
     20          6           0       -7.674259    4.781101    0.286929
     21          6           0       -8.143165    3.514509    0.035107
     22          6           0       -5.438829    5.809872    1.112529
     23          6           0       -8.526431    5.966934    0.156766
     24          6           0       -8.423685    7.139250    0.891300
     25          7           0       -9.131535    0.666356   -0.577075
     26          6           0       -9.862395    1.751034   -0.771489
     27          6           0      -11.235191    1.436882   -1.239773
     28          6           0      -11.270040    0.047761   -1.290138
     29          6           0       -9.877274   -0.383352   -0.892482
     30          6           0      -12.351548    2.472430   -1.605086
     31          6           0      -12.394752   -0.843713   -1.908194
     32          6           0      -12.118174   -1.209501   -3.445971
     33          7           0       -7.131381   -1.443390   -0.188850
     34          6           0       -8.174476   -2.266912   -0.508792
     35          6           0       -7.734871   -3.627354   -0.413657
     36          6           0       -6.373712   -3.459867   -0.151368
     37          6           0       -6.106080   -2.090368    0.076967
     38          6           0       -8.516986   -4.862445   -0.762215
     39          6           0       -5.248529   -4.274117    0.144318
     40          8           0       -5.163017   -5.491945    0.186083
     41          6           0       -4.051020   -3.378262    0.554851
     42          6           0       -3.609057   -3.621441    1.935478
     43          8           0       -3.782624   -3.034648    2.991979
     44          8           0       -2.576921   -4.568736    1.927532
     45          6           0       -2.132108   -5.112217    3.130502
     46          6           0        2.759625   -0.584514   -1.193204
     47          6           0        4.083873   -0.456925   -0.641127
     48          6           0        5.076034    0.330115   -0.957936
     49          6           0        5.034325    1.156736   -2.223508
     50          6           0        6.348676    0.510352   -0.227838
     51          6           0        7.529201   -0.323105   -0.884427
     52          6           0        8.852035   -0.162008   -0.013380
     53          6           0       10.135183   -0.686096   -0.802723
     54          6           0        9.987637   -2.238490   -1.175754
     55          6           0       11.460238   -0.347690   -0.033387
     56          6           0       12.752381   -0.492491   -0.747452
     57          6           0       13.893304    0.004743    0.008853
     58          6           0       15.302418   -0.127874   -0.630154
     59          6           0       15.556933   -1.681253   -1.033384
     60          6           0       16.346810    0.350422    0.354598
     61          6           0       17.811907    0.704077   -0.295174
     62          6           0       18.690181    1.203529    0.723065
     63          6           0       20.211938    1.371572    0.256824
     64          6           0       20.276563    2.147355   -1.041653
     65          6           0       21.134902    1.943955    1.263101
     66          1           0       -4.357857    3.614671    1.467954
     67          1           0      -10.273246    3.827457   -0.534035
     68          1           0      -10.132007   -2.643922   -1.231380
     69          1           0       -2.735648   -0.944572    2.027016
     70          1           0       -2.196177    1.740191    1.236967
     71          1           0       -2.147737    0.965420    3.909053
     72          1           0       -3.390947    2.321410    3.528043
     73          1           0       -3.646477    0.536001    3.850075
     74          1           0       -1.810190   -1.467942   -0.471321
     75          1           0       -1.987630    0.379786   -0.780569
     76          1           0       -0.247393    0.683452    1.138921
     77          1           0       -0.093075   -1.000358    1.544754
     78          1           0       -6.031005    6.951935    0.960552
     79          1           0       -5.391253    5.792146    2.189770
     80          1           0       -4.439174    5.694120    0.735036
     81          1           0       -9.498509    5.770528   -0.485913
     82          1           0       -9.081814    7.939953    0.747740
     83          1           0       -7.685179    7.224968    1.682903
     84          1           0      -11.968329    3.256611   -2.253237
     85          1           0      -13.174077    1.928418   -1.740223
     86          1           0      -12.404753    2.887164   -0.645660
     87          1           0      -12.425508   -1.810133   -1.296139
     88          1           0      -13.294626   -0.332510   -1.695774
     89          1           0      -12.762732   -2.196437   -3.669677
     90          1           0      -12.240547   -0.491677   -3.999333
     91          1           0      -11.132082   -1.549882   -3.668720
     92          1           0       -8.661307   -5.077910   -1.743154
     93          1           0       -8.059268   -5.802776   -0.602333
     94          1           0       -9.544242   -4.889620   -0.072698
     95          1           0       -3.138389   -3.531005    0.004109
     96          1           0       -1.530691   -4.367813    3.663094
     97          1           0       -2.941834   -5.359907    3.888744
     98          1           0       -1.636706   -5.945172    2.934518
     99          1           0        2.598904   -1.576820   -1.572311
    100          1           0        2.681328   -0.085016   -1.959837
    101          1           0        4.423013   -1.084995    0.290784
    102          1           0        4.009559    0.954669   -2.566051
    103          1           0        5.230044    2.230162   -1.916392
    104          1           0        5.838047    0.933393   -3.007146
    105          1           0        6.467460    1.716944   -0.179347
    106          1           0        6.364031    0.116853    0.851268
    107          1           0        7.278266   -1.408201   -1.069863
    108          1           0        7.830136    0.212642   -1.927305
    109          1           0        9.065245    0.726507    0.283645
    110          1           0        8.745455   -0.582024    0.945017
    111          1           0       10.103123   -0.171208   -1.712263
    112          1           0        9.122783   -2.480118   -1.721900
    113          1           0       10.948761   -2.582700   -1.452312
    114          1           0        9.598800   -2.630382   -0.077505
    115          1           0       11.365796    0.802752    0.247974
    116          1           0       11.506278   -0.990034    0.849487
    117          1           0       12.794263   -1.557618   -1.146814
    118          1           0       12.652963    0.017461   -1.504335
    119          1           0       13.866010    1.015291    0.223099
    120          1           0       13.911949   -0.632599    0.830701
    121          1           0       15.246601    0.379192   -1.437374
    122          1           0       15.591076   -2.226703   -0.038455
    123          1           0       14.772097   -2.037282   -1.533027
    124          1           0       16.582679   -1.947142   -1.546332
    125          1           0       15.788382    1.519757    0.535297
    126          1           0       16.518970   -0.229457    1.328495
    127          1           0       18.159242   -0.109254   -0.721268
    128          1           0       17.720546    1.536393   -1.210358
    129          1           0       18.469656    2.293476    1.031680
    130          1           0       18.563330    0.557585    1.681675
    131          1           0       20.580707    0.303007    0.037338
    132          1           0       20.055496    3.117717   -1.150038
    133          1           0       21.373140    2.245098   -1.268862
    134          1           0       19.713752    1.451271   -1.865266
    135          1           0       20.958965    1.170616    2.164130
    136          1           0       22.243632    2.031207    1.020778
    137          1           0       21.115658    2.957856    1.844657
 ---------------------------------------------------------------------

 SCF Done:  E(RCAM-B3LYP) =  -2932.52317846     A.U. after   18 cycles

 Excitation energies and oscillator strengths:

 Excited State   1:      Singlet-A      1.9926 eV  622.22 nm  f=0.2774  <S**2>=0.000
     240 -> 243        0.22234
     241 -> 242        0.66549
 This state for optimization and/or second-order correction.
 Total Energy, E(TD-HF/TD-KS) =  -2932.44995111
 Copying the excited state density for this state as the 1-particle RhoCI density.

 The electronic state is 1-A.
 Alpha  occ. eigenvalues --  -46.85187 -19.26402 -19.24740 -19.21423 -19.20933
 Alpha  occ. eigenvalues --  -19.19645 -14.42201 -14.40008 -14.39650 -14.38686
 Alpha  occ. eigenvalues --  -10.40036 -10.39684 -10.34420 -10.31237 -10.30482
 Alpha  occ. eigenvalues --  -10.29886 -10.29843 -10.29589 -10.29570 -10.29479
 Alpha  occ. eigenvalues --  -10.29455 -10.29228 -10.29173 -10.29123 -10.29107
 Alpha  occ. eigenvalues --  -10.29008 -10.28668 -10.28333 -10.28316 -10.28250
 Alpha  occ. eigenvalues --  -10.28026 -10.27922 -10.27850 -10.27814 -10.27707
 Alpha  occ. eigenvalues --  -10.27513 -10.27449 -10.27201 -10.27036 -10.26891
 Alpha  occ. eigenvalues --  -10.26871 -10.26864 -10.26183 -10.26173 -10.26081
 Alpha  occ. eigenvalues --  -10.26069 -10.26054 -10.26030 -10.25885 -10.25859
 Alpha  occ. eigenvalues --  -10.25646 -10.25530 -10.25513 -10.25222 -10.25110
 Alpha  occ. eigenvalues --  -10.24937 -10.24925 -10.24698 -10.24449 -10.24449
 Alpha  occ. eigenvalues --  -10.24380 -10.24251 -10.23667 -10.23087 -10.22684
 Alpha  occ. eigenvalues --   -3.14173  -1.88890  -1.88421  -1.88332  -1.19332
 Alpha  occ. eigenvalues --   -1.17239  -1.10482  -1.08437  -1.07652  -1.07406
 Alpha  occ. eigenvalues --   -1.05305  -1.04392  -1.03510  -0.93408  -0.91725
 Alpha  occ. eigenvalues --   -0.91447  -0.90310  -0.89612  -0.89214  -0.88706
 Alpha  occ. eigenvalues --   -0.88044  -0.88022  -0.87766  -0.86945  -0.86645
 Alpha  occ. eigenvalues --   -0.85407  -0.84927  -0.84094  -0.83610  -0.82527
 Alpha  occ. eigenvalues --   -0.82161  -0.81248  -0.81019  -0.79828  -0.78792
 Alpha  occ. eigenvalues --   -0.78494  -0.78031  -0.77041  -0.76286  -0.75634
 Alpha  occ. eigenvalues --   -0.75307  -0.75077  -0.74335  -0.73667  -0.73097
 Alpha  occ. eigenvalues --   -0.72387  -0.71522  -0.70798  -0.69207  -0.68900
 Alpha  occ. eigenvalues --   -0.67207  -0.66778  -0.66121  -0.65642  -0.64797
 Alpha  occ. eigenvalues --   -0.64663  -0.64474  -0.64419  -0.63281  -0.62458
 Alpha  occ. eigenvalues --   -0.62437  -0.61144  -0.60815  -0.60015  -0.59332
 Alpha  occ. eigenvalues --   -0.59041  -0.58297  -0.58026  -0.57813  -0.57299
 Alpha  occ. eigenvalues --   -0.56732  -0.55894  -0.55698  -0.55550  -0.54510
 Alpha  occ. eigenvalues --   -0.54289  -0.54118  -0.53928  -0.53142  -0.52707
 Alpha  occ. eigenvalues --   -0.52541  -0.52352  -0.52173  -0.52018  -0.51918
 Alpha  occ. eigenvalues --   -0.51784  -0.51652  -0.51582  -0.51137  -0.50962
 Alpha  occ. eigenvalues --   -0.50894  -0.50606  -0.50355  -0.50104  -0.49818
 Alpha  occ. eigenvalues --   -0.49591  -0.49509  -0.49372  -0.48817  -0.48528
 Alpha  occ. eigenvalues --   -0.48200  -0.48075  -0.47950  -0.47768  -0.47598
 Alpha  occ. eigenvalues --   -0.47453  -0.47283  -0.47117  -0.46835  -0.46583
 Alpha  occ. eigenvalues --   -0.46189  -0.45876  -0.45637  -0.45368  -0.45094
 Alpha  occ. eigenvalues --   -0.44893  -0.44782  -0.44644  -0.44457  -0.44292
 Alpha  occ. eigenvalues --   -0.44089  -0.43848  -0.43532  -0.43471  -0.43362
 Alpha  occ. eigenvalues --   -0.43132  -0.43088  -0.42884  -0.42720  -0.42662
 Alpha  occ. eigenvalues --   -0.42448  -0.42115  -0.41766  -0.41392  -0.41255
 Alpha  occ. eigenvalues --   -0.41186  -0.41035  -0.40869  -0.40762  -0.40611
 Alpha  occ. eigenvalues --   -0.39961  -0.39760  -0.39199  -0.39132  -0.38913
 Alpha  occ. eigenvalues --   -0.38871  -0.38606  -0.38442  -0.37544  -0.37417
 Alpha  occ. eigenvalues --   -0.37340  -0.37041  -0.37019  -0.36916  -0.36654
 Alpha  occ. eigenvalues --   -0.36122  -0.35784  -0.35604  -0.35457  -0.35284
 Alpha  occ. eigenvalues --   -0.35231  -0.34758  -0.34596  -0.34106  -0.33670
 Alpha  occ. eigenvalues --   -0.33469  -0.33113  -0.32296  -0.31219  -0.30278
 Alpha  occ. eigenvalues --   -0.29748  -0.29477  -0.28988  -0.27133  -0.23409
 Alpha  occ. eigenvalues --   -0.21064
 Alpha virt. eigenvalues --   -0.06759  -0.02700   0.01621   0.03746   0.04387
 Alpha virt. eigenvalues --    0.04966   0.05458   0.06248   0.06975   0.07258
 Alpha virt. eigenvalues --    0.07766   0.10165   0.11105   0.11387   0.11499

 Mulliken charges:
               1
     1  Mg   0.826494
     2  C    0.019784
     3  C   -0.167981
     4  C   -0.217528
     5  C   -0.178325
     6  N   -0.618760
     7  C    0.248780
     8  C   -0.131017
     9  C   -0.164606
    10  C    0.401096
    11  C   -0.302650
    12  C   -0.163723
    13  C   -0.258495
    14  C    0.624588
    15  O   -0.504169
    16  O   -0.462682
    17  N   -0.724330
    18  C    0.264028
    19  C    0.038357
    20  C    0.011510
    21  C    0.358324
    22  C   -0.388009
    23  C   -0.079565
    24  C   -0.257290
    25  N   -0.672052
    26  C    0.308326
    27  C   -0.020430
    28  C   -0.021881
    29  C    0.287238
    30  C   -0.337893
    31  C   -0.229371
    32  C   -0.293194
    33  N   -0.763064
    34  C    0.252140
    35  C    0.045483
    36  C   -0.043614
    37  C    0.412707
    38  C   -0.381483
    39  C    0.355869
    40  O   -0.473322
    41  C   -0.298109
    42  C    0.635942
    43  O   -0.466647
    44  O   -0.476125
    45  C   -0.063137
    46  C    0.067719
    47  C   -0.147401
    48  C    0.127207
    49  C   -0.347282
    50  C   -0.218807
    51  C   -0.173112
    52  C   -0.173356
    53  C   -0.071607
    54  C   -0.311720
    55  C   -0.182942
    56  C   -0.162112
    57  C   -0.167321
    58  C   -0.054141
    59  C   -0.322000
    60  C   -0.157216
    61  C   -0.163978
    62  C   -0.150980
    63  C   -0.052080
    64  C   -0.298794
    65  C   -0.305927
    66  H    0.047430
    67  H    0.067207
    68  H    0.106337
    69  H    0.123143
    70  H    0.069149
    71  H    0.101153
    72  H    0.118850
    73  H    0.144738
    74  H    0.132024
    75  H    0.098905
    76  H    0.153070
    77  H    0.117256
    78  H    0.093874
    79  H    0.135415
    80  H    0.132701
    81  H    0.083210
    82  H    0.108335
    83  H    0.105207
    84  H    0.133980
    85  H    0.118134
    86  H    0.139073
    87  H    0.100136
    88  H    0.109608
    89  H    0.084310
    90  H    0.124791
    91  H    0.118292
    92  H    0.139793
    93  H    0.149508
    94  H    0.095512
    95  H    0.180259
    96  H    0.107194
    97  H    0.111838
    98  H    0.127603
    99  H    0.117575
   100  H    0.105380
   101  H    0.066194
   102  H    0.101053
   103  H    0.101659
   104  H    0.117332
   105  H    0.084100
   106  H    0.091066
   107  H    0.108591
   108  H    0.075385
   109  H    0.098456
   110  H    0.089755
   111  H    0.087545
   112  H    0.116658
   113  H    0.109418
   114  H    0.069685
   115  H    0.066673
   116  H    0.089788
   117  H    0.080459
   118  H    0.097768
   119  H    0.093549
   120  H    0.094150
   121  H    0.094599
   122  H    0.086707
   123  H    0.113038
   124  H    0.084712
   125  H    0.039208
   126  H    0.093509
   127  H    0.110262
   128  H    0.073134
   129  H    0.088129
   130  H    0.072929
   131  H    0.087781
   132  H    0.116530
   133  H    0.085795
   134  H    0.078712
   135  H    0.076758
   136  H    0.098770
   137  H    0.093794
 Sum of Mulliken charges =   0.00000

 Dipole moment (field-independent basis, Debye):
    X=              0.0013    Y=              4.0512    Z=              0.3442  Tot=              4.0658
 Quadrupole moment (field-independent basis, Debye-Ang):
   XX=           -342.0554   YY=           -398.4077   ZZ=           -396.0928
   XY=            -12.0900   XZ=             10.1357   YZ=              2.0784

 Normal termination of Gaussian 09 at Wed Jul  3 14:08:36 2019.
