 Gaussian 09, Revision D.01,
 Gaussian 09:  ES64L-G09RevD.01 24-Apr-2013

 -------------------------------------
 # td=(NStates=1) CAM-B3LYP/6-31G(d,p)
 -------------------------------------

 --
 TD
 --
 Symbolic Z-matrix:
 Charge =  0 Multiplicity = 1

                         Standard orientation:
 ---------------------------------------------------------------------
 Center     Atomic      Atomic             Coordinates (Angstroms)
 Number     Number       Type             X           Y           Z
 ---------------------------------------------------------------------
      1         12           0       -7.104188    0.603917    0.109567
      2          6           0       -4.885122   -1.990309    0.570948
      3          6           0       -4.761359    2.785597    1.197254
      4          6           0       -9.383093    3.169640   -0.445455
      5          6           0       -9.514129   -1.678538   -0.736814
      6          7           0       -5.154460    0.446139    0.744766
      7          6           0       -4.358206   -0.746714    0.866302
      8          6           0       -2.882846   -0.479187    1.072140
      9          6           0       -2.997418    0.985817    1.624061
     10          6           0       -4.370305    1.429695    1.216320
     11          6           0       -2.899864    1.193158    3.123482
     12          6           0       -1.987957   -0.797241   -0.056240
     13          6           0       -0.598780   -0.491298    0.442687
     14          6           0        0.413750   -0.648289   -0.686040
     15          8           0        0.247421   -1.341918   -1.750693
     16          8           0        1.658802   -0.475877   -0.306107
     17          7           0       -7.089697    2.569970    0.421793
     18          6           0       -6.054477    3.335330    0.922825
     19          6           0       -6.428490    4.705393    0.854339
     20          6           0       -7.647201    4.799268    0.440654
     21          6           0       -8.150446    3.451817    0.130037
     22          6           0       -5.473366    5.738486    1.274164
     23          6           0       -8.561238    6.030122    0.413144
     24          6           0       -8.386213    7.221428    0.891628
     25          7           0       -9.030089    0.685819   -0.599391
     26          6           0       -9.824013    1.873328   -0.736091
     27          6           0      -11.109887    1.497519   -1.255256
     28          6           0      -11.211578    0.152284   -1.339181
     29          6           0       -9.921143   -0.410622   -0.921055
     30          6           0      -12.127453    2.590353   -1.498303
     31          6           0      -12.420868   -0.662447   -1.817428
     32          6           0      -12.267623   -0.908992   -3.310745
     33          7           0       -7.254869   -1.319188   -0.098907
     34          6           0       -8.317040   -2.182944   -0.510515
     35          6           0       -7.847729   -3.577756   -0.552332
     36          6           0       -6.574096   -3.567120   -0.095662
     37          6           0       -6.272144   -2.168552    0.137877
     38          6           0       -8.746936   -4.771122   -0.886405
     39          6           0       -5.373853   -4.410581    0.202283
     40          8           0       -5.195398   -5.542987    0.101729
     41          6           0       -4.241894   -3.378130    0.646238
     42          6           0       -3.647407   -3.720202    2.007851
     43          8           0       -3.890543   -3.132402    3.031154
     44          8           0       -2.682128   -4.735404    1.904078
     45          6           0       -2.375976   -5.326381    3.121171
     46          6           0        2.803467   -0.562661   -1.276997
     47          6           0        4.131220   -0.312121   -0.676620
     48          6           0        5.165371    0.442251   -1.128388
     49          6           0        5.186437    1.176269   -2.402901
     50          6           0        6.421964    0.636009   -0.291987
     51          6           0        7.692919   -0.117238   -1.028946
     52          6           0        8.927034   -0.116043   -0.098246
     53          6           0       10.210701   -0.482108   -0.947158
     54          6           0       10.197051   -1.978841   -1.525862
     55          6           0       11.405378   -0.197855   -0.010080
     56          6           0       12.823800   -0.480924   -0.598008
     57          6           0       13.981960   -0.066693    0.285927
     58          6           0       15.366129   -0.205852   -0.417915
     59          6           0       15.645567   -1.714087   -0.732492
     60          6           0       16.387460    0.515319    0.421822
     61          6           0       17.784397    0.569974   -0.198579
     62          6           0       18.868818    1.224324    0.731341
     63          6           0       20.207077    1.384733    0.254958
     64          6           0       20.412778    2.248491   -0.983741
     65          6           0       21.236144    1.680500    1.430141
     66          1           0       -3.826499    3.364942    1.330476
     67          1           0       -9.992311    4.157729   -0.471653
     68          1           0      -10.331931   -2.278805   -0.982893
     69          1           0       -2.819248   -1.035963    1.997549
     70          1           0       -2.284052    1.728875    0.943193
     71          1           0       -1.919319    0.761053    3.515521
     72          1           0       -3.100446    2.249293    3.330809
     73          1           0       -3.545946    0.582908    3.771687
     74          1           0       -1.926864   -1.855945   -0.687293
     75          1           0       -2.181095   -0.015722   -0.848021
     76          1           0       -0.540125    0.686465    0.764252
     77          1           0       -0.207457   -1.183966    1.275705
     78          1           0       -5.876601    6.878462    1.137664
     79          1           0       -5.446836    5.545207    2.424796
     80          1           0       -4.399483    5.839547    0.732176
     81          1           0       -9.542221    5.870001   -0.154457
     82          1           0       -9.298257    7.899888    0.707410
     83          1           0       -7.640898    7.551691    1.731803
     84          1           0      -11.764579    3.461200   -2.083824
     85          1           0      -13.047276    2.204981   -2.115946
     86          1           0      -12.252629    2.978707   -0.382869
     87          1           0      -12.358214   -1.577901   -1.295601
     88          1           0      -13.283456   -0.176041   -1.538817
     89          1           0      -12.979438   -1.672975   -3.726189
     90          1           0      -12.468979   -0.176337   -4.051423
     91          1           0      -11.437130   -1.437410   -3.631500
     92          1           0       -9.116744   -4.778714   -2.093800
     93          1           0       -8.249709   -5.813286   -0.784420
     94          1           0       -9.558648   -4.675282   -0.152559
     95          1           0       -3.322273   -3.531491   -0.055589
     96          1           0       -1.768313   -4.617827    3.841029
     97          1           0       -3.083245   -5.713894    3.859274
     98          1           0       -1.836026   -6.064664    2.689288
     99          1           0        2.917402   -1.513532   -1.465070
    100          1           0        2.470825    0.239663   -1.988824
    101          1           0        4.476742   -1.088467    0.135347
    102          1           0        4.237368    1.568345   -2.979968
    103          1           0        5.851592    2.100703   -2.762999
    104          1           0        5.726423    0.283180   -3.204018
    105          1           0        6.741817    1.658914   -0.105372
    106          1           0        6.401644    0.168490    0.739407
    107          1           0        7.451098   -0.970712   -1.420424
    108          1           0        7.952078    0.396258   -1.860953
    109          1           0        9.024154    0.858824    0.297051
    110          1           0        8.987210   -0.924583    0.676648
    111          1           0       10.386329    0.271055   -1.878235
    112          1           0        9.331670   -2.165650   -2.051510
    113          1           0       10.981483   -1.975349   -2.313907
    114          1           0       10.034265   -2.538341   -0.699426
    115          1           0       11.368232    0.781874    0.196992
    116          1           0       11.269348   -0.702834    0.795233
    117          1           0       13.038000   -1.556806   -0.924188
    118          1           0       12.960259    0.164720   -1.467935
    119          1           0       13.849668    0.888725    0.657977
    120          1           0       14.069697   -0.797224    1.022480
    121          1           0       15.337312    0.283862   -1.500815
    122          1           0       15.770798   -2.438306    0.241287
    123          1           0       14.967281   -2.298988   -1.289421
    124          1           0       16.769967   -1.843813   -1.155083
    125          1           0       15.973873    1.328658    0.683737
    126          1           0       16.318669    0.024463    1.461350
    127          1           0       18.079804   -0.474661   -0.534820
    128          1           0       17.703759    1.117655   -1.145046
    129          1           0       18.540814    2.302220    0.886505
    130          1           0       18.800936    0.704208    1.699214
    131          1           0       20.275883    0.279287    0.000981
    132          1           0       20.170934    3.221395   -0.870776
    133          1           0       21.326129    2.085555   -1.270204
    134          1           0       19.595671    1.850661   -1.804038
    135          1           0       21.017671    0.998817    2.260768
    136          1           0       22.154049    1.627656    1.142881
    137          1           0       21.028574    2.714306    1.680540
 ---------------------------------------------------------------------

 SCF Done:  E(RCAM-B3LYP) =  -2932.58698791     A.U. after   17 cycles

 Excitation energies and oscillator strengths:

 Excited State   1:      Singlet-A      2.0489 eV  605.13 nm  f=0.2338  <S**2>=0.000
     240 -> 243       -0.23506
     241 -> 242        0.66136
 This state for optimization and/or second-order correction.
 Total Energy, E(TD-HF/TD-KS) =  -2932.51169324
 Copying the excited state density for this state as the 1-particle RhoCI density.

 The electronic state is 1-A.
 Alpha  occ. eigenvalues --  -46.82004 -19.26271 -19.25151 -19.21925 -19.21428
 Alpha  occ. eigenvalues --  -19.18897 -14.41314 -14.39542 -14.39041 -14.38623
 Alpha  occ. eigenvalues --  -10.39612 -10.38678 -10.35711 -10.31893 -10.30655
 Alpha  occ. eigenvalues --  -10.30317 -10.30191 -10.30146 -10.29967 -10.29478
 Alpha  occ. eigenvalues --  -10.29416 -10.29206 -10.29199 -10.29187 -10.28976
 Alpha  occ. eigenvalues --  -10.28533 -10.28491 -10.28274 -10.28245 -10.28235
 Alpha  occ. eigenvalues --  -10.28179 -10.27899 -10.27704 -10.27499 -10.27442
 Alpha  occ. eigenvalues --  -10.27248 -10.27187 -10.27133 -10.27000 -10.26928
 Alpha  occ. eigenvalues --  -10.26789 -10.26746 -10.26655 -10.26517 -10.26161
 Alpha  occ. eigenvalues --  -10.25797 -10.25725 -10.25664 -10.25659 -10.25624
 Alpha  occ. eigenvalues --  -10.25524 -10.25520 -10.25194 -10.25175 -10.25126
 Alpha  occ. eigenvalues --  -10.24742 -10.24535 -10.24054 -10.23981 -10.23811
 Alpha  occ. eigenvalues --  -10.23806 -10.23615 -10.23342 -10.23247 -10.22611
 Alpha  occ. eigenvalues --   -3.11484  -1.86157  -1.85747  -1.85685  -1.17976
 Alpha  occ. eigenvalues --   -1.16801  -1.15594  -1.10332  -1.04365  -1.04037
 Alpha  occ. eigenvalues --   -1.03177  -1.02457  -0.99318  -0.91744  -0.91386
 Alpha  occ. eigenvalues --   -0.90942  -0.90785  -0.89865  -0.89095  -0.88754
 Alpha  occ. eigenvalues --   -0.88683  -0.87737  -0.87584  -0.86929  -0.86257
 Alpha  occ. eigenvalues --   -0.85441  -0.84409  -0.83661  -0.83332  -0.82729
 Alpha  occ. eigenvalues --   -0.81723  -0.80992  -0.80361  -0.79673  -0.77935
 Alpha  occ. eigenvalues --   -0.77295  -0.77205  -0.76781  -0.76528  -0.75839
 Alpha  occ. eigenvalues --   -0.75628  -0.75224  -0.74090  -0.73549  -0.71964
 Alpha  occ. eigenvalues --   -0.71618  -0.71123  -0.70666  -0.69819  -0.68670
 Alpha  occ. eigenvalues --   -0.68103  -0.66087  -0.65396  -0.65207  -0.64489
 Alpha  occ. eigenvalues --   -0.63679  -0.63206  -0.62624  -0.62164  -0.61652
 Alpha  occ. eigenvalues --   -0.61248  -0.60044  -0.59886  -0.59549  -0.58887
 Alpha  occ. eigenvalues --   -0.58158  -0.57996  -0.57805  -0.57046  -0.56670
 Alpha  occ. eigenvalues --   -0.56091  -0.55524  -0.55020  -0.54950  -0.54493
 Alpha  occ. eigenvalues --   -0.54295  -0.54165  -0.53947  -0.53568  -0.53309
 Alpha  occ. eigenvalues --   -0.52829  -0.52572  -0.51886  -0.51670  -0.51499
 Alpha  occ. eigenvalues --   -0.51302  -0.51066  -0.50929  -0.50680  -0.50635
 Alpha  occ. eigenvalues --   -0.50348  -0.50074  -0.49979  -0.49901  -0.49691
 Alpha  occ. eigenvalues --   -0.49411  -0.49261  -0.48993  -0.48952  -0.48854
 Alpha  occ. eigenvalues --   -0.48588  -0.47988  -0.47906  -0.47184  -0.47137
 Alpha  occ. eigenvalues --   -0.46757  -0.46297  -0.46158  -0.45928  -0.45856
 Alpha  occ. eigenvalues --   -0.45633  -0.45450  -0.45247  -0.45092  -0.44916
 Alpha  occ. eigenvalues --   -0.44738  -0.44536  -0.44455  -0.44238  -0.44030
 Alpha  occ. eigenvalues --   -0.43890  -0.43796  -0.43544  -0.43413  -0.43348
 Alpha  occ. eigenvalues --   -0.43058  -0.42987  -0.42703  -0.42423  -0.42306
 Alpha  occ. eigenvalues --   -0.42231  -0.42182  -0.41740  -0.41562  -0.41472
 Alpha  occ. eigenvalues --   -0.41343  -0.41294  -0.41155  -0.40882  -0.40700
 Alpha  occ. eigenvalues --   -0.40408  -0.40110  -0.39944  -0.39468  -0.38933
 Alpha  occ. eigenvalues --   -0.38571  -0.38254  -0.38038  -0.37683  -0.37540
 Alpha  occ. eigenvalues --   -0.37408  -0.37274  -0.37036  -0.36915  -0.36639
 Alpha  occ. eigenvalues --   -0.36408  -0.36252  -0.35832  -0.35721  -0.35468
 Alpha  occ. eigenvalues --   -0.35215  -0.34356  -0.34094  -0.33748  -0.33514
 Alpha  occ. eigenvalues --   -0.33402  -0.31869  -0.31603  -0.30994  -0.30463
 Alpha  occ. eigenvalues --   -0.30186  -0.28802  -0.28426  -0.27197  -0.23271
 Alpha  occ. eigenvalues --   -0.20612
 Alpha virt. eigenvalues --   -0.05732  -0.02419   0.02358   0.03845   0.04568
 Alpha virt. eigenvalues --    0.04766   0.05601   0.06414   0.07403   0.07719
 Alpha virt. eigenvalues --    0.08220   0.10088   0.11273   0.11352   0.11664

 Mulliken charges:
               1
     1  Mg   0.799897
     2  C    0.064564
     3  C   -0.225423
     4  C   -0.168406
     5  C   -0.187387
     6  N   -0.614716
     7  C    0.223443
     8  C   -0.122531
     9  C   -0.171908
    10  C    0.367427
    11  C   -0.313721
    12  C   -0.163095
    13  C   -0.250120
    14  C    0.569094
    15  O   -0.510624
    16  O   -0.483306
    17  N   -0.712817
    18  C    0.314480
    19  C    0.041354
    20  C    0.021114
    21  C    0.293465
    22  C   -0.377382
    23  C   -0.036392
    24  C   -0.265323
    25  N   -0.678119
    26  C    0.287674
    27  C    0.032652
    28  C    0.003817
    29  C    0.254680
    30  C   -0.366037
    31  C   -0.212032
    32  C   -0.323241
    33  N   -0.718323
    34  C    0.270492
    35  C    0.014922
    36  C   -0.003709
    37  C    0.316815
    38  C   -0.364215
    39  C    0.387834
    40  O   -0.393167
    41  C   -0.341283
    42  C    0.622661
    43  O   -0.450277
    44  O   -0.459385
    45  C   -0.077071
    46  C    0.082936
    47  C   -0.185515
    48  C    0.162960
    49  C   -0.363114
    50  C   -0.241437
    51  C   -0.184680
    52  C   -0.176625
    53  C   -0.097605
    54  C   -0.311817
    55  C   -0.146843
    56  C   -0.196391
    57  C   -0.176867
    58  C   -0.058307
    59  C   -0.311806
    60  C   -0.142543
    61  C   -0.188359
    62  C   -0.151784
    63  C   -0.069292
    64  C   -0.294731
    65  C   -0.305784
    66  H    0.079823
    67  H    0.090143
    68  H    0.075730
    69  H    0.137737
    70  H    0.087891
    71  H    0.103814
    72  H    0.123757
    73  H    0.137199
    74  H    0.143218
    75  H    0.117006
    76  H    0.113460
    77  H    0.148645
    78  H    0.097518
    79  H    0.119296
    80  H    0.110254
    81  H    0.086398
    82  H    0.093628
    83  H    0.111026
    84  H    0.121054
    85  H    0.100092
    86  H    0.114740
    87  H    0.110550
    88  H    0.115016
    89  H    0.082102
    90  H    0.117079
    91  H    0.122201
    92  H    0.098990
    93  H    0.136634
    94  H    0.133625
    95  H    0.155329
    96  H    0.093856
    97  H    0.126590
    98  H    0.128680
    99  H    0.141013
   100  H    0.125101
   101  H    0.088703
   102  H    0.114933
   103  H    0.116334
   104  H    0.084183
   105  H    0.114202
   106  H    0.101283
   107  H    0.104728
   108  H    0.109346
   109  H    0.098794
   110  H    0.087724
   111  H    0.048095
   112  H    0.104664
   113  H    0.116891
   114  H    0.109634
   115  H    0.096052
   116  H    0.093033
   117  H    0.085620
   118  H    0.084957
   119  H    0.088046
   120  H    0.102664
   121  H    0.062061
   122  H    0.067547
   123  H    0.119813
   124  H    0.080942
   125  H    0.101345
   126  H    0.069745
   127  H    0.086639
   128  H    0.094442
   129  H    0.061504
   130  H    0.089844
   131  H    0.067349
   132  H    0.112034
   133  H    0.116742
   134  H    0.073451
   135  H    0.099846
   136  H    0.110769
   137  H    0.098077
 Sum of Mulliken charges =   0.00000

 Dipole moment (field-independent basis, Debye):
    X=              2.5756    Y=              4.1228    Z=              0.6624  Tot=              4.9061
 Quadrupole moment (field-independent basis, Debye-Ang):
   XX=           -349.7600   YY=           -390.1448   ZZ=           -395.7229
   XY=             -6.7008   XZ=              6.2006   YZ=             -3.9222

 Normal termination of Gaussian 09 at Thu Jul  4 03:55:13 2019.
