 Gaussian 16, Revision A.03,
 Gaussian 16:  ES64L-G16RevA.03 25-Dec-2016

 ----------------------------------------------------------------------
 # td=(NStates=1) iop(3/107=0140000000,3/108=0140000000) CAM-B3LYP/6-31
 G(d,p)
 ----------------------------------------------------------------------

 --
 TD
 --
 Symbolic Z-matrix:
 Charge =  0 Multiplicity = 1

                         Standard orientation:
 ---------------------------------------------------------------------
 Center     Atomic      Atomic             Coordinates (Angstroms)
 Number     Number       Type             X           Y           Z
 ---------------------------------------------------------------------
      1         12           0       -7.140270    0.633411    0.112214
      2          6           0       -4.882698   -1.996127    0.586795
      3          6           0       -4.812027    2.817803    1.037262
      4          6           0       -9.447169    3.049334   -0.395018
      5          6           0       -9.535448   -1.807496   -0.848084
      6          7           0       -5.108749    0.448767    0.727477
      7          6           0       -4.329186   -0.726849    0.868769
      8          6           0       -2.913116   -0.414811    1.250146
      9          6           0       -3.046653    1.092065    1.575530
     10          6           0       -4.414060    1.461658    1.125075
     11          6           0       -2.916032    1.375627    3.106817
     12          6           0       -1.935434   -0.617809    0.035848
     13          6           0       -0.438249   -0.408757    0.481756
     14          6           0        0.431698   -0.505311   -0.695475
     15          8           0        0.130514   -0.759848   -1.806043
     16          8           0        1.750307   -0.248822   -0.238803
     17          7           0       -7.053824    2.678606    0.345310
     18          6           0       -6.043408    3.478759    0.658051
     19          6           0       -6.384404    4.889530    0.687117
     20          6           0       -7.788124    4.873187    0.327302
     21          6           0       -8.136170    3.498884    0.070373
     22          6           0       -5.459030    6.006309    1.070866
     23          6           0       -8.627863    6.080544    0.223452
     24          6           0       -8.405961    7.261588    0.749323
     25          7           0       -9.130402    0.662142   -0.475230
     26          6           0       -9.907544    1.774908   -0.622593
     27          6           0      -11.179790    1.464738   -1.050147
     28          6           0      -11.241547    0.101012   -1.307303
     29          6           0      -10.004364   -0.417518   -0.889071
     30          6           0      -12.319490    2.361089   -1.410173
     31          6           0      -12.337806   -0.816401   -1.774787
     32          6           0      -12.248909   -1.350110   -3.216567
     33          7           0       -7.245678   -1.477425   -0.090394
     34          6           0       -8.299733   -2.253757   -0.362465
     35          6           0       -7.784525   -3.702430   -0.363633
     36          6           0       -6.466355   -3.544452    0.017121
     37          6           0       -6.204562   -2.236321    0.121297
     38          6           0       -8.628574   -4.891250   -0.630937
     39          6           0       -5.354345   -4.381533    0.220046
     40          8           0       -5.235490   -5.581078    0.179529
     41          6           0       -4.125146   -3.311061    0.550475
     42          6           0       -3.478035   -3.623661    1.882481
     43          8           0       -3.677337   -3.130247    2.920970
     44          8           0       -2.556013   -4.557215    1.590589
     45          6           0       -2.034111   -5.072616    2.895694
     46          6           0        2.805910   -0.705055   -1.234304
     47          6           0        4.182154   -0.504979   -0.600392
     48          6           0        5.223043    0.258111   -1.007666
     49          6           0        5.185571    1.166272   -2.172539
     50          6           0        6.463377    0.458016   -0.238199
     51          6           0        7.613978   -0.124639   -1.092463
     52          6           0        8.918719   -0.120570   -0.282793
     53          6           0       10.244055   -0.633932   -0.834020
     54          6           0       10.007416   -2.103147   -1.224865
     55          6           0       11.493616   -0.383248    0.010484
     56          6           0       12.760549   -0.664683   -0.546112
     57          6           0       14.032412   -0.214010    0.202362
     58          6           0       15.415481   -0.287737   -0.377763
     59          6           0       15.731320   -1.762629   -0.788417
     60          6           0       16.420200    0.314529    0.564402
     61          6           0       17.779209    0.556034   -0.129271
     62          6           0       18.712046    1.266202    0.723539
     63          6           0       20.186133    1.393176    0.162587
     64          6           0       20.107822    2.233801   -1.167495
     65          6           0       21.069046    2.106658    1.254043
     66          1           0       -4.100464    3.655168    1.245674
     67          1           0      -10.462608    3.622457   -0.455006
     68          1           0      -10.288173   -2.824168   -0.909771
     69          1           0       -2.536537   -0.907526    2.160786
     70          1           0       -2.158230    1.521990    1.155256
     71          1           0       -1.929362    1.341715    3.594760
     72          1           0       -3.438825    2.372829    3.349216
     73          1           0       -3.525680    0.549019    3.685187
     74          1           0       -1.964568   -1.679841   -0.194498
     75          1           0       -2.355007    0.001289   -0.855309
     76          1           0       -0.249578    0.638430    0.751588
     77          1           0       -0.103704   -1.154047    1.192637
     78          1           0       -5.482905    6.958615    0.525464
     79          1           0       -5.687198    6.178232    2.108079
     80          1           0       -4.345251    5.457497    0.982236
     81          1           0       -9.551119    5.838727   -0.224390
     82          1           0       -9.166834    7.957415    0.479286
     83          1           0       -7.389061    7.675386    1.232411
     84          1           0      -12.077349    3.260188   -2.153656
     85          1           0      -13.067741    1.741582   -1.983497
     86          1           0      -12.922314    2.857243   -0.482337
     87          1           0      -12.374126   -1.779326   -1.072166
     88          1           0      -13.204164   -0.322035   -1.540187
     89          1           0      -13.132683   -2.159048   -3.308065
     90          1           0      -12.378196   -0.494099   -3.877537
     91          1           0      -11.335233   -2.017410   -3.248044
     92          1           0       -8.934831   -4.769116   -1.740587
     93          1           0       -8.039970   -5.807415   -0.390024
     94          1           0       -9.631600   -4.936100   -0.056913
     95          1           0       -3.360939   -3.402755   -0.194764
     96          1           0       -1.286498   -4.493318    3.325125
     97          1           0       -2.776474   -5.429424    3.661678
     98          1           0       -1.591806   -6.041503    2.559693
     99          1           0        2.789326   -1.638204   -1.410751
    100          1           0        2.683408   -0.143652   -2.074594
    101          1           0        4.251292   -1.128120    0.316601
    102          1           0        4.069519    1.242634   -2.733661
    103          1           0        5.623455    2.298456   -1.947201
    104          1           0        5.678807    0.809171   -3.099681
    105          1           0        6.782419    1.433994    0.066165
    106          1           0        6.383314   -0.071699    0.711570
    107          1           0        7.252909   -1.069371   -1.857382
    108          1           0        7.784254    0.690830   -1.899088
    109          1           0        9.147048    0.932365   -0.002240
    110          1           0        8.855959   -0.648471    0.564909
    111          1           0       10.452638   -0.156692   -1.772473
    112          1           0        9.168757   -2.386339   -1.718111
    113          1           0       10.767726   -2.313955   -1.918936
    114          1           0       10.433761   -2.772386   -0.353318
    115          1           0       11.381888    0.730501    0.470286
    116          1           0       11.252964   -1.033306    0.886260
    117          1           0       12.843890   -1.721297   -0.821784
    118          1           0       12.628822   -0.038363   -1.608213
    119          1           0       13.742822    0.754207    0.449425
    120          1           0       14.029512   -0.764279    1.032560
    121          1           0       15.416110    0.438668   -1.326809
    122          1           0       15.559771   -2.234306    0.242683
    123          1           0       14.888435   -2.091605   -1.526394
    124          1           0       16.857312   -1.808660   -1.067715
    125          1           0       16.016425    1.301432    0.770874
    126          1           0       16.379170   -0.279884    1.290888
    127          1           0       18.195529   -0.569297   -0.222196
    128          1           0       17.802274    1.135670   -1.162903
    129          1           0       18.277697    2.202070    1.189764
    130          1           0       18.693454    0.638425    1.680476
    131          1           0       20.605696    0.458482    0.011331
    132          1           0       19.723489    3.278706   -0.801785
    133          1           0       21.264105    2.499738   -1.447206
    134          1           0       19.463495    1.633314   -2.038784
    135          1           0       21.203220    1.641504    2.185763
    136          1           0       22.118630    2.086150    1.022214
    137          1           0       20.614367    3.143437    1.351740
 ---------------------------------------------------------------------

 SCF Done:  E(RCAM-B3LYP) =  -2933.50287911     A.U. after   16 cycles

 Excitation energies and oscillator strengths:

 Excited State   1:      Singlet-A      2.0496 eV  604.93 nm  f=0.1894  <S**2>=0.000
     240 -> 242       -0.17411
     240 -> 243       -0.25111
     241 -> 242        0.62251
     241 -> 243       -0.11584
 This state for optimization and/or second-order correction.
 Total Energy, E(TD-HF/TD-DFT) =  -2933.42755891
 Copying the excited state density for this state as the 1-particle RhoCI density.

 The electronic state is 1-A.
 Alpha  occ. eigenvalues --  -46.81036 -19.22282 -19.20431 -19.17472 -19.16895
 Alpha  occ. eigenvalues --  -19.16775 -14.37795 -14.35060 -14.35030 -14.34601
 Alpha  occ. eigenvalues --  -10.33932 -10.33538 -10.30460 -10.26720 -10.26406
 Alpha  occ. eigenvalues --  -10.26133 -10.25653 -10.25306 -10.25040 -10.24996
 Alpha  occ. eigenvalues --  -10.24975 -10.24962 -10.24441 -10.23857 -10.23799
 Alpha  occ. eigenvalues --  -10.23686 -10.23683 -10.23598 -10.23445 -10.23427
 Alpha  occ. eigenvalues --  -10.23411 -10.23350 -10.23273 -10.23242 -10.23178
 Alpha  occ. eigenvalues --  -10.22952 -10.22880 -10.22847 -10.22670 -10.22522
 Alpha  occ. eigenvalues --  -10.22513 -10.22369 -10.22194 -10.22093 -10.22052
 Alpha  occ. eigenvalues --  -10.22044 -10.22019 -10.21933 -10.21883 -10.21719
 Alpha  occ. eigenvalues --  -10.21703 -10.21645 -10.21601 -10.21537 -10.21534
 Alpha  occ. eigenvalues --  -10.21424 -10.21365 -10.20936 -10.20666 -10.20122
 Alpha  occ. eigenvalues --  -10.20103 -10.20027 -10.19215 -10.19090 -10.19008
 Alpha  occ. eigenvalues --   -3.09353  -1.84317  -1.83814  -1.83748  -1.13994
 Alpha  occ. eigenvalues --   -1.11809  -1.06984  -1.05710  -1.03545  -1.01029
 Alpha  occ. eigenvalues --   -0.99917  -0.98425  -0.96767  -0.87807  -0.87007
 Alpha  occ. eigenvalues --   -0.86409  -0.85289  -0.85008  -0.83668  -0.83493
 Alpha  occ. eigenvalues --   -0.83150  -0.82784  -0.82214  -0.81627  -0.81216
 Alpha  occ. eigenvalues --   -0.80491  -0.79296  -0.78792  -0.78539  -0.77787
 Alpha  occ. eigenvalues --   -0.76938  -0.76238  -0.75556  -0.75216  -0.73633
 Alpha  occ. eigenvalues --   -0.72664  -0.71787  -0.71329  -0.71183  -0.71052
 Alpha  occ. eigenvalues --   -0.70607  -0.69939  -0.69562  -0.68684  -0.67701
 Alpha  occ. eigenvalues --   -0.66686  -0.66279  -0.64933  -0.64523  -0.64429
 Alpha  occ. eigenvalues --   -0.62681  -0.62114  -0.60786  -0.60445  -0.60323
 Alpha  occ. eigenvalues --   -0.59679  -0.58526  -0.58362  -0.57776  -0.57704
 Alpha  occ. eigenvalues --   -0.57146  -0.56731  -0.56245  -0.55848  -0.55292
 Alpha  occ. eigenvalues --   -0.54699  -0.53873  -0.53563  -0.53281  -0.53094
 Alpha  occ. eigenvalues --   -0.52395  -0.52203  -0.51919  -0.51398  -0.51037
 Alpha  occ. eigenvalues --   -0.50724  -0.50602  -0.50201  -0.49981  -0.49232
 Alpha  occ. eigenvalues --   -0.48989  -0.48886  -0.48820  -0.48329  -0.48305
 Alpha  occ. eigenvalues --   -0.47645  -0.47434  -0.47161  -0.47016  -0.46800
 Alpha  occ. eigenvalues --   -0.46751  -0.46478  -0.46406  -0.45976  -0.45822
 Alpha  occ. eigenvalues --   -0.45457  -0.45396  -0.44914  -0.44801  -0.44464
 Alpha  occ. eigenvalues --   -0.44152  -0.43939  -0.43623  -0.43410  -0.43379
 Alpha  occ. eigenvalues --   -0.43105  -0.42731  -0.42694  -0.42519  -0.42373
 Alpha  occ. eigenvalues --   -0.42266  -0.41813  -0.41771  -0.41735  -0.41500
 Alpha  occ. eigenvalues --   -0.41423  -0.41075  -0.40848  -0.40785  -0.40571
 Alpha  occ. eigenvalues --   -0.40442  -0.40259  -0.40047  -0.39905  -0.39828
 Alpha  occ. eigenvalues --   -0.39695  -0.39566  -0.39455  -0.39264  -0.39112
 Alpha  occ. eigenvalues --   -0.38986  -0.38754  -0.38678  -0.38397  -0.38181
 Alpha  occ. eigenvalues --   -0.38065  -0.37862  -0.37787  -0.37616  -0.37152
 Alpha  occ. eigenvalues --   -0.37033  -0.36647  -0.36467  -0.36456  -0.36022
 Alpha  occ. eigenvalues --   -0.35787  -0.35331  -0.35211  -0.35065  -0.34715
 Alpha  occ. eigenvalues --   -0.34618  -0.34135  -0.33810  -0.33622  -0.33541
 Alpha  occ. eigenvalues --   -0.33266  -0.33228  -0.32886  -0.32873  -0.32598
 Alpha  occ. eigenvalues --   -0.32494  -0.32299  -0.31700  -0.31193  -0.30911
 Alpha  occ. eigenvalues --   -0.30803  -0.30499  -0.29613  -0.28203  -0.27229
 Alpha  occ. eigenvalues --   -0.26937  -0.26902  -0.25438  -0.24404  -0.21310
 Alpha  occ. eigenvalues --   -0.19960
 Alpha virt. eigenvalues --   -0.07049  -0.04386  -0.00231   0.02700   0.03092
 Alpha virt. eigenvalues --    0.04324   0.04726   0.05026   0.05428   0.05601
 Alpha virt. eigenvalues --    0.06424   0.08320   0.09182   0.09539   0.09833

 Mulliken charges:
               1
     1  Mg   0.818107
     2  C    0.063752
     3  C   -0.215361
     4  C   -0.168016
     5  C   -0.169038
     6  N   -0.632529
     7  C    0.277172
     8  C   -0.159201
     9  C   -0.137054
    10  C    0.404806
    11  C   -0.325670
    12  C   -0.177937
    13  C   -0.263054
    14  C    0.605393
    15  O   -0.440022
    16  O   -0.523899
    17  N   -0.697453
    18  C    0.307863
    19  C    0.032831
    20  C   -0.014322
    21  C    0.288236
    22  C   -0.377974
    23  C   -0.039712
    24  C   -0.246536
    25  N   -0.705312
    26  C    0.343850
    27  C    0.032424
    28  C    0.060070
    29  C    0.235240
    30  C   -0.391775
    31  C   -0.243781
    32  C   -0.292887
    33  N   -0.710195
    34  C    0.260663
    35  C    0.011246
    36  C    0.084573
    37  C    0.315148
    38  C   -0.394717
    39  C    0.337728
    40  O   -0.451224
    41  C   -0.361605
    42  C    0.640801
    43  O   -0.446573
    44  O   -0.456363
    45  C   -0.115075
    46  C    0.044518
    47  C   -0.178643
    48  C    0.179226
    49  C   -0.364685
    50  C   -0.223824
    51  C   -0.180128
    52  C   -0.158868
    53  C   -0.071590
    54  C   -0.316750
    55  C   -0.157630
    56  C   -0.167962
    57  C   -0.154684
    58  C   -0.073056
    59  C   -0.305070
    60  C   -0.136642
    61  C   -0.162763
    62  C   -0.154250
    63  C   -0.053310
    64  C   -0.291019
    65  C   -0.316289
    66  H    0.052723
    67  H    0.088821
    68  H    0.076448
    69  H    0.123051
    70  H    0.104022
    71  H    0.110116
    72  H    0.106970
    73  H    0.106600
    74  H    0.116570
    75  H    0.120383
    76  H    0.144569
    77  H    0.148075
    78  H    0.132125
    79  H    0.144304
    80  H    0.089992
    81  H    0.084717
    82  H    0.099081
    83  H    0.089156
    84  H    0.108984
    85  H    0.112269
    86  H    0.102372
    87  H    0.087151
    88  H    0.106678
    89  H    0.085366
    90  H    0.119050
    91  H    0.116551
    92  H    0.127168
    93  H    0.147751
    94  H    0.123967
    95  H    0.155806
    96  H    0.136091
    97  H    0.139382
    98  H    0.120320
    99  H    0.130854
   100  H    0.116940
   101  H    0.084392
   102  H    0.079098
   103  H    0.099422
   104  H    0.130462
   105  H    0.115442
   106  H    0.099507
   107  H    0.073505
   108  H    0.092048
   109  H    0.079244
   110  H    0.102944
   111  H    0.077656
   112  H    0.113316
   113  H    0.106676
   114  H    0.078170
   115  H    0.063463
   116  H    0.078086
   117  H    0.093043
   118  H    0.051281
   119  H    0.091012
   120  H    0.093265
   121  H    0.053636
   122  H    0.085854
   123  H    0.108731
   124  H    0.102176
   125  H    0.092933
   126  H    0.091210
   127  H    0.067816
   128  H    0.078392
   129  H    0.078865
   130  H    0.071120
   131  H    0.095793
   132  H    0.097444
   133  H    0.082527
   134  H    0.097975
   135  H    0.109489
   136  H    0.096287
   137  H    0.094100
 Sum of Mulliken charges =  -0.00000

 Dipole moment (field-independent basis, Debye):
    X=              2.2970    Y=              2.3458    Z=              0.8528  Tot=              3.3920
 Quadrupole moment (field-independent basis, Debye-Ang):
   XX=           -338.0869   YY=           -394.4673   ZZ=           -400.0033
   XY=            -12.7917   XZ=             19.5058   YZ=             -3.3514

 Normal termination of Gaussian 16 at Sun Sep 15 21:37:41 2019.
