 Gaussian 16, Revision A.03,
 Gaussian 16:  ES64L-G16RevA.03 25-Dec-2016

 ----------------------------------------------------------------------
 # td=(NStates=1) iop(3/107=0140000000,3/108=0140000000) CAM-B3LYP/6-31
 G(d,p)
 ----------------------------------------------------------------------

 --
 TD
 --
 Symbolic Z-matrix:
 Charge =  0 Multiplicity = 1

                         Standard orientation:
 ---------------------------------------------------------------------
 Center     Atomic      Atomic             Coordinates (Angstroms)
 Number     Number       Type             X           Y           Z
 ---------------------------------------------------------------------
      1         12           0       -7.106679    0.540493    0.209545
      2          6           0       -4.808160   -1.904589    0.608648
      3          6           0       -4.735006    2.871245    1.241072
      4          6           0       -9.325764    3.063310   -0.382436
      5          6           0       -9.547083   -1.693460   -0.950950
      6          7           0       -5.085487    0.404551    0.799637
      7          6           0       -4.348486   -0.637073    0.844934
      8          6           0       -2.879871   -0.402391    1.388533
      9          6           0       -2.984139    1.063267    1.775496
     10          6           0       -4.386381    1.490609    1.193103
     11          6           0       -2.803246    1.288762    3.221857
     12          6           0       -1.887486   -0.592193    0.180981
     13          6           0       -0.363955   -0.484280    0.540720
     14          6           0        0.648381   -0.545245   -0.583860
     15          8           0        0.331197   -0.707418   -1.769432
     16          8           0        1.903957   -0.644414   -0.121191
     17          7           0       -7.062256    2.553719    0.376978
     18          6           0       -5.995448    3.432189    0.766924
     19          6           0       -6.313167    4.757645    0.770839
     20          6           0       -7.674000    4.830678    0.433528
     21          6           0       -8.079429    3.482255    0.123835
     22          6           0       -5.425517    5.848592    1.005517
     23          6           0       -8.545298    6.021678    0.254270
     24          6           0       -8.414993    7.205271    0.699585
     25          7           0       -9.107541    0.652808   -0.539429
     26          6           0       -9.773933    1.760420   -0.657447
     27          6           0      -11.192091    1.516483   -1.134570
     28          6           0      -11.216692    0.164614   -1.292099
     29          6           0       -9.823850   -0.345109   -0.971690
     30          6           0      -12.245336    2.458955   -1.434101
     31          6           0      -12.400922   -0.699120   -1.777908
     32          6           0      -12.358230   -1.086465   -3.254222
     33          7           0       -7.166477   -1.374029   -0.180140
     34          6           0       -8.214269   -2.243602   -0.563343
     35          6           0       -7.884029   -3.625060   -0.520196
     36          6           0       -6.473370   -3.585870   -0.060443
     37          6           0       -6.148406   -2.159521    0.119514
     38          6           0       -8.517053   -4.850564   -1.022112
     39          6           0       -5.360634   -4.386766    0.263305
     40          8           0       -5.178979   -5.567199    0.217856
     41          6           0       -4.115106   -3.359655    0.604091
     42          6           0       -3.603287   -3.740143    1.942461
     43          8           0       -3.806862   -3.168602    3.043815
     44          8           0       -2.886245   -4.825239    1.927216
     45          6           0       -2.348668   -5.154367    3.195033
     46          6           0        2.779095   -0.773934   -1.255202
     47          6           0        4.116386   -0.351690   -0.621426
     48          6           0        5.020937    0.356952   -1.072071
     49          6           0        4.867442    1.212128   -2.323605
     50          6           0        6.455627    0.440106   -0.410224
     51          6           0        7.662671   -0.175692   -1.195783
     52          6           0        8.880625   -0.140676   -0.367129
     53          6           0       10.157576   -0.647359   -1.013442
     54          6           0        9.974350   -2.039460   -1.552890
     55          6           0       11.378878   -0.398281   -0.200765
     56          6           0       12.739830   -0.568612   -0.825585
     57          6           0       13.919191   -0.262531    0.096306
     58          6           0       15.318422   -0.352914   -0.575129
     59          6           0       15.753629   -1.690406   -0.984147
     60          6           0       16.321728    0.163459    0.519485
     61          6           0       17.761148    0.688311   -0.021372
     62          6           0       18.757032    1.216881    0.921694
     63          6           0       20.120638    1.404409    0.409363
     64          6           0       20.226015    2.379779   -0.843024
     65          6           0       20.966141    2.106300    1.493036
     66          1           0       -3.877369    3.509206    1.577356
     67          1           0      -10.010030    3.817307   -0.675249
     68          1           0      -10.259090   -2.459914   -1.206786
     69          1           0       -2.794224   -0.892625    2.364900
     70          1           0       -2.226775    1.810294    1.337326
     71          1           0       -1.855078    0.972187    3.620429
     72          1           0       -2.884333    2.362853    3.338077
     73          1           0       -3.538302    0.718295    3.611491
     74          1           0       -2.235911   -1.497774   -0.486251
     75          1           0       -2.183814    0.081586   -0.597214
     76          1           0       -0.272650    0.623732    1.060230
     77          1           0       -0.079724   -1.338808    1.203474
     78          1           0       -5.553509    6.708322    0.299921
     79          1           0       -5.391093    6.061969    2.170995
     80          1           0       -4.349520    5.411867    0.770652
     81          1           0       -9.248624    5.846259   -0.546844
     82          1           0       -8.882964    8.245119    0.421048
     83          1           0       -7.913782    7.507016    1.749191
     84          1           0      -11.927599    3.217368   -2.233331
     85          1           0      -13.154616    1.859190   -1.640617
     86          1           0      -12.478685    3.161725   -0.531919
     87          1           0      -12.388691   -1.334216   -1.215443
     88          1           0      -13.384115   -0.195877   -1.456978
     89          1           0      -13.214301   -1.649670   -3.570520
     90          1           0      -12.211751   -0.131083   -3.852204
     91          1           0      -11.559510   -1.624751   -3.616844
     92          1           0       -8.726661   -4.476465   -2.098315
     93          1           0       -7.698121   -5.605330   -0.847240
     94          1           0       -9.439104   -4.854060   -0.418258
     95          1           0       -3.237248   -3.340471   -0.132070
     96          1           0       -1.760455   -4.388565    3.688117
     97          1           0       -3.329462   -5.526817    3.696787
     98          1           0       -1.504610   -5.888114    2.932507
     99          1           0        2.666107   -1.915622   -1.557879
    100          1           0        2.368176   -0.052931   -2.156924
    101          1           0        4.429897   -0.945110    0.177196
    102          1           0        3.870406    1.189037   -2.926332
    103          1           0        5.218830    2.201540   -2.194047
    104          1           0        5.878880    1.101511   -2.939496
    105          1           0        6.755749    1.520589   -0.214206
    106          1           0        6.235121    0.065840    0.661475
    107          1           0        7.517218   -1.171991   -1.567328
    108          1           0        7.819527    0.416495   -2.104226
    109          1           0        8.828718    0.943378   -0.070518
    110          1           0        8.918818   -0.416991    0.683017
    111          1           0       10.466243   -0.088165   -1.873492
    112          1           0        9.078197   -2.287495   -2.072763
    113          1           0       10.621187   -2.556664   -2.460113
    114          1           0       10.018235   -2.735226   -0.746717
    115          1           0       11.317328    0.641613    0.087323
    116          1           0       11.432321   -1.295372    0.586139
    117          1           0       12.642859   -1.507370   -1.258200
    118          1           0       12.966943    0.057440   -1.793849
    119          1           0       13.708577    0.699897    0.636862
    120          1           0       13.955247   -1.066397    0.877342
    121          1           0       15.174796    0.264756   -1.527994
    122          1           0       15.669775   -2.358642   -0.146177
    123          1           0       14.953283   -2.031708   -1.774236
    124          1           0       16.703443   -1.594279   -1.451970
    125          1           0       15.694258    1.126960    0.965377
    126          1           0       16.372987   -0.554820    1.241930
    127          1           0       18.072002   -0.184827   -0.681967
    128          1           0       17.494873    1.365310   -0.878672
    129          1           0       18.449480    2.163673    1.349799
    130          1           0       18.819706    0.615854    1.862194
    131          1           0       20.508712    0.474051    0.286397
    132          1           0       20.109275    3.479993   -0.393413
    133          1           0       21.210675    2.272189   -1.294938
    134          1           0       19.471881    2.057422   -1.517423
    135          1           0       20.764058    1.379916    2.365017
    136          1           0       22.116784    1.933561    1.137684
    137          1           0       20.804479    3.276927    1.386988
 ---------------------------------------------------------------------

 SCF Done:  E(RCAM-B3LYP) =  -2933.45133300     A.U. after   16 cycles

 Excitation energies and oscillator strengths:

 Excited State   1:      Singlet-A      2.0117 eV  616.33 nm  f=0.3017  <S**2>=0.000
     240 -> 242       -0.15298
     240 -> 243        0.22150
     241 -> 242        0.64877
 This state for optimization and/or second-order correction.
 Total Energy, E(TD-HF/TD-DFT) =  -2933.37740568
 Copying the excited state density for this state as the 1-particle RhoCI density.

 The electronic state is 1-A.
 Alpha  occ. eigenvalues --  -46.80433 -19.22727 -19.21517 -19.16469 -19.15422
 Alpha  occ. eigenvalues --  -19.14325 -14.37906 -14.35591 -14.35575 -14.35500
 Alpha  occ. eigenvalues --  -10.34481 -10.32956 -10.29693 -10.29084 -10.26922
 Alpha  occ. eigenvalues --  -10.26578 -10.25449 -10.25440 -10.25437 -10.25271
 Alpha  occ. eigenvalues --  -10.25070 -10.24994 -10.24792 -10.24633 -10.24259
 Alpha  occ. eigenvalues --  -10.24156 -10.23585 -10.23403 -10.23290 -10.23184
 Alpha  occ. eigenvalues --  -10.23175 -10.23115 -10.22910 -10.22875 -10.22858
 Alpha  occ. eigenvalues --  -10.22788 -10.22772 -10.22604 -10.22444 -10.22300
 Alpha  occ. eigenvalues --  -10.22227 -10.22160 -10.22079 -10.21960 -10.21872
 Alpha  occ. eigenvalues --  -10.21721 -10.21564 -10.21527 -10.21521 -10.21427
 Alpha  occ. eigenvalues --  -10.21249 -10.21167 -10.21067 -10.20886 -10.20848
 Alpha  occ. eigenvalues --  -10.20762 -10.20712 -10.20705 -10.20622 -10.20302
 Alpha  occ. eigenvalues --  -10.20089 -10.20003 -10.20000 -10.19485 -10.19483
 Alpha  occ. eigenvalues --   -3.09108  -1.84032  -1.83594  -1.83520  -1.14196
 Alpha  occ. eigenvalues --   -1.13918  -1.06624  -1.03575  -1.01434  -1.01121
 Alpha  occ. eigenvalues --   -1.00788  -0.98066  -0.97029  -0.86963  -0.85793
 Alpha  occ. eigenvalues --   -0.85567  -0.85331  -0.85037  -0.84677  -0.84400
 Alpha  occ. eigenvalues --   -0.84197  -0.83621  -0.83061  -0.82232  -0.81353
 Alpha  occ. eigenvalues --   -0.80880  -0.79632  -0.79150  -0.78417  -0.77752
 Alpha  occ. eigenvalues --   -0.76809  -0.76326  -0.75922  -0.75321  -0.73459
 Alpha  occ. eigenvalues --   -0.73224  -0.72401  -0.71425  -0.71235  -0.70993
 Alpha  occ. eigenvalues --   -0.70657  -0.70439  -0.69592  -0.68985  -0.68480
 Alpha  occ. eigenvalues --   -0.68110  -0.66277  -0.65860  -0.64757  -0.63632
 Alpha  occ. eigenvalues --   -0.62726  -0.62342  -0.61022  -0.60911  -0.60192
 Alpha  occ. eigenvalues --   -0.60097  -0.58950  -0.58717  -0.58428  -0.57799
 Alpha  occ. eigenvalues --   -0.57643  -0.56816  -0.55829  -0.55014  -0.54884
 Alpha  occ. eigenvalues --   -0.54538  -0.53736  -0.53534  -0.52808  -0.52486
 Alpha  occ. eigenvalues --   -0.52030  -0.51816  -0.51669  -0.51336  -0.51063
 Alpha  occ. eigenvalues --   -0.50524  -0.49995  -0.49963  -0.49842  -0.49585
 Alpha  occ. eigenvalues --   -0.48928  -0.48690  -0.48666  -0.48382  -0.48101
 Alpha  occ. eigenvalues --   -0.48049  -0.47827  -0.47575  -0.47180  -0.47017
 Alpha  occ. eigenvalues --   -0.46880  -0.46828  -0.46345  -0.46328  -0.45957
 Alpha  occ. eigenvalues --   -0.45663  -0.45471  -0.45240  -0.45176  -0.45009
 Alpha  occ. eigenvalues --   -0.44660  -0.44608  -0.44304  -0.44151  -0.43706
 Alpha  occ. eigenvalues --   -0.43637  -0.43369  -0.43264  -0.43110  -0.42775
 Alpha  occ. eigenvalues --   -0.42292  -0.42232  -0.42115  -0.41998  -0.41669
 Alpha  occ. eigenvalues --   -0.41509  -0.41454  -0.41094  -0.40946  -0.40622
 Alpha  occ. eigenvalues --   -0.40354  -0.40249  -0.40151  -0.40011  -0.39839
 Alpha  occ. eigenvalues --   -0.39712  -0.39450  -0.39376  -0.39222  -0.38999
 Alpha  occ. eigenvalues --   -0.38760  -0.38550  -0.38305  -0.38168  -0.37727
 Alpha  occ. eigenvalues --   -0.37577  -0.37395  -0.37372  -0.37242  -0.36844
 Alpha  occ. eigenvalues --   -0.36798  -0.36514  -0.36462  -0.36170  -0.35878
 Alpha  occ. eigenvalues --   -0.35661  -0.35405  -0.35248  -0.34720  -0.34500
 Alpha  occ. eigenvalues --   -0.34081  -0.33979  -0.33840  -0.33791  -0.33309
 Alpha  occ. eigenvalues --   -0.32968  -0.32755  -0.32510  -0.32267  -0.32058
 Alpha  occ. eigenvalues --   -0.31996  -0.31485  -0.31431  -0.30822  -0.30629
 Alpha  occ. eigenvalues --   -0.29729  -0.29558  -0.28478  -0.28413  -0.28240
 Alpha  occ. eigenvalues --   -0.26828  -0.26341  -0.26036  -0.25259  -0.21345
 Alpha  occ. eigenvalues --   -0.20372
 Alpha virt. eigenvalues --   -0.07836  -0.03121   0.00196   0.02796   0.03542
 Alpha virt. eigenvalues --    0.04005   0.04643   0.05170   0.05890   0.06354
 Alpha virt. eigenvalues --    0.06990   0.09040   0.09226   0.09364   0.09537

 Mulliken charges:
               1
     1  Mg   0.823678
     2  C    0.077146
     3  C   -0.207593
     4  C   -0.175958
     5  C   -0.172952
     6  N   -0.616399
     7  C    0.278085
     8  C   -0.135788
     9  C   -0.160735
    10  C    0.326627
    11  C   -0.293510
    12  C   -0.173383
    13  C   -0.251115
    14  C    0.601369
    15  O   -0.482788
    16  O   -0.439118
    17  N   -0.707492
    18  C    0.288122
    19  C    0.078015
    20  C    0.004143
    21  C    0.310420
    22  C   -0.384235
    23  C   -0.035714
    24  C   -0.267389
    25  N   -0.657945
    26  C    0.303258
    27  C    0.075358
    28  C   -0.052182
    29  C    0.316110
    30  C   -0.390274
    31  C   -0.167252
    32  C   -0.322490
    33  N   -0.736816
    34  C    0.225414
    35  C    0.027246
    36  C    0.006642
    37  C    0.304380
    38  C   -0.360591
    39  C    0.331657
    40  O   -0.458163
    41  C   -0.335337
    42  C    0.616305
    43  O   -0.522789
    44  O   -0.404111
    45  C   -0.075809
    46  C   -0.009465
    47  C   -0.125890
    48  C    0.179884
    49  C   -0.373379
    50  C   -0.258191
    51  C   -0.168870
    52  C   -0.166437
    53  C   -0.044237
    54  C   -0.329543
    55  C   -0.168544
    56  C   -0.187546
    57  C   -0.155990
    58  C   -0.070980
    59  C   -0.288195
    60  C   -0.164151
    61  C   -0.187125
    62  C   -0.147656
    63  C   -0.063110
    64  C   -0.305037
    65  C   -0.288630
    66  H    0.082725
    67  H    0.067815
    68  H    0.088583
    69  H    0.134674
    70  H    0.082394
    71  H    0.112281
    72  H    0.098339
    73  H    0.127925
    74  H    0.093043
    75  H    0.128185
    76  H    0.112726
    77  H    0.138963
    78  H    0.132066
    79  H    0.117349
    80  H    0.095106
    81  H    0.095011
    82  H    0.104806
    83  H    0.088173
    84  H    0.120049
    85  H    0.116485
    86  H    0.108191
    87  H    0.098619
    88  H    0.082138
    89  H    0.109203
    90  H    0.103151
    91  H    0.120412
    92  H    0.130302
    93  H    0.160089
    94  H    0.132141
    95  H    0.147913
    96  H    0.132203
    97  H    0.133702
    98  H    0.103817
    99  H    0.120868
   100  H    0.127690
   101  H    0.078769
   102  H    0.109198
   103  H    0.121730
   104  H    0.086962
   105  H    0.094925
   106  H    0.093732
   107  H    0.106907
   108  H    0.102660
   109  H    0.077919
   110  H    0.097429
   111  H    0.089756
   112  H    0.111881
   113  H    0.075990
   114  H    0.106271
   115  H    0.093531
   116  H    0.067720
   117  H    0.106201
   118  H    0.057574
   119  H    0.089707
   120  H    0.077562
   121  H    0.071177
   122  H    0.102612
   123  H    0.082229
   124  H    0.113194
   125  H    0.054585
   126  H    0.099681
   127  H    0.075028
   128  H    0.096258
   129  H    0.092835
   130  H    0.080320
   131  H    0.096994
   132  H    0.081003
   133  H    0.107987
   134  H    0.107117
   135  H    0.092877
   136  H    0.072271
   137  H    0.097321
 Sum of Mulliken charges =  -0.00000

 Dipole moment (field-independent basis, Debye):
    X=              0.3279    Y=              4.4918    Z=             -0.4968  Tot=              4.5311
 Quadrupole moment (field-independent basis, Debye-Ang):
   XX=           -339.3863   YY=           -396.5969   ZZ=           -400.8408
   XY=            -28.5212   XZ=              8.7006   YZ=              0.7858

 Normal termination of Gaussian 16 at Tue Sep 17 04:27:44 2019.
