 Gaussian 16, Revision A.03,
 Gaussian 16:  ES64L-G16RevA.03 25-Dec-2016

 ----------------------------------------------------------------------
 # td=(NStates=1) iop(3/107=0140000000,3/108=0140000000) CAM-B3LYP/6-31
 G(d,p)
 ----------------------------------------------------------------------

 --
 TD
 --
 Symbolic Z-matrix:
 Charge =  0 Multiplicity = 1

                         Standard orientation:
 ---------------------------------------------------------------------
 Center     Atomic      Atomic             Coordinates (Angstroms)
 Number     Number       Type             X           Y           Z
 ---------------------------------------------------------------------
      1         12           0       -7.126314    0.635475    0.284683
      2          6           0       -4.833403   -2.026988    0.507433
      3          6           0       -4.602727    2.860690    1.116142
      4          6           0       -9.198982    3.140561   -0.387085
      5          6           0       -9.664426   -1.702601   -0.656681
      6          7           0       -5.119738    0.416797    0.798701
      7          6           0       -4.357933   -0.725404    0.784134
      8          6           0       -2.920645   -0.504771    1.194558
      9          6           0       -2.929404    0.953058    1.625462
     10          6           0       -4.347059    1.449962    1.168261
     11          6           0       -2.755282    1.096481    3.178553
     12          6           0       -1.947662   -0.715129    0.055848
     13          6           0       -0.468559   -0.588239    0.432671
     14          6           0        0.421851   -0.723914   -0.745934
     15          8           0        0.163729   -1.064401   -1.953534
     16          8           0        1.729921   -0.448771   -0.346155
     17          7           0       -6.989377    2.689922    0.410651
     18          6           0       -5.897879    3.401975    0.809344
     19          6           0       -6.143614    4.869109    0.713485
     20          6           0       -7.586453    4.978877    0.268272
     21          6           0       -7.961594    3.581205    0.018244
     22          6           0       -5.256957    5.980848    1.139457
     23          6           0       -8.255065    6.128723    0.111388
     24          6           0       -8.162763    7.335498    0.786747
     25          7           0       -8.985149    0.692227   -0.342713
     26          6           0       -9.716396    1.833178   -0.611076
     27          6           0      -11.069486    1.643770   -1.024843
     28          6           0      -11.203823    0.262621   -1.161148
     29          6           0       -9.913640   -0.255431   -0.747902
     30          6           0      -12.108210    2.653422   -1.332754
     31          6           0      -12.287825   -0.586530   -1.598686
     32          6           0      -12.330467   -1.068118   -3.083716
     33          7           0       -7.315562   -1.328845   -0.137242
     34          6           0       -8.317650   -2.165245   -0.461807
     35          6           0       -7.880462   -3.638530   -0.565675
     36          6           0       -6.611377   -3.584855   -0.224268
     37          6           0       -6.232948   -2.229883    0.106422
     38          6           0       -8.646074   -4.826170   -0.945116
     39          6           0       -5.488832   -4.426736    0.181389
     40          8           0       -5.326493   -5.679266    0.201348
     41          6           0       -4.252211   -3.401977    0.529987
     42          6           0       -3.693642   -3.725608    1.793682
     43          8           0       -3.959852   -3.144893    2.936706
     44          8           0       -2.901777   -4.839807    1.765782
     45          6           0       -2.378996   -5.453484    2.987192
     46          6           0        2.825551   -0.730957   -1.346218
     47          6           0        4.150633   -0.450469   -0.656472
     48          6           0        5.092062    0.381925   -1.115545
     49          6           0        5.013487    1.226954   -2.414864
     50          6           0        6.422033    0.496278   -0.281827
     51          6           0        7.574554   -0.071661   -1.006535
     52          6           0        8.920432   -0.091359   -0.226407
     53          6           0       10.135542   -0.509061   -0.951085
     54          6           0       10.002372   -2.019261   -1.455828
     55          6           0       11.413478   -0.243616   -0.094157
     56          6           0       12.792742   -0.580252   -0.670965
     57          6           0       13.976085   -0.114198    0.224422
     58          6           0       15.278322   -0.205975   -0.548067
     59          6           0       15.604414   -1.650619   -0.949826
     60          6           0       16.399407    0.244657    0.391458
     61          6           0       17.781402    0.479523   -0.073777
     62          6           0       18.680153    1.282563    0.896070
     63          6           0       20.163278    1.299972    0.427657
     64          6           0       20.234832    1.992793   -0.846290
     65          6           0       20.973801    2.092236    1.564551
     66          1           0       -3.828315    3.367631    1.660923
     67          1           0       -9.771651    3.914108   -0.513634
     68          1           0      -10.441750   -2.341765   -1.011620
     69          1           0       -2.758266   -1.129389    2.098273
     70          1           0       -2.201853    1.531792    1.176569
     71          1           0       -1.935385    0.749023    3.414799
     72          1           0       -2.935373    2.111965    3.508763
     73          1           0       -3.670058    0.414379    3.614400
     74          1           0       -2.067382   -1.737739   -0.355780
     75          1           0       -2.306655    0.073389   -0.668993
     76          1           0       -0.201298    0.507981    0.655566
     77          1           0       -0.185976   -1.231012    1.246573
     78          1           0       -5.511297    6.784584    0.649725
     79          1           0       -5.315747    6.378268    2.187088
     80          1           0       -4.168789    5.606361    0.855961
     81          1           0       -8.887829    6.119224   -0.891332
     82          1           0       -8.902926    8.084108    0.350226
     83          1           0       -7.362224    7.704283    1.529824
     84          1           0      -11.925587    3.119934   -2.302198
     85          1           0      -13.103456    2.389948   -1.411237
     86          1           0      -12.049090    3.303459   -0.433894
     87          1           0      -12.400696   -1.436361   -0.894033
     88          1           0      -13.271409   -0.070587   -1.544683
     89          1           0      -12.887165   -1.945280   -3.423532
     90          1           0      -12.562356   -0.389505   -3.984241
     91          1           0      -11.362945   -1.405293   -3.366649
     92          1           0       -8.966466   -4.909179   -1.953843
     93          1           0       -8.008525   -5.777894   -0.593570
     94          1           0       -9.608389   -4.901947   -0.307947
     95          1           0       -3.450372   -3.453954   -0.305666
     96          1           0       -2.011574   -4.684507    3.577692
     97          1           0       -3.182109   -6.122886    3.417244
     98          1           0       -1.675531   -6.146879    2.773317
     99          1           0        2.634570   -1.726753   -1.632798
    100          1           0        2.484455   -0.036539   -2.133228
    101          1           0        4.307887   -1.186019    0.071804
    102          1           0        4.098230    0.991658   -3.031344
    103          1           0        4.958469    2.385057   -1.917485
    104          1           0        5.786457    0.912030   -3.082887
    105          1           0        6.548357    1.450884   -0.146135
    106          1           0        6.367017    0.026453    0.671570
    107          1           0        7.273191   -1.095189   -1.357808
    108          1           0        7.677524    0.597116   -1.981358
    109          1           0        9.074135    1.003371   -0.026072
    110          1           0        8.589009   -0.640599    0.789339
    111          1           0       10.208083    0.052779   -1.741237
    112          1           0        9.227398   -2.177053   -2.222698
    113          1           0       10.931467   -2.286519   -1.924722
    114          1           0       10.028007   -2.847208   -0.717370
    115          1           0       11.350141    0.771975    0.125046
    116          1           0       11.351341   -0.591098    1.078683
    117          1           0       12.853868   -1.563519   -0.811840
    118          1           0       12.751100   -0.046886   -1.720079
    119          1           0       13.778961    0.989102    0.493408
    120          1           0       13.954863   -0.740445    1.091203
    121          1           0       15.100569    0.481597   -1.479075
    122          1           0       15.735436   -2.426124    0.043969
    123          1           0       14.865379   -1.984947   -1.613294
    124          1           0       16.533479   -1.737524   -1.542492
    125          1           0       16.209694    1.162614    1.014224
    126          1           0       16.485951   -0.474716    1.215816
    127          1           0       18.154700   -0.587025   -0.281857
    128          1           0       17.801469    0.958213   -1.068156
    129          1           0       18.328086    2.337702    0.925212
    130          1           0       18.630047    0.788087    1.905726
    131          1           0       20.670556    0.208391    0.460135
    132          1           0       19.971693    3.027454   -0.881019
    133          1           0       21.249005    2.166721   -1.363644
    134          1           0       19.675749    1.606667   -1.715624
    135          1           0       20.856881    1.432881    2.461417
    136          1           0       22.095261    1.970380    1.261712
    137          1           0       20.456403    2.952437    1.704077
 ---------------------------------------------------------------------

 SCF Done:  E(RCAM-B3LYP) =  -2933.54255759     A.U. after   16 cycles

 Excitation energies and oscillator strengths:

 Excited State   1:      Singlet-A      1.9392 eV  639.36 nm  f=0.2608  <S**2>=0.000
     240 -> 243        0.23776
     241 -> 242        0.66037
 This state for optimization and/or second-order correction.
 Total Energy, E(TD-HF/TD-DFT) =  -2933.47129333
 Copying the excited state density for this state as the 1-particle RhoCI density.

 The electronic state is 1-A.
 Alpha  occ. eigenvalues --  -46.79625 -19.21561 -19.20250 -19.17449 -19.16146
 Alpha  occ. eigenvalues --  -19.15395 -14.38027 -14.36128 -14.35298 -14.35139
 Alpha  occ. eigenvalues --  -10.34544 -10.34483 -10.32321 -10.26640 -10.26525
 Alpha  occ. eigenvalues --  -10.26265 -10.25995 -10.25764 -10.25761 -10.25622
 Alpha  occ. eigenvalues --  -10.25234 -10.24715 -10.24492 -10.24468 -10.24149
 Alpha  occ. eigenvalues --  -10.23974 -10.23957 -10.23930 -10.23432 -10.23196
 Alpha  occ. eigenvalues --  -10.23125 -10.23065 -10.23041 -10.22867 -10.22807
 Alpha  occ. eigenvalues --  -10.22698 -10.22529 -10.22454 -10.22259 -10.22103
 Alpha  occ. eigenvalues --  -10.22021 -10.22013 -10.21978 -10.21820 -10.21713
 Alpha  occ. eigenvalues --  -10.21679 -10.21467 -10.21417 -10.21376 -10.21357
 Alpha  occ. eigenvalues --  -10.21323 -10.21317 -10.21170 -10.21100 -10.21046
 Alpha  occ. eigenvalues --  -10.20990 -10.20833 -10.20619 -10.20512 -10.20387
 Alpha  occ. eigenvalues --  -10.20248 -10.20133 -10.20115 -10.19808 -10.19782
 Alpha  occ. eigenvalues --   -3.08404  -1.83321  -1.82902  -1.82816  -1.10209
 Alpha  occ. eigenvalues --   -1.08840  -1.04421  -1.00245  -0.99594  -0.99197
 Alpha  occ. eigenvalues --   -0.98314  -0.97577  -0.96668  -0.87710  -0.86325
 Alpha  occ. eigenvalues --   -0.85757  -0.85555  -0.84413  -0.84180  -0.84092
 Alpha  occ. eigenvalues --   -0.83653  -0.83464  -0.82987  -0.81644  -0.81045
 Alpha  occ. eigenvalues --   -0.80193  -0.79590  -0.78908  -0.78517  -0.77687
 Alpha  occ. eigenvalues --   -0.76591  -0.76165  -0.75636  -0.75030  -0.73815
 Alpha  occ. eigenvalues --   -0.73376  -0.72446  -0.72323  -0.71405  -0.71401
 Alpha  occ. eigenvalues --   -0.70510  -0.70356  -0.69708  -0.69048  -0.68110
 Alpha  occ. eigenvalues --   -0.67468  -0.66462  -0.65747  -0.65096  -0.64412
 Alpha  occ. eigenvalues --   -0.63211  -0.61964  -0.61160  -0.60521  -0.60028
 Alpha  occ. eigenvalues --   -0.59569  -0.59413  -0.58335  -0.57977  -0.57784
 Alpha  occ. eigenvalues --   -0.57390  -0.56392  -0.56350  -0.55668  -0.55122
 Alpha  occ. eigenvalues --   -0.54219  -0.53597  -0.53542  -0.53034  -0.52701
 Alpha  occ. eigenvalues --   -0.51906  -0.51596  -0.51240  -0.51182  -0.50828
 Alpha  occ. eigenvalues --   -0.50634  -0.50335  -0.50314  -0.50083  -0.48995
 Alpha  occ. eigenvalues --   -0.48859  -0.48731  -0.48559  -0.47864  -0.47457
 Alpha  occ. eigenvalues --   -0.47348  -0.47164  -0.46981  -0.46757  -0.46677
 Alpha  occ. eigenvalues --   -0.46593  -0.46389  -0.46330  -0.46122  -0.45751
 Alpha  occ. eigenvalues --   -0.45701  -0.45465  -0.45110  -0.44992  -0.44937
 Alpha  occ. eigenvalues --   -0.44742  -0.44244  -0.44146  -0.43929  -0.43698
 Alpha  occ. eigenvalues --   -0.43594  -0.43277  -0.43189  -0.42885  -0.42575
 Alpha  occ. eigenvalues --   -0.42525  -0.42247  -0.41966  -0.41603  -0.41472
 Alpha  occ. eigenvalues --   -0.41375  -0.41296  -0.40979  -0.40825  -0.40725
 Alpha  occ. eigenvalues --   -0.40513  -0.40235  -0.40172  -0.39804  -0.39652
 Alpha  occ. eigenvalues --   -0.39083  -0.39055  -0.38974  -0.38781  -0.38732
 Alpha  occ. eigenvalues --   -0.38636  -0.38441  -0.38107  -0.38002  -0.37930
 Alpha  occ. eigenvalues --   -0.37751  -0.37525  -0.37278  -0.37165  -0.36964
 Alpha  occ. eigenvalues --   -0.36814  -0.36771  -0.36615  -0.36535  -0.36009
 Alpha  occ. eigenvalues --   -0.35688  -0.35677  -0.35522  -0.35081  -0.34841
 Alpha  occ. eigenvalues --   -0.34612  -0.34362  -0.34219  -0.33712  -0.33639
 Alpha  occ. eigenvalues --   -0.33313  -0.33170  -0.32839  -0.32677  -0.32269
 Alpha  occ. eigenvalues --   -0.31629  -0.31277  -0.31176  -0.30558  -0.30348
 Alpha  occ. eigenvalues --   -0.29450  -0.29396  -0.28761  -0.28281  -0.27613
 Alpha  occ. eigenvalues --   -0.27594  -0.27504  -0.26087  -0.23496  -0.21279
 Alpha  occ. eigenvalues --   -0.19585
 Alpha virt. eigenvalues --   -0.07072  -0.04247  -0.01428   0.01328   0.02103
 Alpha virt. eigenvalues --    0.03169   0.03953   0.04436   0.04794   0.06074
 Alpha virt. eigenvalues --    0.06241   0.08532   0.09411   0.09747   0.10001

 Mulliken charges:
               1
     1  Mg   0.825644
     2  C    0.102094
     3  C   -0.179343
     4  C   -0.142077
     5  C   -0.174467
     6  N   -0.627179
     7  C    0.297489
     8  C   -0.165265
     9  C   -0.154607
    10  C    0.312255
    11  C   -0.289897
    12  C   -0.158698
    13  C   -0.252548
    14  C    0.600178
    15  O   -0.509193
    16  O   -0.511364
    17  N   -0.700265
    18  C    0.309979
    19  C   -0.005504
    20  C    0.079571
    21  C    0.289173
    22  C   -0.368761
    23  C   -0.149891
    24  C   -0.241584
    25  N   -0.675343
    26  C    0.300288
    27  C    0.040646
    28  C    0.064532
    29  C    0.258391
    30  C   -0.371501
    31  C   -0.276332
    32  C   -0.333536
    33  N   -0.673743
    34  C    0.261539
    35  C    0.043351
    36  C    0.073779
    37  C    0.219828
    38  C   -0.410219
    39  C    0.377958
    40  O   -0.472414
    41  C   -0.336310
    42  C    0.631423
    43  O   -0.524852
    44  O   -0.464824
    45  C   -0.072499
    46  C    0.010332
    47  C   -0.110625
    48  C    0.087632
    49  C   -0.347636
    50  C   -0.195762
    51  C   -0.180988
    52  C   -0.152882
    53  C   -0.026085
    54  C   -0.339557
    55  C   -0.181287
    56  C   -0.178476
    57  C   -0.159138
    58  C   -0.048069
    59  C   -0.303539
    60  C   -0.166094
    61  C   -0.170568
    62  C   -0.169100
    63  C   -0.053043
    64  C   -0.308947
    65  C   -0.301003
    66  H    0.082376
    67  H    0.041377
    68  H    0.088001
    69  H    0.128671
    70  H    0.100260
    71  H    0.118691
    72  H    0.106049
    73  H    0.102179
    74  H    0.110059
    75  H    0.115951
    76  H    0.137333
    77  H    0.149076
    78  H    0.131648
    79  H    0.119067
    80  H    0.099434
    81  H    0.088686
    82  H    0.097022
    83  H    0.102956
    84  H    0.128309
    85  H    0.124062
    86  H    0.121092
    87  H    0.114870
    88  H    0.106519
    89  H    0.107934
    90  H    0.099084
    91  H    0.114558
    92  H    0.143150
    93  H    0.138036
    94  H    0.117024
    95  H    0.165963
    96  H    0.138674
    97  H    0.127487
    98  H    0.132387
    99  H    0.130652
   100  H    0.124353
   101  H    0.092324
   102  H    0.114708
   103  H    0.102496
   104  H    0.138001
   105  H    0.107020
   106  H    0.098931
   107  H    0.092773
   108  H    0.062872
   109  H    0.079046
   110  H    0.073145
   111  H    0.096935
   112  H    0.103780
   113  H    0.098503
   114  H    0.102540
   115  H    0.095414
   116  H    0.053127
   117  H    0.115407
   118  H    0.065546
   119  H    0.083673
   120  H    0.098533
   121  H    0.075045
   122  H    0.071143
   123  H    0.110929
   124  H    0.107065
   125  H    0.068688
   126  H    0.085224
   127  H    0.077057
   128  H    0.088198
   129  H    0.091801
   130  H    0.083935
   131  H    0.069119
   132  H    0.104918
   133  H    0.080325
   134  H    0.105040
   135  H    0.094707
   136  H    0.095590
   137  H    0.112384
 Sum of Mulliken charges =  -0.00000

 Dipole moment (field-independent basis, Debye):
    X=              2.3274    Y=              2.8286    Z=             -0.2654  Tot=              3.6726
 Quadrupole moment (field-independent basis, Debye-Ang):
   XX=           -343.1388   YY=           -390.0188   ZZ=           -397.9400
   XY=            -11.2405   XZ=             11.8697   YZ=             -3.3252

 Normal termination of Gaussian 16 at Wed Sep 18 06:59:09 2019.
