 Gaussian 09, Revision D.01,
 Gaussian 09:  ES64L-G09RevD.01 24-Apr-2013

 -------------------------------------
 # td=(NStates=1) CAM-B3LYP/6-31G(d,p)
 -------------------------------------

 --
 TD
 --
 Symbolic Z-matrix:
 Charge =  0 Multiplicity = 1

                         Standard orientation:
 ---------------------------------------------------------------------
 Center     Atomic      Atomic             Coordinates (Angstroms)
 Number     Number       Type             X           Y           Z
 ---------------------------------------------------------------------
      1         12           0       -7.171187    0.675834    0.006255
      2          6           0       -4.880194   -1.958294    0.467059
      3          6           0       -4.760723    2.847982    1.049481
      4          6           0       -9.361690    3.216113   -0.437233
      5          6           0       -9.594762   -1.730120   -0.795348
      6          7           0       -5.091298    0.443803    0.689238
      7          6           0       -4.355746   -0.718059    0.757528
      8          6           0       -2.997880   -0.460371    1.159283
      9          6           0       -2.986948    0.936366    1.597388
     10          6           0       -4.342145    1.485565    1.028987
     11          6           0       -2.884837    1.160174    3.159840
     12          6           0       -1.900478   -0.678444    0.011318
     13          6           0       -0.485420   -0.490875    0.618648
     14          6           0        0.585224   -0.728806   -0.560892
     15          8           0        0.285752   -1.182924   -1.649086
     16          8           0        1.730298   -0.429477   -0.177046
     17          7           0       -6.985684    2.597083    0.215498
     18          6           0       -5.968283    3.378212    0.642239
     19          6           0       -6.294978    4.743316    0.771166
     20          6           0       -7.613007    4.868627    0.287525
     21          6           0       -8.012706    3.547143   -0.011037
     22          6           0       -5.388152    5.818242    1.076219
     23          6           0       -8.442870    6.154354    0.293030
     24          6           0       -8.258880    7.237878    1.017360
     25          7           0       -9.099737    0.740395   -0.543090
     26          6           0       -9.893055    1.923714   -0.643148
     27          6           0      -11.193733    1.565891   -1.069607
     28          6           0      -11.250176    0.132497   -1.180958
     29          6           0       -9.916989   -0.342607   -0.815927
     30          6           0      -12.267561    2.555038   -1.375543
     31          6           0      -12.320804   -0.693728   -1.697812
     32          6           0      -12.376015   -1.040731   -3.173987
     33          7           0       -7.239261   -1.483479   -0.134503
     34          6           0       -8.366495   -2.226802   -0.424744
     35          6           0       -7.936842   -3.644410   -0.443441
     36          6           0       -6.573642   -3.630105   -0.079974
     37          6           0       -6.212911   -2.255388    0.102547
     38          6           0       -8.555938   -4.936752   -0.877123
     39          6           0       -5.348893   -4.435869    0.113483
     40          8           0       -5.291611   -5.626590    0.179940
     41          6           0       -4.212048   -3.347934    0.491872
     42          6           0       -3.588543   -3.666681    1.880469
     43          8           0       -3.854191   -3.250400    2.927719
     44          8           0       -2.714210   -4.715817    1.703800
     45          6           0       -2.131463   -5.241897    2.993716
     46          6           0        2.760294   -0.651280   -1.132123
     47          6           0        4.096054   -0.420797   -0.411899
     48          6           0        5.074492    0.299580   -0.905642
     49          6           0        4.891170    1.289319   -2.013152
     50          6           0        6.452019    0.327838   -0.201307
     51          6           0        7.618819   -0.170707   -1.077323
     52          6           0        8.934125   -0.156688   -0.204387
     53          6           0       10.216371   -0.507448   -0.889859
     54          6           0       10.134519   -1.777446   -1.440869
     55          6           0       11.365842   -0.124117   -0.003850
     56          6           0       12.742653   -0.423828   -0.704722
     57          6           0       13.953548   -0.038031    0.242063
     58          6           0       15.350770   -0.137027   -0.487101
     59          6           0       15.527866   -1.609088   -0.948477
     60          6           0       16.491185    0.343192    0.505901
     61          6           0       17.838056    0.406310   -0.173733
     62          6           0       18.846736    1.246598    0.700794
     63          6           0       20.177524    1.251632    0.216070
     64          6           0       20.389656    2.083300   -1.049118
     65          6           0       21.103552    1.900635    1.331368
     66          1           0       -4.115333    3.610853    1.533572
     67          1           0      -10.091192    4.166104   -0.355012
     68          1           0      -10.407567   -2.339289   -1.058300
     69          1           0       -2.598869   -0.997361    2.128541
     70          1           0       -2.003573    1.396324    1.152290
     71          1           0       -1.887575    0.715858    3.401715
     72          1           0       -2.908924    2.325804    3.482749
     73          1           0       -3.478894    0.698732    3.646069
     74          1           0       -2.153973   -1.708940   -0.193450
     75          1           0       -2.193412   -0.187197   -0.753949
     76          1           0       -0.382635    0.549345    0.947106
     77          1           0       -0.424093   -1.114100    1.440563
     78          1           0       -5.674997    6.957353    0.592003
     79          1           0       -5.555900    6.261869    2.061859
     80          1           0       -4.372167    5.506779    0.874363
     81          1           0       -9.237047    6.162949   -0.443270
     82          1           0       -9.050187    8.082333    0.585817
     83          1           0       -7.613944    7.352135    1.779205
     84          1           0      -12.003037    3.320148   -1.951194
     85          1           0      -13.214197    2.036792   -1.830111
     86          1           0      -12.571464    3.218877   -0.405384
     87          1           0      -12.330144   -1.480094   -0.981946
     88          1           0      -13.331757   -0.215755   -1.523718
     89          1           0      -13.177787   -1.631968   -3.418602
     90          1           0      -12.480310   -0.292536   -4.024249
     91          1           0      -11.555234   -1.720308   -3.344483
     92          1           0       -8.919953   -5.042213   -1.819623
     93          1           0       -7.960216   -5.887738   -0.709369
     94          1           0       -9.523814   -5.071787   -0.318346
     95          1           0       -3.339448   -3.258953   -0.431955
     96          1           0       -1.546535   -4.517509    3.584618
     97          1           0       -3.016963   -5.558624    3.597259
     98          1           0       -1.280220   -6.009261    2.668291
     99          1           0        2.701642   -1.690385   -1.675007
    100          1           0        2.721318   -0.141214   -2.167192
    101          1           0        4.265825   -1.137058    0.352680
    102          1           0        3.876571    1.396210   -2.287687
    103          1           0        5.308391    2.201705   -1.780943
    104          1           0        5.445487    1.032763   -3.018891
    105          1           0        6.541335    1.464087    0.031312
    106          1           0        6.384432   -0.155895    0.644277
    107          1           0        7.679987   -1.276255   -1.278001
    108          1           0        7.717392    0.352142   -1.973293
    109          1           0        8.940150    0.950727    0.186306
    110          1           0        8.710275   -0.684958    0.787112
    111          1           0       10.092927    0.020765   -1.680281
    112          1           0        9.196404   -1.869982   -2.053530
    113          1           0       10.957942   -2.037942   -2.261650
    114          1           0       10.284841   -2.590741   -0.690816
    115          1           0       11.336446    0.998884    0.148932
    116          1           0       11.519273   -0.742411    1.008900
    117          1           0       12.775897   -1.451897   -0.957020
    118          1           0       12.752838    0.449159   -1.499422
    119          1           0       13.909879    1.024138    0.582324
    120          1           0       13.733781   -0.614712    1.068110
    121          1           0       15.392068    0.570870   -1.335345
    122          1           0       15.760852   -2.166917   -0.115640
    123          1           0       14.678532   -2.021918   -1.432961
    124          1           0       16.262253   -2.125035   -1.695533
    125          1           0       16.149287    1.313236    0.844922
    126          1           0       16.652240   -0.349766    1.339059
    127          1           0       18.213345   -0.686144   -0.427145
    128          1           0       17.642182    0.970873   -1.200685
    129          1           0       18.443970    2.216885    0.708416
    130          1           0       18.972924    0.944580    1.709446
    131          1           0       20.622439    0.132152    0.057665
    132          1           0       20.063441    3.274865   -0.840512
    133          1           0       21.257591    1.882134   -1.392163
    134          1           0       19.718866    1.938487   -1.795746
    135          1           0       21.279868    1.169900    2.298079
    136          1           0       22.127159    1.792649    0.988351
    137          1           0       20.775096    2.913315    1.632737
 ---------------------------------------------------------------------

 SCF Done:  E(RCAM-B3LYP) =  -2932.61707455     A.U. after   17 cycles

 Excitation energies and oscillator strengths:

 Excited State   1:      Singlet-A      2.0336 eV  609.68 nm  f=0.2082  <S**2>=0.000
     240 -> 243        0.25011
     241 -> 242        0.64331
 This state for optimization and/or second-order correction.
 Total Energy, E(TD-HF/TD-KS) =  -2932.54234194
 Copying the excited state density for this state as the 1-particle RhoCI density.

 The electronic state is 1-A.
 Alpha  occ. eigenvalues --  -46.83966 -19.28807 -19.24853 -19.21505 -19.20864
 Alpha  occ. eigenvalues --  -19.20129 -14.41589 -14.39028 -14.38980 -14.38925
 Alpha  occ. eigenvalues --  -10.39136 -10.38816 -10.35599 -10.33452 -10.32249
 Alpha  occ. eigenvalues --  -10.30950 -10.30281 -10.30147 -10.29618 -10.29516
 Alpha  occ. eigenvalues --  -10.28840 -10.28834 -10.28826 -10.28812 -10.28567
 Alpha  occ. eigenvalues --  -10.28202 -10.27610 -10.27587 -10.27553 -10.27509
 Alpha  occ. eigenvalues --  -10.27400 -10.26986 -10.26953 -10.26823 -10.26817
 Alpha  occ. eigenvalues --  -10.26694 -10.26631 -10.26407 -10.26256 -10.26225
 Alpha  occ. eigenvalues --  -10.26203 -10.26198 -10.26126 -10.26102 -10.26021
 Alpha  occ. eigenvalues --  -10.25943 -10.25911 -10.25857 -10.25655 -10.25567
 Alpha  occ. eigenvalues --  -10.25486 -10.25485 -10.25456 -10.25436 -10.25267
 Alpha  occ. eigenvalues --  -10.25159 -10.25108 -10.24838 -10.24837 -10.24670
 Alpha  occ. eigenvalues --  -10.24580 -10.23738 -10.23585 -10.23276 -10.23219
 Alpha  occ. eigenvalues --   -3.13025  -1.87725  -1.87251  -1.87220  -1.23324
 Alpha  occ. eigenvalues --   -1.18352  -1.12431  -1.09434  -1.08836  -1.05064
 Alpha  occ. eigenvalues --   -1.03842  -1.03151  -1.00637  -0.93164  -0.91794
 Alpha  occ. eigenvalues --   -0.91342  -0.90522  -0.90383  -0.89025  -0.88706
 Alpha  occ. eigenvalues --   -0.88374  -0.87650  -0.86938  -0.86706  -0.86197
 Alpha  occ. eigenvalues --   -0.84789  -0.84384  -0.83564  -0.83255  -0.82637
 Alpha  occ. eigenvalues --   -0.81751  -0.80640  -0.80323  -0.79640  -0.78327
 Alpha  occ. eigenvalues --   -0.78087  -0.76985  -0.76909  -0.76610  -0.75534
 Alpha  occ. eigenvalues --   -0.75408  -0.74806  -0.74708  -0.74104  -0.72422
 Alpha  occ. eigenvalues --   -0.71765  -0.71304  -0.70200  -0.69842  -0.67838
 Alpha  occ. eigenvalues --   -0.66944  -0.66728  -0.65722  -0.65047  -0.64332
 Alpha  occ. eigenvalues --   -0.64008  -0.63514  -0.63356  -0.63089  -0.61766
 Alpha  occ. eigenvalues --   -0.61669  -0.60943  -0.60715  -0.59893  -0.59626
 Alpha  occ. eigenvalues --   -0.58341  -0.58239  -0.57903  -0.57535  -0.56597
 Alpha  occ. eigenvalues --   -0.56204  -0.55713  -0.55600  -0.55263  -0.54930
 Alpha  occ. eigenvalues --   -0.54811  -0.54576  -0.54547  -0.53746  -0.53487
 Alpha  occ. eigenvalues --   -0.53333  -0.52897  -0.52551  -0.51928  -0.51871
 Alpha  occ. eigenvalues --   -0.51826  -0.51066  -0.50985  -0.50811  -0.50747
 Alpha  occ. eigenvalues --   -0.50437  -0.50092  -0.49882  -0.49764  -0.49720
 Alpha  occ. eigenvalues --   -0.49416  -0.49302  -0.49144  -0.48705  -0.48552
 Alpha  occ. eigenvalues --   -0.48315  -0.48252  -0.47909  -0.47505  -0.47318
 Alpha  occ. eigenvalues --   -0.47004  -0.46775  -0.46581  -0.46414  -0.45991
 Alpha  occ. eigenvalues --   -0.45765  -0.45469  -0.45445  -0.45217  -0.45090
 Alpha  occ. eigenvalues --   -0.44764  -0.44704  -0.44637  -0.44518  -0.44060
 Alpha  occ. eigenvalues --   -0.44015  -0.43736  -0.43523  -0.43441  -0.43309
 Alpha  occ. eigenvalues --   -0.43006  -0.42926  -0.42816  -0.42682  -0.42411
 Alpha  occ. eigenvalues --   -0.42105  -0.41925  -0.41592  -0.41541  -0.41292
 Alpha  occ. eigenvalues --   -0.40948  -0.40573  -0.40324  -0.40166  -0.40057
 Alpha  occ. eigenvalues --   -0.39913  -0.39664  -0.39521  -0.39174  -0.39026
 Alpha  occ. eigenvalues --   -0.38932  -0.38419  -0.38363  -0.38068  -0.37907
 Alpha  occ. eigenvalues --   -0.37797  -0.37666  -0.37213  -0.36759  -0.36710
 Alpha  occ. eigenvalues --   -0.36566  -0.36461  -0.36332  -0.35777  -0.35598
 Alpha  occ. eigenvalues --   -0.35531  -0.35448  -0.34253  -0.34133  -0.33675
 Alpha  occ. eigenvalues --   -0.33099  -0.32504  -0.31825  -0.30586  -0.30402
 Alpha  occ. eigenvalues --   -0.30161  -0.28882  -0.27962  -0.26843  -0.22958
 Alpha  occ. eigenvalues --   -0.20869
 Alpha virt. eigenvalues --   -0.06333  -0.03358   0.01675   0.04571   0.05823
 Alpha virt. eigenvalues --    0.06411   0.06504   0.06945   0.07449   0.07812
 Alpha virt. eigenvalues --    0.08715   0.10775   0.11447   0.11755   0.11857

 Mulliken charges:
               1
     1  Mg   0.842831
     2  C    0.076609
     3  C   -0.237710
     4  C   -0.196828
     5  C   -0.139589
     6  N   -0.629339
     7  C    0.338193
     8  C   -0.202145
     9  C   -0.141083
    10  C    0.342084
    11  C   -0.278390
    12  C   -0.139332
    13  C   -0.282636
    14  C    0.592921
    15  O   -0.490822
    16  O   -0.378900
    17  N   -0.743995
    18  C    0.347875
    19  C    0.048639
    20  C    0.005126
    21  C    0.284106
    22  C   -0.399226
    23  C   -0.053218
    24  C   -0.225851
    25  N   -0.732006
    26  C    0.295067
    27  C    0.038966
    28  C    0.010020
    29  C    0.306072
    30  C   -0.368196
    31  C   -0.261763
    32  C   -0.308463
    33  N   -0.717853
    34  C    0.282724
    35  C    0.005387
    36  C   -0.002637
    37  C    0.289185
    38  C   -0.392277
    39  C    0.384204
    40  O   -0.428996
    41  C   -0.341536
    42  C    0.624824
    43  O   -0.428989
    44  O   -0.479654
    45  C   -0.088380
    46  C   -0.039487
    47  C   -0.141790
    48  C    0.128976
    49  C   -0.364494
    50  C   -0.206809
    51  C   -0.190027
    52  C   -0.193045
    53  C    0.005372
    54  C   -0.320443
    55  C   -0.175427
    56  C   -0.189221
    57  C   -0.178466
    58  C   -0.058150
    59  C   -0.326519
    60  C   -0.168363
    61  C   -0.179513
    62  C   -0.138376
    63  C   -0.060654
    64  C   -0.278232
    65  C   -0.308449
    66  H    0.077377
    67  H    0.091644
    68  H    0.094884
    69  H    0.106565
    70  H    0.084051
    71  H    0.092037
    72  H    0.089104
    73  H    0.132539
    74  H    0.109335
    75  H    0.119292
    76  H    0.128046
    77  H    0.138870
    78  H    0.096160
    79  H    0.127718
    80  H    0.122337
    81  H    0.094699
    82  H    0.088086
    83  H    0.101087
    84  H    0.135581
    85  H    0.101208
    86  H    0.090499
    87  H    0.115911
    88  H    0.096837
    89  H    0.115116
    90  H    0.109524
    91  H    0.105197
    92  H    0.137115
    93  H    0.149220
    94  H    0.107488
    95  H    0.142708
    96  H    0.124158
    97  H    0.144067
    98  H    0.119106
    99  H    0.131745
   100  H    0.126326
   101  H    0.093522
   102  H    0.119229
   103  H    0.123686
   104  H    0.100172
   105  H    0.090774
   106  H    0.105406
   107  H    0.106129
   108  H    0.101335
   109  H    0.065671
   110  H    0.079562
   111  H    0.099146
   112  H    0.100264
   113  H    0.080834
   114  H    0.093804
   115  H    0.092681
   116  H    0.070150
   117  H    0.113385
   118  H    0.076003
   119  H    0.081381
   120  H    0.097232
   121  H    0.085668
   122  H    0.111565
   123  H    0.104010
   124  H    0.079867
   125  H    0.088628
   126  H    0.093487
   127  H    0.083817
   128  H    0.071534
   129  H    0.092321
   130  H    0.094459
   131  H    0.061769
   132  H    0.058893
   133  H    0.109429
   134  H    0.109978
   135  H    0.065933
   136  H    0.103114
   137  H    0.107618
 Sum of Mulliken charges =   0.00000

 Dipole moment (field-independent basis, Debye):
    X=              2.6808    Y=              4.0282    Z=              0.0754  Tot=              4.8393
 Quadrupole moment (field-independent basis, Debye-Ang):
   XX=           -354.1517   YY=           -393.4491   ZZ=           -394.7080
   XY=            -21.0919   XZ=             11.6356   YZ=             -0.7813

 Normal termination of Gaussian 09 at Thu Jul  4 22:10:50 2019.
