 Gaussian 16, Revision A.03,
 Gaussian 16:  ES64L-G16RevA.03 25-Dec-2016

 ----------------------------------------------------------------------
 # td=(NStates=1) iop(3/107=0140000000,3/108=0140000000) CAM-B3LYP/6-31
 G(d,p)
 ----------------------------------------------------------------------

 --
 TD
 --
 Symbolic Z-matrix:
 Charge =  0 Multiplicity = 1

                         Standard orientation:
 ---------------------------------------------------------------------
 Center     Atomic      Atomic             Coordinates (Angstroms)
 Number     Number       Type             X           Y           Z
 ---------------------------------------------------------------------
      1         12           0       -7.124317    0.594318    0.227588
      2          6           0       -4.915095   -2.041263    0.465385
      3          6           0       -4.755280    2.820290    1.225560
      4          6           0       -9.437415    3.255717   -0.205867
      5          6           0       -9.554436   -1.547774   -0.909374
      6          7           0       -5.068361    0.333932    0.757335
      7          6           0       -4.375205   -0.771428    0.666192
      8          6           0       -2.899112   -0.555731    1.172868
      9          6           0       -2.977451    0.893065    1.757285
     10          6           0       -4.413604    1.483771    1.099503
     11          6           0       -3.123271    1.011538    3.206950
     12          6           0       -1.951451   -0.773625   -0.012228
     13          6           0       -0.478667   -0.468992    0.516329
     14          6           0        0.501764   -0.630826   -0.618305
     15          8           0        0.114315   -0.905162   -1.760990
     16          8           0        1.763740   -0.419172   -0.199813
     17          7           0       -7.020655    2.602383    0.440287
     18          6           0       -5.890815    3.439946    0.803306
     19          6           0       -6.206382    4.734244    0.652931
     20          6           0       -7.553701    4.864223    0.342541
     21          6           0       -7.954607    3.474039    0.131546
     22          6           0       -5.237020    5.928690    1.074733
     23          6           0       -8.389945    6.008436    0.149552
     24          6           0       -8.164028    7.158636    0.794573
     25          7           0       -9.130476    0.786279   -0.490244
     26          6           0       -9.893357    1.942340   -0.612884
     27          6           0      -11.223090    1.610919   -1.049554
     28          6           0      -11.249934    0.281527   -1.198208
     29          6           0       -9.941894   -0.303950   -0.894289
     30          6           0      -12.323548    2.608569   -1.413897
     31          6           0      -12.386532   -0.490336   -1.822226
     32          6           0      -12.350623   -0.897400   -3.350560
     33          7           0       -7.286953   -1.398011   -0.093725
     34          6           0       -8.383072   -2.147516   -0.573255
     35          6           0       -7.938731   -3.515457   -0.623026
     36          6           0       -6.569566   -3.569427   -0.281508
     37          6           0       -6.318509   -2.282520    0.190224
     38          6           0       -8.763283   -4.710798   -0.856557
     39          6           0       -5.446556   -4.342232    0.065914
     40          8           0       -5.232771   -5.524466   -0.035759
     41          6           0       -4.290660   -3.411298    0.407294
     42          6           0       -3.698791   -3.699321    1.823155
     43          8           0       -3.995406   -3.331295    2.849410
     44          8           0       -2.814854   -4.842042    1.680019
     45          6           0       -2.315085   -5.445884    2.816587
     46          6           0        2.909575   -0.670482   -1.159251
     47          6           0        4.176700   -0.488556   -0.411128
     48          6           0        5.201645    0.302672   -0.814306
     49          6           0        5.183557    1.272161   -2.023057
     50          6           0        6.529312    0.374902   -0.108731
     51          6           0        7.658671   -0.312605   -0.817395
     52          6           0        8.977597   -0.124042    0.084885
     53          6           0       10.203144   -0.582352   -0.718687
     54          6           0       10.171886   -2.140893   -1.183101
     55          6           0       11.427427   -0.295983    0.186134
     56          6           0       12.736579   -0.387244   -0.647605
     57          6           0       14.040643   -0.146108    0.065044
     58          6           0       15.397682   -0.300302   -0.438721
     59          6           0       15.718573   -1.696056   -0.904300
     60          6           0       16.475856    0.364209    0.441753
     61          6           0       17.851455    0.502332   -0.265513
     62          6           0       18.871364    1.236049    0.684190
     63          6           0       20.303343    1.417917    0.032403
     64          6           0       20.183415    2.175302   -1.312686
     65          6           0       21.046786    2.174456    1.114639
     66          1           0       -3.924320    3.501621    1.656124
     67          1           0      -10.153108    4.042324   -0.373881
     68          1           0      -10.644953   -1.960342   -1.136598
     69          1           0       -2.821202   -1.416147    2.040502
     70          1           0       -2.396713    1.613901    1.193986
     71          1           0       -2.292183    0.553035    3.719806
     72          1           0       -3.237886    2.165196    3.717880
     73          1           0       -3.797450    0.403320    3.699143
     74          1           0       -2.106890   -1.869865   -0.457964
     75          1           0       -2.084421    0.028166   -0.776521
     76          1           0       -0.603495    0.581983    0.860020
     77          1           0       -0.160369   -1.137325    1.351008
     78          1           0       -5.591576    6.953282    0.653013
     79          1           0       -5.122202    6.189499    2.183498
     80          1           0       -4.268265    5.802899    0.876904
     81          1           0       -9.350843    5.911734   -0.441306
     82          1           0       -8.951863    7.818361    0.704454
     83          1           0       -7.187543    7.075215    1.577244
     84          1           0      -12.136711    3.220591   -2.443382
     85          1           0      -13.290054    2.037919   -1.615304
     86          1           0      -12.520242    3.277437   -0.418362
     87          1           0      -12.492677   -1.317548   -1.240147
     88          1           0      -13.429327   -0.119817   -1.805443
     89          1           0      -13.080037   -1.516893   -3.852408
     90          1           0      -12.322917    0.011774   -3.948715
     91          1           0      -11.434572   -1.549059   -3.537583
     92          1           0       -8.989530   -4.893953   -1.931967
     93          1           0       -8.091877   -5.433263   -0.642290
     94          1           0       -9.785701   -4.632989   -0.265516
     95          1           0       -3.501069   -3.565286   -0.506029
     96          1           0       -1.761186   -4.636494    3.380234
     97          1           0       -3.238469   -5.622099    3.474434
     98          1           0       -1.650909   -6.392293    2.806468
     99          1           0        2.581841   -1.764443   -1.432840
    100          1           0        2.688683    0.040317   -1.935453
    101          1           0        4.548805   -1.135457    0.573578
    102          1           0        4.121131    1.086377   -2.660719
    103          1           0        5.683151    2.335665   -1.800072
    104          1           0        5.932649    0.799432   -2.789157
    105          1           0        6.966099    1.414579    0.179304
    106          1           0        6.447806   -0.361751    1.005802
    107          1           0        7.337224   -1.299541   -0.879214
    108          1           0        7.869151   -0.031846   -1.700438
    109          1           0        9.204478    0.878780    0.385770
    110          1           0        8.821189   -0.639140    1.084503
    111          1           0       10.323830   -0.133555   -1.505590
    112          1           0        9.344755   -2.013406   -2.004369
    113          1           0       11.213831   -2.490063   -1.589342
    114          1           0        9.959962   -2.883153   -0.265104
    115          1           0       11.405532    0.789581    0.569833
    116          1           0       11.402233   -0.879647    1.143613
    117          1           0       12.867221   -1.548445   -1.200879
    118          1           0       12.507719    0.355884   -1.494528
    119          1           0       13.986450    0.906547    0.488090
    120          1           0       13.984990   -0.696257    1.006535
    121          1           0       15.329365    0.331036   -1.468647
    122          1           0       15.791905   -2.277393    0.190140
    123          1           0       14.884465   -2.176968   -1.327032
    124          1           0       16.585439   -1.729249   -1.459185
    125          1           0       16.148075    1.237094    0.678095
    126          1           0       16.571630   -0.366383    1.470266
    127          1           0       18.267002   -0.506045   -0.554897
    128          1           0       17.758526    0.955002   -1.196690
    129          1           0       18.589262    2.204156    1.123443
    130          1           0       19.025578    0.894112    1.666589
    131          1           0       20.816746    0.424180   -0.120167
    132          1           0       19.866649    3.232699   -1.338678
    133          1           0       21.370199    2.298784   -1.704512
    134          1           0       19.452271    1.476606   -1.871997
    135          1           0       21.208214    1.564006    1.969228
    136          1           0       22.254609    2.669260    1.092783
    137          1           0       20.481090    3.173686    1.409532
 ---------------------------------------------------------------------

 SCF Done:  E(RCAM-B3LYP) =  -2933.32824290     A.U. after   16 cycles

 Excitation energies and oscillator strengths:

 Excited State   1:      Singlet-A      1.9695 eV  629.53 nm  f=0.2763  <S**2>=0.000
     240 -> 243        0.22917
     241 -> 242        0.66650
 This state for optimization and/or second-order correction.
 Total Energy, E(TD-HF/TD-DFT) =  -2933.25586661
 Copying the excited state density for this state as the 1-particle RhoCI density.

 The electronic state is 1-A.
 Alpha  occ. eigenvalues --  -46.80218 -19.21082 -19.18867 -19.18817 -19.15704
 Alpha  occ. eigenvalues --  -19.14922 -14.37755 -14.35653 -14.35109 -14.34853
 Alpha  occ. eigenvalues --  -10.34786 -10.33708 -10.29343 -10.29026 -10.26865
 Alpha  occ. eigenvalues --  -10.26208 -10.26202 -10.25892 -10.25557 -10.25110
 Alpha  occ. eigenvalues --  -10.25079 -10.24901 -10.24825 -10.24711 -10.24708
 Alpha  occ. eigenvalues --  -10.24596 -10.24188 -10.24158 -10.24027 -10.23983
 Alpha  occ. eigenvalues --  -10.23812 -10.23729 -10.23688 -10.23478 -10.23203
 Alpha  occ. eigenvalues --  -10.23195 -10.23129 -10.22989 -10.22773 -10.22706
 Alpha  occ. eigenvalues --  -10.22697 -10.22682 -10.22636 -10.22599 -10.22472
 Alpha  occ. eigenvalues --  -10.22370 -10.22232 -10.22195 -10.22083 -10.21975
 Alpha  occ. eigenvalues --  -10.21971 -10.21952 -10.21938 -10.21869 -10.21744
 Alpha  occ. eigenvalues --  -10.21656 -10.21485 -10.21317 -10.20907 -10.20801
 Alpha  occ. eigenvalues --  -10.20779 -10.20476 -10.20308 -10.20199 -10.20057
 Alpha  occ. eigenvalues --   -3.08707  -1.83661  -1.83149  -1.83131  -1.15162
 Alpha  occ. eigenvalues --   -1.10771  -1.06163  -1.04927  -1.02547  -0.99564
 Alpha  occ. eigenvalues --   -0.98868  -0.98260  -0.96523  -0.87986  -0.86669
 Alpha  occ. eigenvalues --   -0.85982  -0.84600  -0.84553  -0.84283  -0.83881
 Alpha  occ. eigenvalues --   -0.83557  -0.83442  -0.83121  -0.82448  -0.81128
 Alpha  occ. eigenvalues --   -0.80309  -0.79057  -0.78337  -0.78211  -0.77003
 Alpha  occ. eigenvalues --   -0.76767  -0.76154  -0.75144  -0.74860  -0.73507
 Alpha  occ. eigenvalues --   -0.72857  -0.72159  -0.70981  -0.70951  -0.70456
 Alpha  occ. eigenvalues --   -0.70247  -0.70043  -0.69509  -0.68930  -0.68496
 Alpha  occ. eigenvalues --   -0.67020  -0.66129  -0.65439  -0.64924  -0.64501
 Alpha  occ. eigenvalues --   -0.63536  -0.62276  -0.61579  -0.61187  -0.60539
 Alpha  occ. eigenvalues --   -0.60298  -0.58973  -0.58575  -0.57877  -0.57372
 Alpha  occ. eigenvalues --   -0.57004  -0.56478  -0.56072  -0.55332  -0.55096
 Alpha  occ. eigenvalues --   -0.54732  -0.53911  -0.53514  -0.53176  -0.52401
 Alpha  occ. eigenvalues --   -0.52275  -0.51459  -0.51179  -0.50581  -0.50547
 Alpha  occ. eigenvalues --   -0.50324  -0.50170  -0.49994  -0.49802  -0.49269
 Alpha  occ. eigenvalues --   -0.48671  -0.48337  -0.48274  -0.48197  -0.48062
 Alpha  occ. eigenvalues --   -0.47706  -0.47493  -0.47298  -0.46961  -0.46791
 Alpha  occ. eigenvalues --   -0.46729  -0.46485  -0.46339  -0.46065  -0.45710
 Alpha  occ. eigenvalues --   -0.45545  -0.45394  -0.45165  -0.44862  -0.44843
 Alpha  occ. eigenvalues --   -0.44598  -0.44372  -0.44215  -0.43988  -0.43663
 Alpha  occ. eigenvalues --   -0.43456  -0.42981  -0.42802  -0.42764  -0.42499
 Alpha  occ. eigenvalues --   -0.42271  -0.41856  -0.41826  -0.41662  -0.41495
 Alpha  occ. eigenvalues --   -0.41128  -0.41076  -0.40970  -0.40810  -0.40527
 Alpha  occ. eigenvalues --   -0.40418  -0.40244  -0.40085  -0.39674  -0.39600
 Alpha  occ. eigenvalues --   -0.39346  -0.39226  -0.38967  -0.38736  -0.38680
 Alpha  occ. eigenvalues --   -0.38558  -0.38433  -0.38322  -0.38194  -0.37710
 Alpha  occ. eigenvalues --   -0.37488  -0.37424  -0.37255  -0.37111  -0.36913
 Alpha  occ. eigenvalues --   -0.36718  -0.36528  -0.36369  -0.36031  -0.35818
 Alpha  occ. eigenvalues --   -0.35696  -0.35351  -0.35299  -0.35214  -0.35027
 Alpha  occ. eigenvalues --   -0.34646  -0.34451  -0.34074  -0.33826  -0.33395
 Alpha  occ. eigenvalues --   -0.33363  -0.32616  -0.32244  -0.31999  -0.31943
 Alpha  occ. eigenvalues --   -0.31385  -0.31254  -0.31072  -0.30905  -0.30796
 Alpha  occ. eigenvalues --   -0.29936  -0.29683  -0.28987  -0.28466  -0.27636
 Alpha  occ. eigenvalues --   -0.26829  -0.26454  -0.26109  -0.25566  -0.21448
 Alpha  occ. eigenvalues --   -0.20434
 Alpha virt. eigenvalues --   -0.07986  -0.03888  -0.00128   0.02028   0.02064
 Alpha virt. eigenvalues --    0.03658   0.04554   0.04693   0.05025   0.06060
 Alpha virt. eigenvalues --    0.06385   0.07328   0.08448   0.08962   0.09246

 Mulliken charges:
               1
     1  Mg   0.805416
     2  C    0.056704
     3  C   -0.200873
     4  C   -0.170649
     5  C   -0.143103
     6  N   -0.608453
     7  C    0.300226
     8  C   -0.163800
     9  C   -0.123551
    10  C    0.268049
    11  C   -0.298222
    12  C   -0.160364
    13  C   -0.268528
    14  C    0.608731
    15  O   -0.491747
    16  O   -0.487806
    17  N   -0.701988
    18  C    0.324015
    19  C    0.023779
    20  C    0.022696
    21  C    0.307383
    22  C   -0.391280
    23  C   -0.070415
    24  C   -0.239191
    25  N   -0.697530
    26  C    0.285442
    27  C    0.045763
    28  C    0.030240
    29  C    0.302411
    30  C   -0.368165
    31  C   -0.265877
    32  C   -0.321784
    33  N   -0.706987
    34  C    0.298711
    35  C   -0.022576
    36  C    0.035339
    37  C    0.280112
    38  C   -0.368761
    39  C    0.362350
    40  O   -0.461912
    41  C   -0.307618
    42  C    0.604236
    43  O   -0.382553
    44  O   -0.480208
    45  C   -0.067976
    46  C    0.000531
    47  C   -0.110393
    48  C    0.151952
    49  C   -0.356634
    50  C   -0.222446
    51  C   -0.161231
    52  C   -0.183186
    53  C   -0.028726
    54  C   -0.303251
    55  C   -0.181066
    56  C   -0.155432
    57  C   -0.160985
    58  C   -0.055273
    59  C   -0.282713
    60  C   -0.132400
    61  C   -0.196703
    62  C   -0.171547
    63  C   -0.051649
    64  C   -0.282138
    65  C   -0.300103
    66  H    0.087019
    67  H    0.088961
    68  H    0.076339
    69  H    0.099420
    70  H    0.106568
    71  H    0.107701
    72  H    0.080082
    73  H    0.138273
    74  H    0.107783
    75  H    0.120763
    76  H    0.132920
    77  H    0.127695
    78  H    0.118866
    79  H    0.111297
    80  H    0.120019
    81  H    0.093057
    82  H    0.102261
    83  H    0.102501
    84  H    0.113711
    85  H    0.114302
    86  H    0.103907
    87  H    0.117430
    88  H    0.107177
    89  H    0.114354
    90  H    0.112767
    91  H    0.098045
    92  H    0.121516
    93  H    0.149686
    94  H    0.112245
    95  H    0.158164
    96  H    0.091194
    97  H    0.101985
    98  H    0.120278
    99  H    0.131661
   100  H    0.138517
   101  H    0.084968
   102  H    0.093296
   103  H    0.122224
   104  H    0.116235
   105  H    0.096003
   106  H    0.042209
   107  H    0.116611
   108  H    0.102322
   109  H    0.095561
   110  H    0.090621
   111  H    0.090182
   112  H    0.091860
   113  H    0.098701
   114  H    0.091665
   115  H    0.076306
   116  H    0.090162
   117  H    0.044521
   118  H    0.083024
   119  H    0.071679
   120  H    0.083549
   121  H    0.044284
   122  H    0.056803
   123  H    0.110156
   124  H    0.110844
   125  H    0.103512
   126  H    0.055078
   127  H    0.094741
   128  H    0.111495
   129  H    0.085856
   130  H    0.095690
   131  H    0.093114
   132  H    0.109759
   133  H    0.071524
   134  H    0.093183
   135  H    0.114622
   136  H    0.045573
   137  H    0.087311
 Sum of Mulliken charges =  -0.00000

 Dipole moment (field-independent basis, Debye):
    X=              1.1641    Y=              5.5911    Z=              0.3935  Tot=              5.7246
 Quadrupole moment (field-independent basis, Debye-Ang):
   XX=           -342.6970   YY=           -404.9457   ZZ=           -397.9233
   XY=            -22.9958   XZ=             11.9333   YZ=             -0.2546

 Normal termination of Gaussian 16 at Mon Sep 23 10:43:52 2019.
