 Gaussian 09, Revision D.01,
 Gaussian 09:  ES64L-G09RevD.01 24-Apr-2013

 -------------------------------------
 # td=(NStates=1) CAM-B3LYP/6-31G(d,p)
 -------------------------------------

 --
 TD
 --
 Symbolic Z-matrix:
 Charge =  0 Multiplicity = 1

                         Standard orientation:
 ---------------------------------------------------------------------
 Center     Atomic      Atomic             Coordinates (Angstroms)
 Number     Number       Type             X           Y           Z
 ---------------------------------------------------------------------
      1         12           0       -7.178211    0.589776    0.015257
      2          6           0       -4.872175   -1.908877    0.488070
      3          6           0       -4.805305    2.881863    1.165002
      4          6           0       -9.453345    3.020054   -0.374484
      5          6           0       -9.407537   -1.808406   -0.980896
      6          7           0       -5.165821    0.459048    0.644812
      7          6           0       -4.343123   -0.673753    0.696746
      8          6           0       -2.923337   -0.289562    1.179198
      9          6           0       -3.079434    1.073293    1.692938
     10          6           0       -4.428313    1.544674    1.158979
     11          6           0       -2.942941    1.351070    3.347569
     12          6           0       -1.880400   -0.522538    0.033323
     13          6           0       -0.372120   -0.478459    0.534624
     14          6           0        0.552793   -0.651034   -0.587895
     15          8           0        0.288943   -1.003153   -1.704301
     16          8           0        1.861340   -0.408057   -0.237847
     17          7           0       -7.022416    2.648518    0.239891
     18          6           0       -6.043018    3.386878    0.649149
     19          6           0       -6.437240    4.782735    0.696765
     20          6           0       -7.786111    4.788424    0.259435
     21          6           0       -8.122857    3.411865   -0.081734
     22          6           0       -5.628989    5.942053    1.137859
     23          6           0       -8.695035    5.974530    0.109845
     24          6           0       -8.539018    7.166281    0.811652
     25          7           0       -9.111732    0.577396   -0.593121
     26          6           0       -9.877615    1.697804   -0.603151
     27          6           0      -11.227601    1.379627   -1.093118
     28          6           0      -11.242736   -0.048253   -1.191280
     29          6           0       -9.921197   -0.480222   -0.898137
     30          6           0      -12.381678    2.364916   -1.203491
     31          6           0      -12.406022   -0.870295   -1.654541
     32          6           0      -12.491053   -1.182297   -3.195807
     33          7           0       -7.201251   -1.401610   -0.344464
     34          6           0       -8.215955   -2.297922   -0.652058
     35          6           0       -7.713944   -3.642384   -0.558388
     36          6           0       -6.407799   -3.575707   -0.152243
     37          6           0       -6.131762   -2.134591    0.083895
     38          6           0       -8.574097   -4.895866   -0.636436
     39          6           0       -5.249794   -4.349358    0.259464
     40          8           0       -5.146654   -5.521403    0.315326
     41          6           0       -4.149126   -3.298171    0.641375
     42          6           0       -3.635466   -3.612865    1.963606
     43          8           0       -3.878494   -2.916468    2.928192
     44          8           0       -2.811676   -4.694265    1.896291
     45          6           0       -2.247209   -4.937412    3.164594
     46          6           0        2.778385   -0.524741   -1.263581
     47          6           0        4.099604   -0.330336   -0.735667
     48          6           0        5.133665    0.418553   -1.133639
     49          6           0        5.068420    1.185188   -2.398662
     50          6           0        6.462566    0.463848   -0.313460
     51          6           0        7.752186   -0.133475   -1.051862
     52          6           0        8.993551   -0.204736   -0.146226
     53          6           0       10.191034   -0.597821   -0.897261
     54          6           0       10.296334   -2.040244   -1.385593
     55          6           0       11.416086   -0.331194    0.009047
     56          6           0       12.866382   -0.519671   -0.673031
     57          6           0       13.974080   -0.086397    0.270115
     58          6           0       15.346181   -0.195811   -0.370150
     59          6           0       15.637854   -1.604122   -0.886018
     60          6           0       16.376612    0.415049    0.602560
     61          6           0       17.799698    0.393690   -0.082491
     62          6           0       18.815063    1.199310    0.814628
     63          6           0       20.258348    1.238849    0.259906
     64          6           0       20.336819    2.022219   -1.117994
     65          6           0       21.241094    1.971430    1.228051
     66          1           0       -4.143536    3.557218    1.533463
     67          1           0      -10.394521    3.710326   -0.359957
     68          1           0      -10.184900   -2.564967   -1.332235
     69          1           0       -2.676221   -0.924879    2.091988
     70          1           0       -2.234955    1.903856    1.061310
     71          1           0       -1.869660    1.125462    3.747860
     72          1           0       -3.249191    2.379485    3.703321
     73          1           0       -3.722928    0.653394    3.766052
     74          1           0       -2.186677   -1.251026   -0.666986
     75          1           0       -2.081750    0.309573   -0.726188
     76          1           0       -0.022150    0.419237    1.227822
     77          1           0       -0.268725   -1.346103    1.308730
     78          1           0       -5.985800    6.757910    0.644301
     79          1           0       -5.533076    6.050168    2.284351
     80          1           0       -4.695606    5.691534    0.895292
     81          1           0       -9.609663    5.720579   -0.480599
     82          1           0       -9.119782    8.207793    0.540857
     83          1           0       -7.743139    6.906335    1.692131
     84          1           0      -11.994549    3.067378   -2.006675
     85          1           0      -13.237496    1.613756   -1.293294
     86          1           0      -12.604829    2.997542   -0.432232
     87          1           0      -12.417192   -1.749133   -1.241362
     88          1           0      -13.305873   -0.190360   -1.505614
     89          1           0      -13.534041   -1.626347   -3.590812
     90          1           0      -12.414796   -0.195961   -3.727848
     91          1           0      -11.563071   -1.956339   -3.399197
     92          1           0       -8.906934   -5.283363   -1.715990
     93          1           0       -8.056180   -5.918556   -0.240428
     94          1           0       -9.478221   -4.634394   -0.190861
     95          1           0       -3.338909   -3.475588   -0.184965
     96          1           0       -1.678018   -4.196489    3.853567
     97          1           0       -2.983619   -5.332604    3.872065
     98          1           0       -1.560173   -5.771194    3.009403
     99          1           0        2.792721   -1.626029   -1.722479
    100          1           0        2.663836    0.105981   -2.160137
    101          1           0        4.321741   -0.762979    0.165616
    102          1           0        4.235109    1.455262   -2.766273
    103          1           0        5.598862    1.995525   -2.158030
    104          1           0        5.769557    0.809314   -3.341322
    105          1           0        6.481180    1.547484    0.093396
    106          1           0        6.241466   -0.048190    0.632411
    107          1           0        7.351490   -1.071240   -1.377844
    108          1           0        8.067791    0.560946   -1.769627
    109          1           0        9.167629    0.846874    0.207690
    110          1           0        8.945345   -0.919817    0.818831
    111          1           0       10.253750    0.066334   -1.765514
    112          1           0        9.786678   -2.292210   -2.557238
    113          1           0       11.350532   -2.222858   -1.512015
    114          1           0       10.020745   -2.857576   -0.653707
    115          1           0       11.380987    0.879018    0.306827
    116          1           0       11.351885   -0.829598    0.890157
    117          1           0       12.899865   -1.485008   -0.730728
    118          1           0       12.891136    0.230205   -1.434550
    119          1           0       13.849867    0.936234    0.717813
    120          1           0       14.083939   -0.932202    1.123296
    121          1           0       15.522672    0.537689   -1.285409
    122          1           0       15.621969   -2.113014   -0.077207
    123          1           0       14.707785   -1.972684   -1.465004
    124          1           0       16.486073   -1.624526   -1.502832
    125          1           0       16.097079    1.433604    0.987565
    126          1           0       16.336087   -0.261891    1.490139
    127          1           0       18.194191   -0.657344   -0.179800
    128          1           0       17.697890    1.066547   -1.094618
    129          1           0       18.554723    2.324012    0.723671
    130          1           0       18.824684    1.068563    1.845893
    131          1           0       20.499548    0.135255    0.014314
    132          1           0       19.947274    3.059387   -0.856365
    133          1           0       21.203157    2.188750   -1.554171
    134          1           0       19.634999    1.431187   -1.770317
    135          1           0       21.153699    1.678404    2.292787
    136          1           0       22.361406    1.926243    0.822011
    137          1           0       21.005857    2.940015    1.436706
 ---------------------------------------------------------------------

 SCF Done:  E(RCAM-B3LYP) =  -2932.63872166     A.U. after   15 cycles

 Excitation energies and oscillator strengths:

 Excited State   1:      Singlet-A      2.1101 eV  587.59 nm  f=0.2224  <S**2>=0.000
     240 -> 243        0.26111
     241 -> 242        0.64665
 This state for optimization and/or second-order correction.
 Total Energy, E(TD-HF/TD-KS) =  -2932.56117865
 Copying the excited state density for this state as the 1-particle RhoCI density.

 The electronic state is 1-A.
 Alpha  occ. eigenvalues --  -46.84120 -19.28019 -19.26168 -19.21829 -19.21512
 Alpha  occ. eigenvalues --  -19.21226 -14.41755 -14.39516 -14.39344 -14.39051
 Alpha  occ. eigenvalues --  -10.39706 -10.39520 -10.35472 -10.31585 -10.31412
 Alpha  occ. eigenvalues --  -10.31403 -10.30998 -10.30273 -10.30217 -10.29466
 Alpha  occ. eigenvalues --  -10.29452 -10.29347 -10.29176 -10.29127 -10.28877
 Alpha  occ. eigenvalues --  -10.28857 -10.28774 -10.28712 -10.28436 -10.28359
 Alpha  occ. eigenvalues --  -10.28141 -10.28137 -10.28006 -10.27720 -10.27712
 Alpha  occ. eigenvalues --  -10.27569 -10.27282 -10.26744 -10.26720 -10.26615
 Alpha  occ. eigenvalues --  -10.26580 -10.26579 -10.26481 -10.26390 -10.26373
 Alpha  occ. eigenvalues --  -10.26153 -10.26077 -10.25937 -10.25901 -10.25772
 Alpha  occ. eigenvalues --  -10.25738 -10.25653 -10.25648 -10.25547 -10.25520
 Alpha  occ. eigenvalues --  -10.25519 -10.25015 -10.24877 -10.24644 -10.24437
 Alpha  occ. eigenvalues --  -10.24012 -10.23802 -10.23587 -10.23425 -10.23193
 Alpha  occ. eigenvalues --   -3.13185  -1.87894  -1.87466  -1.87324  -1.19519
 Alpha  occ. eigenvalues --   -1.19252  -1.14053  -1.10716  -1.10356  -1.04843
 Alpha  occ. eigenvalues --   -1.04019  -1.02760  -1.01958  -0.93127  -0.91403
 Alpha  occ. eigenvalues --   -0.90581  -0.89863  -0.89381  -0.88809  -0.88270
 Alpha  occ. eigenvalues --   -0.87895  -0.87880  -0.87589  -0.86966  -0.85912
 Alpha  occ. eigenvalues --   -0.85029  -0.84524  -0.83634  -0.82581  -0.82255
 Alpha  occ. eigenvalues --   -0.81785  -0.81285  -0.80270  -0.80080  -0.78287
 Alpha  occ. eigenvalues --   -0.77708  -0.76875  -0.76562  -0.76292  -0.75818
 Alpha  occ. eigenvalues --   -0.75587  -0.75267  -0.74217  -0.73444  -0.72755
 Alpha  occ. eigenvalues --   -0.71939  -0.71265  -0.69288  -0.68960  -0.68679
 Alpha  occ. eigenvalues --   -0.66569  -0.66178  -0.65269  -0.64932  -0.64371
 Alpha  occ. eigenvalues --   -0.63920  -0.63546  -0.62793  -0.62614  -0.62415
 Alpha  occ. eigenvalues --   -0.61165  -0.60564  -0.60400  -0.59713  -0.59284
 Alpha  occ. eigenvalues --   -0.58816  -0.58261  -0.58208  -0.57374  -0.57104
 Alpha  occ. eigenvalues --   -0.56658  -0.56372  -0.56055  -0.55455  -0.55076
 Alpha  occ. eigenvalues --   -0.55061  -0.54512  -0.53973  -0.53633  -0.53521
 Alpha  occ. eigenvalues --   -0.53247  -0.52352  -0.52134  -0.51954  -0.51793
 Alpha  occ. eigenvalues --   -0.51301  -0.51248  -0.50865  -0.50559  -0.50455
 Alpha  occ. eigenvalues --   -0.50259  -0.50112  -0.49959  -0.49478  -0.49405
 Alpha  occ. eigenvalues --   -0.49258  -0.49028  -0.48909  -0.48821  -0.48372
 Alpha  occ. eigenvalues --   -0.48217  -0.47541  -0.47373  -0.47288  -0.47112
 Alpha  occ. eigenvalues --   -0.46869  -0.46619  -0.46546  -0.46243  -0.46123
 Alpha  occ. eigenvalues --   -0.45902  -0.45720  -0.45552  -0.45380  -0.45275
 Alpha  occ. eigenvalues --   -0.44684  -0.44399  -0.44247  -0.44190  -0.44021
 Alpha  occ. eigenvalues --   -0.43876  -0.43787  -0.43508  -0.43356  -0.43247
 Alpha  occ. eigenvalues --   -0.43031  -0.42967  -0.42571  -0.42494  -0.42415
 Alpha  occ. eigenvalues --   -0.42276  -0.42045  -0.41956  -0.41600  -0.41341
 Alpha  occ. eigenvalues --   -0.41314  -0.40841  -0.40733  -0.40388  -0.40000
 Alpha  occ. eigenvalues --   -0.39939  -0.39896  -0.39548  -0.39403  -0.39084
 Alpha  occ. eigenvalues --   -0.38978  -0.38573  -0.38364  -0.38313  -0.37874
 Alpha  occ. eigenvalues --   -0.37844  -0.37709  -0.37211  -0.37140  -0.36801
 Alpha  occ. eigenvalues --   -0.36407  -0.36373  -0.36104  -0.36070  -0.35831
 Alpha  occ. eigenvalues --   -0.34950  -0.34848  -0.34721  -0.34582  -0.34520
 Alpha  occ. eigenvalues --   -0.33427  -0.33097  -0.32283  -0.31070  -0.30617
 Alpha  occ. eigenvalues --   -0.29963  -0.28498  -0.27560  -0.26475  -0.23479
 Alpha  occ. eigenvalues --   -0.21415
 Alpha virt. eigenvalues --   -0.06213  -0.03503   0.01187   0.03508   0.04831
 Alpha virt. eigenvalues --    0.05064   0.05978   0.06335   0.07134   0.07239
 Alpha virt. eigenvalues --    0.08250   0.10075   0.10556   0.10925   0.11486

 Mulliken charges:
               1
     1  Mg   0.811715
     2  C    0.053302
     3  C   -0.180260
     4  C   -0.157829
     5  C   -0.218675
     6  N   -0.641147
     7  C    0.267525
     8  C   -0.137280
     9  C   -0.127520
    10  C    0.340156
    11  C   -0.316666
    12  C   -0.180048
    13  C   -0.282341
    14  C    0.639555
    15  O   -0.459307
    16  O   -0.477674
    17  N   -0.693699
    18  C    0.336854
    19  C   -0.028345
    20  C   -0.011577
    21  C    0.275307
    22  C   -0.364515
    23  C   -0.051549
    24  C   -0.280074
    25  N   -0.699532
    26  C    0.295258
    27  C   -0.025134
    28  C    0.009048
    29  C    0.302396
    30  C   -0.357030
    31  C   -0.222046
    32  C   -0.289728
    33  N   -0.737052
    34  C    0.325637
    35  C    0.033684
    36  C   -0.001008
    37  C    0.325168
    38  C   -0.376881
    39  C    0.365480
    40  O   -0.422878
    41  C   -0.340899
    42  C    0.666623
    43  O   -0.475773
    44  O   -0.436259
    45  C   -0.103727
    46  C    0.037860
    47  C   -0.118480
    48  C    0.089348
    49  C   -0.344113
    50  C   -0.247356
    51  C   -0.162901
    52  C   -0.157491
    53  C   -0.039126
    54  C   -0.304567
    55  C   -0.200598
    56  C   -0.150473
    57  C   -0.179862
    58  C   -0.059402
    59  C   -0.303202
    60  C   -0.168797
    61  C   -0.180566
    62  C   -0.170082
    63  C   -0.060254
    64  C   -0.296824
    65  C   -0.312752
    66  H    0.068486
    67  H    0.105967
    68  H    0.084805
    69  H    0.129389
    70  H    0.059100
    71  H    0.103853
    72  H    0.117733
    73  H    0.130923
    74  H    0.140324
    75  H    0.110776
    76  H    0.140386
    77  H    0.141973
    78  H    0.137940
    79  H    0.107375
    80  H    0.118900
    81  H    0.084695
    82  H    0.115894
    83  H    0.114606
    84  H    0.123722
    85  H    0.105344
    86  H    0.135241
    87  H    0.112386
    88  H    0.091445
    89  H    0.090464
    90  H    0.111013
    91  H    0.084006
    92  H    0.108444
    93  H    0.137510
    94  H    0.133494
    95  H    0.165573
    96  H    0.119632
    97  H    0.129138
    98  H    0.120608
    99  H    0.101761
   100  H    0.110560
   101  H    0.072672
   102  H    0.115364
   103  H    0.118043
   104  H    0.082178
   105  H    0.087735
   106  H    0.098834
   107  H    0.117971
   108  H    0.105545
   109  H    0.091791
   110  H    0.066695
   111  H    0.085951
   112  H    0.065326
   113  H    0.108937
   114  H    0.098179
   115  H    0.046046
   116  H    0.101563
   117  H    0.114160
   118  H    0.107080
   119  H    0.089747
   120  H    0.056964
   121  H    0.052246
   122  H    0.110357
   123  H    0.091921
   124  H    0.113521
   125  H    0.093674
   126  H    0.080643
   127  H    0.101978
   128  H    0.089186
   129  H    0.070679
   130  H    0.100034
   131  H    0.071152
   132  H    0.085212
   133  H    0.112260
   134  H    0.092993
   135  H    0.087617
   136  H    0.087693
   137  H    0.112968
 Sum of Mulliken charges =   0.00000

 Dipole moment (field-independent basis, Debye):
    X=              1.2493    Y=              2.8824    Z=              1.7641  Tot=              3.6029
 Quadrupole moment (field-independent basis, Debye-Ang):
   XX=           -356.9886   YY=           -394.2949   ZZ=           -398.1153
   XY=            -11.2452   XZ=              7.6635   YZ=             -2.1453

 Normal termination of Gaussian 09 at Tue Jul  2 14:13:09 2019.
