 Gaussian 09, Revision D.01,
 Gaussian 09:  ES64L-G09RevD.01 24-Apr-2013

 -------------------------------------
 # td=(NStates=1) CAM-B3LYP/6-31G(d,p)
 -------------------------------------

 --
 TD
 --
 Symbolic Z-matrix:
 Charge =  0 Multiplicity = 1

                         Standard orientation:
 ---------------------------------------------------------------------
 Center     Atomic      Atomic             Coordinates (Angstroms)
 Number     Number       Type             X           Y           Z
 ---------------------------------------------------------------------
      1         12           0       -7.129695    0.587453   -0.017136
      2          6           0       -4.838659   -1.937453    0.412433
      3          6           0       -4.909361    2.850178    1.062420
      4          6           0       -9.437101    3.119578   -0.401299
      5          6           0       -9.615541   -1.789217   -0.813154
      6          7           0       -5.158926    0.463708    0.664614
      7          6           0       -4.423441   -0.685311    0.687242
      8          6           0       -2.978556   -0.296898    1.205969
      9          6           0       -3.089583    1.174083    1.607715
     10          6           0       -4.468866    1.511669    1.095079
     11          6           0       -2.951000    1.477448    3.134330
     12          6           0       -1.891197   -0.592941    0.127430
     13          6           0       -0.423912   -0.408935    0.576592
     14          6           0        0.594375   -0.673315   -0.554724
     15          8           0        0.244797   -1.008610   -1.728688
     16          8           0        1.853122   -0.414222   -0.235074
     17          7           0       -7.109230    2.592895    0.322253
     18          6           0       -6.001188    3.339267    0.719310
     19          6           0       -6.414055    4.826440    0.707760
     20          6           0       -7.812532    4.830007    0.309855
     21          6           0       -8.142534    3.423139    0.107449
     22          6           0       -5.572816    5.962743    1.088943
     23          6           0       -8.651839    6.057049    0.052328
     24          6           0       -8.517867    7.151372    0.785572
     25          7           0       -9.130875    0.664905   -0.620529
     26          6           0       -9.843958    1.727687   -0.654355
     27          6           0      -11.208873    1.382299   -1.133041
     28          6           0      -11.341328    0.028353   -1.252376
     29          6           0       -9.919313   -0.417980   -0.915532
     30          6           0      -12.407001    2.363496   -1.351819
     31          6           0      -12.333490   -0.888377   -1.710930
     32          6           0      -12.275832   -1.306871   -3.216585
     33          7           0       -7.271044   -1.450662   -0.235005
     34          6           0       -8.327057   -2.250447   -0.496536
     35          6           0       -7.878066   -3.577152   -0.414444
     36          6           0       -6.581244   -3.577352   -0.105476
     37          6           0       -6.197366   -2.234889    0.131072
     38          6           0       -8.627342   -4.888675   -0.611711
     39          6           0       -5.360272   -4.319036    0.205805
     40          8           0       -5.001861   -5.561891    0.156618
     41          6           0       -4.219011   -3.228660    0.520192
     42          6           0       -3.549510   -3.597686    1.867958
     43          8           0       -3.706185   -3.061028    2.917985
     44          8           0       -2.624414   -4.542035    1.741435
     45          6           0       -2.034852   -5.035482    2.980158
     46          6           0        2.840465   -0.475930   -1.187536
     47          6           0        4.091940   -0.307179   -0.460249
     48          6           0        5.231832    0.361515   -0.856152
     49          6           0        5.196634    1.145379   -2.121482
     50          6           0        6.505616    0.472016   -0.149876
     51          6           0        7.612100   -0.208339   -0.886674
     52          6           0        8.947310   -0.295745   -0.048349
     53          6           0       10.289142   -0.690946   -0.772281
     54          6           0       10.077850   -2.186948   -1.197483
     55          6           0       11.487140   -0.364473    0.076408
     56          6           0       12.774092   -0.674458   -0.674377
     57          6           0       13.970421   -0.245994    0.235042
     58          6           0       15.340252   -0.207150   -0.490012
     59          6           0       15.824467   -1.755378   -0.642117
     60          6           0       16.409715    0.447336    0.419618
     61          6           0       17.743668    0.728502   -0.287415
     62          6           0       18.765086    1.411555    0.667137
     63          6           0       20.235661    1.508547    0.078468
     64          6           0       20.260427    2.208227   -1.303155
     65          6           0       21.253169    1.932735    1.137800
     66          1           0       -4.243577    3.495811    1.427800
     67          1           0      -10.228003    3.588425   -0.355776
     68          1           0      -10.432868   -2.672756   -0.728431
     69          1           0       -2.712822   -0.791769    2.149862
     70          1           0       -2.274974    1.835990    1.128322
     71          1           0       -1.917771    1.206510    3.390390
     72          1           0       -2.932893    2.466038    3.145815
     73          1           0       -3.625661    0.770835    3.726884
     74          1           0       -2.065104   -1.810723    0.024704
     75          1           0       -2.325993   -0.089926   -0.837132
     76          1           0       -0.458498    0.619167    0.887219
     77          1           0       -0.375282   -1.109156    1.487887
     78          1           0       -5.852541    6.871860    0.565942
     79          1           0       -5.593695    6.342253    2.102893
     80          1           0       -4.431238    5.917624    1.030878
     81          1           0       -9.291651    6.267680   -0.914998
     82          1           0       -9.084092    7.975799    0.621273
     83          1           0       -8.011920    7.023864    1.927966
     84          1           0      -12.197121    2.999167   -2.214511
     85          1           0      -13.250899    1.803449   -1.556281
     86          1           0      -12.688046    3.221336   -0.667086
     87          1           0      -12.136024   -1.916179   -1.216813
     88          1           0      -13.286411   -0.415807   -1.685423
     89          1           0      -13.061089   -1.888595   -3.584656
     90          1           0      -12.108168   -0.435430   -3.756082
     91          1           0      -11.369004   -1.957474   -3.220416
     92          1           0       -8.878698   -4.874383   -1.708673
     93          1           0       -7.878138   -5.775762   -0.442130
     94          1           0       -9.558784   -5.198404   -0.069796
     95          1           0       -3.462003   -3.423286   -0.346100
     96          1           0       -1.798136   -3.987226    3.531120
     97          1           0       -2.859869   -5.418304    3.548130
     98          1           0       -1.174480   -5.804143    2.768756
     99          1           0        3.101127   -1.397523   -1.748387
    100          1           0        2.827243    0.364968   -1.804157
    101          1           0        4.188557   -0.910967    0.330620
    102          1           0        4.202163    1.220823   -2.524466
    103          1           0        5.646516    2.131398   -2.162832
    104          1           0        5.728301    0.556422   -2.890080
    105          1           0        6.577738    1.565936   -0.008727
    106          1           0        6.442896   -0.046554    0.731571
    107          1           0        7.221848   -1.206886   -1.161516
    108          1           0        7.935284    0.402364   -1.756615
    109          1           0        9.124638    0.724074    0.405976
    110          1           0        8.940510   -1.025741    0.572850
    111          1           0       10.168400   -0.120712   -1.823217
    112          1           0        8.985271   -2.331997   -1.726573
    113          1           0       11.020570   -2.601788   -1.538650
    114          1           0        9.945257   -3.031769   -0.396406
    115          1           0       11.401998    0.655294    0.190034
    116          1           0       11.411702   -0.940861    1.253299
    117          1           0       12.822271   -1.892564   -0.961883
    118          1           0       12.978668   -0.119729   -1.534472
    119          1           0       13.617625    0.802083    0.570855
    120          1           0       14.110855   -0.883296    1.143338
    121          1           0       15.226854    0.215745   -1.408687
    122          1           0       15.750470   -2.336771    0.297456
    123          1           0       14.995241   -2.204662   -1.360721
    124          1           0       16.698404   -1.837195   -1.111758
    125          1           0       15.765914    1.321594    0.922153
    126          1           0       16.451498   -0.218405    1.440054
    127          1           0       18.231047   -0.149789   -0.533498
    128          1           0       17.720262    1.413273   -1.190411
    129          1           0       18.551431    2.355639    1.099368
    130          1           0       18.851906    0.642605    1.544593
    131          1           0       20.287395    0.387696    0.058264
    132          1           0       20.059531    3.210859   -0.847762
    133          1           0       21.219376    2.439945   -1.665573
    134          1           0       19.614432    1.895121   -1.873349
    135          1           0       21.351442    1.096340    2.090512
    136          1           0       22.163978    1.854640    0.664489
    137          1           0       21.109234    2.992407    1.275218
 ---------------------------------------------------------------------

 SCF Done:  E(RCAM-B3LYP) =  -2932.56683961     A.U. after   16 cycles

 Excitation energies and oscillator strengths:

 Excited State   1:      Singlet-A      2.2097 eV  561.08 nm  f=0.2509  <S**2>=0.000
     240 -> 243       -0.21877
     241 -> 242        0.65442
 This state for optimization and/or second-order correction.
 Total Energy, E(TD-HF/TD-KS) =  -2932.48563367
 Copying the excited state density for this state as the 1-particle RhoCI density.

 The electronic state is 1-A.
 Alpha  occ. eigenvalues --  -46.84793 -19.27896 -19.25054 -19.20552 -19.20176
 Alpha  occ. eigenvalues --  -19.19067 -14.42981 -14.39859 -14.39631 -14.38878
 Alpha  occ. eigenvalues --  -10.40435 -10.38562 -10.35086 -10.32174 -10.32133
 Alpha  occ. eigenvalues --  -10.31127 -10.30787 -10.30368 -10.30091 -10.29669
 Alpha  occ. eigenvalues --  -10.29541 -10.29332 -10.29118 -10.28976 -10.28840
 Alpha  occ. eigenvalues --  -10.28655 -10.28631 -10.28386 -10.28320 -10.27894
 Alpha  occ. eigenvalues --  -10.27586 -10.27267 -10.27109 -10.27084 -10.26980
 Alpha  occ. eigenvalues --  -10.26954 -10.26872 -10.26750 -10.26643 -10.26633
 Alpha  occ. eigenvalues --  -10.26466 -10.26398 -10.26334 -10.26194 -10.26056
 Alpha  occ. eigenvalues --  -10.26021 -10.26015 -10.25986 -10.25795 -10.25692
 Alpha  occ. eigenvalues --  -10.25687 -10.25622 -10.25483 -10.25346 -10.25006
 Alpha  occ. eigenvalues --  -10.24883 -10.24747 -10.24739 -10.24401 -10.24368
 Alpha  occ. eigenvalues --  -10.24241 -10.24223 -10.24136 -10.23968 -10.23196
 Alpha  occ. eigenvalues --   -3.13821  -1.88538  -1.88080  -1.87969  -1.20304
 Alpha  occ. eigenvalues --   -1.18624  -1.08777  -1.07261  -1.06044  -1.05620
 Alpha  occ. eigenvalues --   -1.05020  -1.03610  -1.03054  -0.93424  -0.92320
 Alpha  occ. eigenvalues --   -0.90641  -0.90474  -0.90059  -0.89645  -0.89459
 Alpha  occ. eigenvalues --   -0.88956  -0.88216  -0.87465  -0.87064  -0.86302
 Alpha  occ. eigenvalues --   -0.85549  -0.84394  -0.83876  -0.83499  -0.82926
 Alpha  occ. eigenvalues --   -0.82090  -0.81489  -0.80640  -0.80022  -0.78579
 Alpha  occ. eigenvalues --   -0.78217  -0.77521  -0.77201  -0.76062  -0.76051
 Alpha  occ. eigenvalues --   -0.75022  -0.74658  -0.74178  -0.73892  -0.72663
 Alpha  occ. eigenvalues --   -0.71962  -0.70699  -0.70268  -0.69277  -0.68204
 Alpha  occ. eigenvalues --   -0.67525  -0.66786  -0.65578  -0.65427  -0.64834
 Alpha  occ. eigenvalues --   -0.64525  -0.63786  -0.63617  -0.61848  -0.61815
 Alpha  occ. eigenvalues --   -0.61501  -0.60975  -0.60756  -0.60130  -0.59746
 Alpha  occ. eigenvalues --   -0.59283  -0.58590  -0.58101  -0.57580  -0.57097
 Alpha  occ. eigenvalues --   -0.56683  -0.56051  -0.55867  -0.55384  -0.55113
 Alpha  occ. eigenvalues --   -0.54732  -0.54473  -0.54436  -0.54124  -0.53549
 Alpha  occ. eigenvalues --   -0.53329  -0.53313  -0.52885  -0.52685  -0.52563
 Alpha  occ. eigenvalues --   -0.52216  -0.51727  -0.51528  -0.51262  -0.50861
 Alpha  occ. eigenvalues --   -0.50767  -0.50263  -0.50128  -0.49995  -0.49702
 Alpha  occ. eigenvalues --   -0.49309  -0.48924  -0.48536  -0.48366  -0.48315
 Alpha  occ. eigenvalues --   -0.48068  -0.48028  -0.47718  -0.47330  -0.46977
 Alpha  occ. eigenvalues --   -0.46861  -0.46729  -0.46389  -0.46378  -0.46265
 Alpha  occ. eigenvalues --   -0.45802  -0.45653  -0.45381  -0.45278  -0.45000
 Alpha  occ. eigenvalues --   -0.44913  -0.44578  -0.44516  -0.44317  -0.44203
 Alpha  occ. eigenvalues --   -0.44068  -0.43951  -0.43903  -0.43423  -0.43154
 Alpha  occ. eigenvalues --   -0.43120  -0.42718  -0.42631  -0.42406  -0.42231
 Alpha  occ. eigenvalues --   -0.42029  -0.41825  -0.41593  -0.41505  -0.41086
 Alpha  occ. eigenvalues --   -0.40816  -0.40690  -0.40514  -0.40367  -0.40164
 Alpha  occ. eigenvalues --   -0.40134  -0.40092  -0.39988  -0.39412  -0.39385
 Alpha  occ. eigenvalues --   -0.39174  -0.39118  -0.38557  -0.37943  -0.37737
 Alpha  occ. eigenvalues --   -0.37522  -0.37417  -0.37044  -0.36871  -0.36599
 Alpha  occ. eigenvalues --   -0.36347  -0.36189  -0.35570  -0.35184  -0.34966
 Alpha  occ. eigenvalues --   -0.34899  -0.34177  -0.33811  -0.33584  -0.33277
 Alpha  occ. eigenvalues --   -0.33071  -0.32861  -0.32640  -0.30788  -0.29263
 Alpha  occ. eigenvalues --   -0.29026  -0.28479  -0.28460  -0.28203  -0.23764
 Alpha  occ. eigenvalues --   -0.21113
 Alpha virt. eigenvalues --   -0.06017  -0.03092   0.01175   0.03636   0.04783
 Alpha virt. eigenvalues --    0.05321   0.06165   0.06635   0.06977   0.07304
 Alpha virt. eigenvalues --    0.08157   0.10327   0.10823   0.11153   0.11237

 Mulliken charges:
               1
     1  Mg   0.820147
     2  C    0.147207
     3  C   -0.200672
     4  C   -0.097478
     5  C   -0.159569
     6  N   -0.650518
     7  C    0.284697
     8  C   -0.165665
     9  C   -0.173734
    10  C    0.372689
    11  C   -0.299348
    12  C   -0.156203
    13  C   -0.266077
    14  C    0.606376
    15  O   -0.488129
    16  O   -0.437181
    17  N   -0.743079
    18  C    0.373076
    19  C    0.054188
    20  C   -0.017354
    21  C    0.330606
    22  C   -0.411816
    23  C   -0.079823
    24  C   -0.221501
    25  N   -0.659812
    26  C    0.294050
    27  C   -0.048173
    28  C    0.108220
    29  C    0.232207
    30  C   -0.381109
    31  C   -0.270257
    32  C   -0.305372
    33  N   -0.726385
    34  C    0.298409
    35  C   -0.047514
    36  C    0.100210
    37  C    0.205555
    38  C   -0.391677
    39  C    0.341993
    40  O   -0.510792
    41  C   -0.352366
    42  C    0.619384
    43  O   -0.476082
    44  O   -0.446694
    45  C   -0.085679
    46  C    0.055454
    47  C   -0.173318
    48  C    0.111619
    49  C   -0.381009
    50  C   -0.201541
    51  C   -0.190656
    52  C   -0.163973
    53  C   -0.067492
    54  C   -0.318347
    55  C   -0.145273
    56  C   -0.167769
    57  C   -0.174911
    58  C   -0.065330
    59  C   -0.309760
    60  C   -0.155103
    61  C   -0.175201
    62  C   -0.182979
    63  C   -0.080235
    64  C   -0.289331
    65  C   -0.304499
    66  H    0.059964
    67  H    0.053427
    68  H    0.113985
    69  H    0.119930
    70  H    0.098656
    71  H    0.107949
    72  H    0.120156
    73  H    0.133715
    74  H    0.086742
    75  H    0.112580
    76  H    0.134817
    77  H    0.138831
    78  H    0.137303
    79  H    0.132093
    80  H    0.106424
    81  H    0.106322
    82  H    0.106197
    83  H    0.087535
    84  H    0.118456
    85  H    0.114544
    86  H    0.112837
    87  H    0.100800
    88  H    0.107417
    89  H    0.115200
    90  H    0.117188
    91  H    0.102002
    92  H    0.117167
    93  H    0.137684
    94  H    0.115956
    95  H    0.173636
    96  H    0.118545
    97  H    0.144304
    98  H    0.128963
    99  H    0.140196
   100  H    0.109073
   101  H    0.078300
   102  H    0.107711
   103  H    0.110759
   104  H    0.122583
   105  H    0.104345
   106  H    0.103784
   107  H    0.098863
   108  H    0.094163
   109  H    0.073368
   110  H    0.106779
   111  H    0.070086
   112  H    0.092352
   113  H    0.105010
   114  H    0.077262
   115  H    0.109550
   116  H    0.064592
   117  H    0.070612
   118  H    0.109983
   119  H    0.074044
   120  H    0.089404
   121  H    0.089097
   122  H    0.103130
   123  H    0.074498
   124  H    0.112333
   125  H    0.069961
   126  H    0.070751
   127  H    0.111838
   128  H    0.093833
   129  H    0.088591
   130  H    0.070601
   131  H    0.070577
   132  H    0.091205
   133  H    0.109411
   134  H    0.109174
   135  H    0.084195
   136  H    0.116031
   137  H    0.101333
 Sum of Mulliken charges =   0.00000

 Dipole moment (field-independent basis, Debye):
    X=              2.1302    Y=              7.1546    Z=              1.1003  Tot=              7.5456
 Quadrupole moment (field-independent basis, Debye-Ang):
   XX=           -332.9606   YY=           -393.4210   ZZ=           -399.6375
   XY=            -28.9772   XZ=              2.6825   YZ=             -4.4739

 Normal termination of Gaussian 09 at Tue Jul  2 22:27:59 2019.
