 Gaussian 16, Revision A.03,
 Gaussian 16:  ES64L-G16RevA.03 25-Dec-2016

 ----------------------------------------------------------------------
 # td=(NStates=1) iop(3/107=0140000000,3/108=0140000000) CAM-B3LYP/6-31
 G(d,p)
 ----------------------------------------------------------------------

 --
 TD
 --
 Symbolic Z-matrix:
 Charge =  0 Multiplicity = 1

                         Standard orientation:
 ---------------------------------------------------------------------
 Center     Atomic      Atomic             Coordinates (Angstroms)
 Number     Number       Type             X           Y           Z
 ---------------------------------------------------------------------
      1         12           0       -7.118894    0.566291    0.187240
      2          6           0       -4.818663   -1.984497    0.488217
      3          6           0       -4.809518    2.813530    1.188970
      4          6           0       -9.452599    3.048273   -0.388124
      5          6           0       -9.436488   -1.770098   -0.967138
      6          7           0       -5.095798    0.343496    0.720144
      7          6           0       -4.329027   -0.740118    0.796646
      8          6           0       -2.924206   -0.412911    1.249509
      9          6           0       -3.141230    1.097670    1.717990
     10          6           0       -4.436246    1.424260    1.129494
     11          6           0       -3.041133    1.188028    3.321050
     12          6           0       -1.998890   -0.592403    0.097071
     13          6           0       -0.528303   -0.419424    0.541818
     14          6           0        0.528803   -0.504874   -0.524101
     15          8           0        0.342484   -0.785499   -1.753404
     16          8           0        1.711650   -0.214159   -0.081756
     17          7           0       -7.046706    2.512550    0.360073
     18          6           0       -6.017301    3.333627    0.818324
     19          6           0       -6.388861    4.726477    0.862214
     20          6           0       -7.799063    4.818698    0.431601
     21          6           0       -8.144965    3.424659    0.167057
     22          6           0       -5.535972    5.844839    1.165980
     23          6           0       -8.518076    6.009324    0.192854
     24          6           0       -8.479132    7.209792    0.910802
     25          7           0       -9.083656    0.615103   -0.471575
     26          6           0       -9.865347    1.774643   -0.673306
     27          6           0      -11.169887    1.379231   -1.229721
     28          6           0      -11.148783   -0.017384   -1.407093
     29          6           0       -9.770444   -0.427849   -0.906032
     30          6           0      -12.180500    2.405285   -1.555008
     31          6           0      -12.227728   -0.834648   -1.958646
     32          6           0      -12.070064   -1.194847   -3.489246
     33          7           0       -7.268989   -1.417991   -0.179888
     34          6           0       -8.259948   -2.257523   -0.571338
     35          6           0       -7.833324   -3.654181   -0.490012
     36          6           0       -6.485023   -3.560939   -0.047409
     37          6           0       -6.171794   -2.199602    0.057211
     38          6           0       -8.553631   -5.004419   -0.937838
     39          6           0       -5.301556   -4.369877    0.250581
     40          8           0       -5.071711   -5.572104    0.178343
     41          6           0       -4.132404   -3.379453    0.626044
     42          6           0       -3.513507   -3.685267    1.930148
     43          8           0       -3.683402   -3.083096    3.018691
     44          8           0       -2.774822   -4.788089    1.823214
     45          6           0       -2.211509   -5.143352    2.991298
     46          6           0        2.835451   -0.211298   -1.073049
     47          6           0        4.114542   -0.048126   -0.453848
     48          6           0        5.124036    0.689250   -1.039748
     49          6           0        5.135351    1.218300   -2.320832
     50          6           0        6.502547    0.653794   -0.256602
     51          6           0        7.544333    0.076553   -1.033791
     52          6           0        8.825367    0.052722   -0.239467
     53          6           0       10.156966   -0.490626   -0.845524
     54          6           0       10.040104   -1.971771   -1.192323
     55          6           0       11.326903   -0.225759    0.080346
     56          6           0       12.706517   -0.482099   -0.689288
     57          6           0       13.905581   -0.162605    0.246353
     58          6           0       15.253290   -0.266566   -0.474048
     59          6           0       15.590104   -1.609958   -0.917165
     60          6           0       16.278908    0.380299    0.478768
     61          6           0       17.749637    0.485943   -0.166026
     62          6           0       18.754627    1.123068    0.659122
     63          6           0       20.248588    1.201222    0.169927
     64          6           0       20.320170    1.939217   -1.229817
     65          6           0       21.151459    1.694803    1.282010
     66          1           0       -4.070695    3.389562    1.609497
     67          1           0      -10.155367    3.706024   -0.366144
     68          1           0      -10.271646   -2.438358   -1.251454
     69          1           0       -2.437128   -1.132068    2.062844
     70          1           0       -2.334445    1.693494    1.143759
     71          1           0       -1.956969    0.992019    3.464279
     72          1           0       -3.219493    2.253090    3.440342
     73          1           0       -3.827063    0.376702    3.785779
     74          1           0       -2.039036   -1.647905   -0.335296
     75          1           0       -2.231692    0.157527   -0.609115
     76          1           0       -0.364003    0.590348    1.092085
     77          1           0       -0.244896   -1.110150    1.381384
     78          1           0       -5.909100    6.764621    0.540837
     79          1           0       -5.516297    6.273762    2.205357
     80          1           0       -4.529622    5.771081    0.922660
     81          1           0       -9.547082    5.812174   -0.439056
     82          1           0       -9.085747    7.986072    0.433759
     83          1           0       -7.907911    7.359667    1.626778
     84          1           0      -11.782690    3.079859   -2.194753
     85          1           0      -13.291647    1.896938   -1.953733
     86          1           0      -12.475501    2.822685   -0.701578
     87          1           0      -12.341783   -1.658420   -1.251453
     88          1           0      -13.035880   -0.077130   -1.876396
     89          1           0      -12.971765   -1.546788   -3.755192
     90          1           0      -11.937962   -0.287735   -4.070053
     91          1           0      -11.209068   -2.018601   -3.774809
     92          1           0       -8.378241   -4.990818   -2.040988
     93          1           0       -7.837879   -5.837508   -0.498154
     94          1           0       -9.473410   -5.110303   -0.484650
     95          1           0       -3.381599   -3.523584   -0.269172
     96          1           0       -1.631094   -4.249110    3.552721
     97          1           0       -2.953905   -5.473650    3.611863
     98          1           0       -1.544667   -5.948279    2.785458
     99          1           0        2.649017   -1.257170   -1.444292
    100          1           0        2.541587    0.346482   -2.067716
    101          1           0        4.260573   -0.232846    0.666225
    102          1           0        4.169306    1.153314   -2.736160
    103          1           0        5.613097    2.260555   -2.373177
    104          1           0        5.711371    0.642428   -3.160846
    105          1           0        6.711039    1.622077    0.328245
    106          1           0        6.203035    0.053599    0.595743
    107          1           0        6.995624   -0.929849   -1.300580
    108          1           0        7.990542    0.407490   -2.008106
    109          1           0        9.143569    1.042967    0.099863
    110          1           0        8.864508   -0.605873    0.722408
    111          1           0       10.300381   -0.096569   -1.825732
    112          1           0        9.239903   -2.013729   -1.840047
    113          1           0       10.892902   -2.594800   -1.702592
    114          1           0        9.834895   -2.590756   -0.346390
    115          1           0       11.382134    0.684607    0.483791
    116          1           0       11.293054   -0.831698    1.005304
    117          1           0       12.713321   -1.617518   -1.146333
    118          1           0       12.672061    0.249011   -1.348114
    119          1           0       13.671546    0.964181    0.680788
    120          1           0       13.833733   -0.933209    1.067815
    121          1           0       15.138015    0.334701   -1.442532
    122          1           0       15.857042   -2.336632   -0.059318
    123          1           0       14.848169   -2.143670   -1.344049
    124          1           0       16.390031   -1.661453   -1.743299
    125          1           0       15.792769    1.260320    1.166538
    126          1           0       16.370113   -0.242569    1.333555
    127          1           0       18.119565   -0.454584   -0.365572
    128          1           0       17.796153    1.062103   -1.229766
    129          1           0       18.557947    2.136706    0.916524
    130          1           0       18.803584    0.497022    1.659661
    131          1           0       20.475476    0.076417   -0.134566
    132          1           0       20.012154    3.108222   -1.165956
    133          1           0       21.336157    1.856370   -1.643665
    134          1           0       19.675131    1.624089   -2.163701
    135          1           0       21.216224    0.955186    2.108592
    136          1           0       22.241490    1.711210    0.923337
    137          1           0       20.888256    2.648430    1.668643
 ---------------------------------------------------------------------

 SCF Done:  E(RCAM-B3LYP) =  -2933.51686406     A.U. after   16 cycles

 Excitation energies and oscillator strengths:

 Excited State   1:      Singlet-A      1.9426 eV  638.25 nm  f=0.2794  <S**2>=0.000
     240 -> 243        0.20739
     241 -> 242        0.66873
 This state for optimization and/or second-order correction.
 Total Energy, E(TD-HF/TD-DFT) =  -2933.44547665
 Copying the excited state density for this state as the 1-particle RhoCI density.

 The electronic state is 1-A.
 Alpha  occ. eigenvalues --  -46.79180 -19.22835 -19.22389 -19.16628 -19.16259
 Alpha  occ. eigenvalues --  -19.14974 -14.37736 -14.35432 -14.34995 -14.34800
 Alpha  occ. eigenvalues --  -10.34804 -10.34062 -10.30806 -10.28458 -10.26085
 Alpha  occ. eigenvalues --  -10.25887 -10.25662 -10.25530 -10.24917 -10.24746
 Alpha  occ. eigenvalues --  -10.24534 -10.24342 -10.24337 -10.24231 -10.24218
 Alpha  occ. eigenvalues --  -10.24139 -10.24029 -10.23509 -10.23402 -10.23353
 Alpha  occ. eigenvalues --  -10.23069 -10.23041 -10.22959 -10.22899 -10.22824
 Alpha  occ. eigenvalues --  -10.22754 -10.22738 -10.22362 -10.22257 -10.22179
 Alpha  occ. eigenvalues --  -10.22059 -10.21959 -10.21956 -10.21895 -10.21813
 Alpha  occ. eigenvalues --  -10.21731 -10.21665 -10.21600 -10.21569 -10.21561
 Alpha  occ. eigenvalues --  -10.21514 -10.21483 -10.21477 -10.21472 -10.21206
 Alpha  occ. eigenvalues --  -10.21191 -10.21120 -10.21098 -10.20821 -10.20749
 Alpha  occ. eigenvalues --  -10.20610 -10.20040 -10.19881 -10.19585 -10.19281
 Alpha  occ. eigenvalues --   -3.07972  -1.82895  -1.82442  -1.82402  -1.15751
 Alpha  occ. eigenvalues --   -1.13345  -1.05685  -1.03325  -1.00951  -1.00459
 Alpha  occ. eigenvalues --   -0.98945  -0.97064  -0.95719  -0.87687  -0.87542
 Alpha  occ. eigenvalues --   -0.85554  -0.85122  -0.84602  -0.84078  -0.83696
 Alpha  occ. eigenvalues --   -0.83476  -0.83086  -0.82906  -0.81741  -0.81153
 Alpha  occ. eigenvalues --   -0.80575  -0.79790  -0.79296  -0.78045  -0.77994
 Alpha  occ. eigenvalues --   -0.77578  -0.76999  -0.76135  -0.75803  -0.73483
 Alpha  occ. eigenvalues --   -0.73283  -0.72656  -0.71910  -0.71783  -0.71109
 Alpha  occ. eigenvalues --   -0.70505  -0.70400  -0.69806  -0.68727  -0.67922
 Alpha  occ. eigenvalues --   -0.67322  -0.66079  -0.65485  -0.64585  -0.64033
 Alpha  occ. eigenvalues --   -0.63598  -0.62204  -0.61093  -0.60470  -0.60229
 Alpha  occ. eigenvalues --   -0.60057  -0.59578  -0.59055  -0.58855  -0.58259
 Alpha  occ. eigenvalues --   -0.57157  -0.56479  -0.56138  -0.55600  -0.55197
 Alpha  occ. eigenvalues --   -0.54873  -0.54243  -0.54154  -0.53396  -0.52909
 Alpha  occ. eigenvalues --   -0.52169  -0.51787  -0.51437  -0.51276  -0.50984
 Alpha  occ. eigenvalues --   -0.50755  -0.50497  -0.49950  -0.49883  -0.49491
 Alpha  occ. eigenvalues --   -0.49153  -0.48721  -0.48658  -0.48531  -0.47932
 Alpha  occ. eigenvalues --   -0.47790  -0.47659  -0.47330  -0.47003  -0.46950
 Alpha  occ. eigenvalues --   -0.46697  -0.46342  -0.46161  -0.46049  -0.45931
 Alpha  occ. eigenvalues --   -0.45654  -0.45564  -0.45423  -0.45169  -0.44936
 Alpha  occ. eigenvalues --   -0.44820  -0.44546  -0.44303  -0.44209  -0.43868
 Alpha  occ. eigenvalues --   -0.43404  -0.43113  -0.42754  -0.42714  -0.42372
 Alpha  occ. eigenvalues --   -0.42248  -0.42020  -0.41999  -0.41766  -0.41511
 Alpha  occ. eigenvalues --   -0.41312  -0.41125  -0.40955  -0.40884  -0.40836
 Alpha  occ. eigenvalues --   -0.40480  -0.40305  -0.40066  -0.39963  -0.39708
 Alpha  occ. eigenvalues --   -0.39552  -0.39260  -0.39206  -0.39031  -0.38881
 Alpha  occ. eigenvalues --   -0.38750  -0.38513  -0.38454  -0.38028  -0.37907
 Alpha  occ. eigenvalues --   -0.37744  -0.37723  -0.37568  -0.37326  -0.37108
 Alpha  occ. eigenvalues --   -0.37062  -0.36935  -0.36483  -0.36406  -0.36116
 Alpha  occ. eigenvalues --   -0.35595  -0.35321  -0.35160  -0.34956  -0.34572
 Alpha  occ. eigenvalues --   -0.34397  -0.34282  -0.34050  -0.33743  -0.33592
 Alpha  occ. eigenvalues --   -0.32886  -0.32658  -0.32634  -0.32522  -0.32435
 Alpha  occ. eigenvalues --   -0.32353  -0.31993  -0.31922  -0.30363  -0.30102
 Alpha  occ. eigenvalues --   -0.30065  -0.29565  -0.28818  -0.28273  -0.27162
 Alpha  occ. eigenvalues --   -0.26762  -0.26453  -0.25359  -0.24041  -0.21759
 Alpha  occ. eigenvalues --   -0.19474
 Alpha virt. eigenvalues --   -0.07288  -0.03628  -0.00674   0.01115   0.02017
 Alpha virt. eigenvalues --    0.02776   0.03897   0.04395   0.04771   0.06054
 Alpha virt. eigenvalues --    0.06912   0.08970   0.09079   0.09777   0.09857

 Mulliken charges:
               1
     1  Mg   0.808255
     2  C    0.036299
     3  C   -0.182642
     4  C   -0.146964
     5  C   -0.178812
     6  N   -0.640571
     7  C    0.328508
     8  C   -0.157695
     9  C   -0.190952
    10  C    0.353219
    11  C   -0.285329
    12  C   -0.148898
    13  C   -0.281533
    14  C    0.606898
    15  O   -0.530372
    16  O   -0.456001
    17  N   -0.723636
    18  C    0.350637
    19  C    0.042386
    20  C    0.062443
    21  C    0.257092
    22  C   -0.412031
    23  C   -0.127595
    24  C   -0.204539
    25  N   -0.696325
    26  C    0.287667
    27  C    0.020932
    28  C    0.016668
    29  C    0.333600
    30  C   -0.368462
    31  C   -0.257386
    32  C   -0.301154
    33  N   -0.734293
    34  C    0.311104
    35  C   -0.023475
    36  C    0.033416
    37  C    0.313243
    38  C   -0.366355
    39  C    0.346140
    40  O   -0.464390
    41  C   -0.313132
    42  C    0.628597
    43  O   -0.505145
    44  O   -0.385048
    45  C   -0.082063
    46  C   -0.000530
    47  C   -0.126463
    48  C    0.122274
    49  C   -0.367220
    50  C   -0.224549
    51  C   -0.145815
    52  C   -0.174964
    53  C   -0.083394
    54  C   -0.304533
    55  C   -0.176115
    56  C   -0.172817
    57  C   -0.180233
    58  C   -0.023768
    59  C   -0.309578
    60  C   -0.171954
    61  C   -0.163554
    62  C   -0.152199
    63  C   -0.045196
    64  C   -0.310360
    65  C   -0.311151
    66  H    0.068173
    67  H    0.059067
    68  H    0.084153
    69  H    0.103090
    70  H    0.095851
    71  H    0.114756
    72  H    0.112925
    73  H    0.130971
    74  H    0.114512
    75  H    0.119792
    76  H    0.120402
    77  H    0.129178
    78  H    0.109953
    79  H    0.117750
    80  H    0.122267
    81  H    0.072887
    82  H    0.104149
    83  H    0.092332
    84  H    0.137476
    85  H    0.070976
    86  H    0.143191
    87  H    0.111000
    88  H    0.100036
    89  H    0.122843
    90  H    0.116667
    91  H    0.089624
    92  H    0.141968
    93  H    0.138022
    94  H    0.133525
    95  H    0.160437
    96  H    0.097654
    97  H    0.131718
    98  H    0.115209
    99  H    0.134921
   100  H    0.138862
   101  H    0.103483
   102  H    0.107810
   103  H    0.117785
   104  H    0.116569
   105  H    0.085250
   106  H    0.109482
   107  H    0.091897
   108  H    0.098987
   109  H    0.096913
   110  H    0.076136
   111  H    0.081651
   112  H    0.103889
   113  H    0.082561
   114  H    0.099738
   115  H    0.089733
   116  H    0.081043
   117  H    0.077277
   118  H    0.109570
   119  H    0.066042
   120  H    0.085658
   121  H    0.076089
   122  H    0.082892
   123  H    0.114277
   124  H    0.095819
   125  H    0.066190
   126  H    0.098455
   127  H    0.108788
   128  H    0.063413
   129  H    0.090897
   130  H    0.058384
   131  H    0.064665
   132  H    0.075171
   133  H    0.103204
   134  H    0.096709
   135  H    0.109541
   136  H    0.092825
   137  H    0.114679
 Sum of Mulliken charges =  -0.00000

 Dipole moment (field-independent basis, Debye):
    X=              1.2051    Y=              3.7240    Z=              0.4602  Tot=              3.9411
 Quadrupole moment (field-independent basis, Debye-Ang):
   XX=           -342.9313   YY=           -395.8027   ZZ=           -397.1323
   XY=            -17.7133   XZ=             10.3453   YZ=              0.9655

 Normal termination of Gaussian 16 at Tue Sep 17 23:43:39 2019.
