 Gaussian 16, Revision A.03,
 Gaussian 16:  ES64L-G16RevA.03 25-Dec-2016

 ----------------------------------------------------------------------
 # td=(NStates=1) iop(3/107=0140000000,3/108=0140000000) CAM-B3LYP/6-31
 G(d,p)
 ----------------------------------------------------------------------

 --
 TD
 --
 Symbolic Z-matrix:
 Charge =  0 Multiplicity = 1

                         Standard orientation:
 ---------------------------------------------------------------------
 Center     Atomic      Atomic             Coordinates (Angstroms)
 Number     Number       Type             X           Y           Z
 ---------------------------------------------------------------------
      1         12           0       -7.144087    0.591408    0.139201
      2          6           0       -4.897062   -1.932128    0.496874
      3          6           0       -4.825774    2.813517    1.107732
      4          6           0       -9.423051    3.170825   -0.271176
      5          6           0       -9.536662   -1.687872   -0.930883
      6          7           0       -5.075581    0.418620    0.708272
      7          6           0       -4.364900   -0.650269    0.689955
      8          6           0       -2.937389   -0.397741    1.157413
      9          6           0       -2.973418    1.037304    1.726257
     10          6           0       -4.354905    1.473662    1.196568
     11          6           0       -2.870326    1.207419    3.215658
     12          6           0       -1.891005   -0.569774   -0.059791
     13          6           0       -0.459854   -0.449066    0.502051
     14          6           0        0.499855   -0.689300   -0.643995
     15          8           0        0.201913   -1.070936   -1.734538
     16          8           0        1.773692   -0.496948   -0.187649
     17          7           0       -7.130391    2.648456    0.300070
     18          6           0       -6.117625    3.376192    0.798895
     19          6           0       -6.337743    4.743023    0.877577
     20          6           0       -7.635117    4.882468    0.311984
     21          6           0       -8.093715    3.548238    0.031693
     22          6           0       -5.418692    5.840209    1.335796
     23          6           0       -8.382706    6.039021    0.151892
     24          6           0       -8.192801    7.358796    0.619387
     25          7           0       -9.087221    0.697499   -0.582432
     26          6           0       -9.883908    1.871458   -0.670737
     27          6           0      -11.249119    1.516603   -1.073825
     28          6           0      -11.269987    0.212235   -1.185110
     29          6           0       -9.974118   -0.358682   -0.910388
     30          6           0      -12.330731    2.535344   -1.473923
     31          6           0      -12.375229   -0.636123   -1.709200
     32          6           0      -12.286576   -1.100494   -3.118800
     33          7           0       -7.263104   -1.331768   -0.208234
     34          6           0       -8.277196   -2.150368   -0.563071
     35          6           0       -7.919682   -3.522805   -0.435349
     36          6           0       -6.517005   -3.514918   -0.179786
     37          6           0       -6.228154   -2.152829    0.153010
     38          6           0       -8.694825   -4.724339   -0.839323
     39          6           0       -5.365021   -4.347649    0.195561
     40          8           0       -5.276317   -5.564012    0.361107
     41          6           0       -4.259307   -3.263114    0.610995
     42          6           0       -3.555569   -3.745817    1.913639
     43          8           0       -3.698056   -3.196682    3.046171
     44          8           0       -2.744443   -4.789209    1.821793
     45          6           0       -2.350147   -5.336245    3.031702
     46          6           0        2.782168   -0.730299   -1.220161
     47          6           0        4.128982   -0.510242   -0.488738
     48          6           0        5.135206    0.113827   -1.075626
     49          6           0        5.227746    0.979645   -2.265862
     50          6           0        6.397755    0.316819   -0.257626
     51          6           0        7.674236   -0.276887   -1.071545
     52          6           0        8.828913   -0.329701   -0.180651
     53          6           0       10.218426   -0.684395   -0.906614
     54          6           0       10.082949   -2.190938   -1.271440
     55          6           0       11.479347   -0.402345   -0.152586
     56          6           0       12.860783   -0.724411   -0.753195
     57          6           0       13.965613   -0.055711    0.056296
     58          6           0       15.360595   -0.117964   -0.561429
     59          6           0       15.813942   -1.545336   -1.021303
     60          6           0       16.446785    0.373365    0.401836
     61          6           0       17.821587    0.559924   -0.148417
     62          6           0       18.704672    1.433194    0.799685
     63          6           0       20.177636    1.521612    0.371232
     64          6           0       20.329866    2.372087   -0.874997
     65          6           0       21.033797    2.069654    1.454607
     66          1           0       -4.080767    3.375841    1.445400
     67          1           0      -10.141753    3.939062   -0.363136
     68          1           0      -10.344106   -2.504198   -1.073719
     69          1           0       -2.697127   -1.129067    1.777372
     70          1           0       -2.074857    1.416251    1.158501
     71          1           0       -1.899396    0.957650    3.642464
     72          1           0       -2.918752    2.375522    3.562634
     73          1           0       -3.613807    0.531319    3.794575
     74          1           0       -1.988950   -1.568049   -0.447829
     75          1           0       -2.067034    0.157757   -0.841998
     76          1           0       -0.264084    0.508559    0.782054
     77          1           0        0.054128   -0.923797    1.388270
     78          1           0       -5.728018    6.818209    0.789678
     79          1           0       -5.711999    6.129606    2.458221
     80          1           0       -4.292535    5.969452    1.156601
     81          1           0       -9.019597    6.127238   -0.852448
     82          1           0       -8.729640    8.314154    0.094739
     83          1           0       -7.383222    7.582773    1.360622
     84          1           0      -12.127587    3.189825   -2.335633
     85          1           0      -13.169335    1.852663   -1.780016
     86          1           0      -12.530238    3.245289   -0.901114
     87          1           0      -12.333550   -1.538903   -1.065131
     88          1           0      -13.530558   -0.103445   -1.419804
     89          1           0      -13.052184   -1.876886   -3.491474
     90          1           0      -12.417222   -0.288657   -3.824287
     91          1           0      -11.384230   -1.741599   -3.419538
     92          1           0       -9.037814   -4.821220   -1.948068
     93          1           0       -8.193772   -5.649897   -0.685244
     94          1           0       -9.791834   -4.713719   -0.425470
     95          1           0       -3.327849   -3.399351   -0.129366
     96          1           0       -1.997281   -4.382369    3.664699
     97          1           0       -3.358323   -5.619724    3.412884
     98          1           0       -1.638889   -6.054995    2.849617
     99          1           0        2.641011   -1.834626   -1.532222
    100          1           0        2.542387   -0.087470   -2.070731
    101          1           0        4.243607   -1.049112    0.461009
    102          1           0        4.244253    0.823738   -2.919128
    103          1           0        5.324655    2.070953   -1.896154
    104          1           0        6.125805    0.681991   -2.971802
    105          1           0        6.530895    1.466634   -0.042521
    106          1           0        6.196425   -0.294098    0.605722
    107          1           0        7.521573   -1.322464   -1.385171
    108          1           0        7.848052    0.125074   -2.109377
    109          1           0        9.085700    0.653882    0.236253
    110          1           0        8.878659   -0.919457    0.785665
    111          1           0       10.236922   -0.072571   -1.908662
    112          1           0        9.054680   -1.953133   -1.933007
    113          1           0       10.876621   -2.718369   -2.015445
    114          1           0       10.034523   -2.608010   -0.387566
    115          1           0       11.511502    0.667259    0.225661
    116          1           0       11.561857   -1.023515    0.715235
    117          1           0       12.933207   -1.742859   -0.718120
    118          1           0       13.043441   -0.551349   -1.834942
    119          1           0       13.683539    0.964750    0.768258
    120          1           0       14.177642   -0.889821    0.724869
    121          1           0       15.213945    0.572593   -1.389805
    122          1           0       15.833074   -2.094558   -0.096422
    123          1           0       14.817106   -1.917179   -1.747801
    124          1           0       16.911411   -1.554138   -1.496782
    125          1           0       15.905883    1.333184    0.736341
    126          1           0       16.701089   -0.266550    1.276835
    127          1           0       18.374523   -0.499998   -0.404952
    128          1           0       17.832286    1.047977   -1.085551
    129          1           0       18.084767    2.420710    1.063599
    130          1           0       18.682387    0.822526    1.715430
    131          1           0       20.443704    0.557351   -0.085946
    132          1           0       19.625691    3.412819   -0.779354
    133          1           0       21.266081    2.784810   -1.124715
    134          1           0       19.921006    1.905662   -1.807226
    135          1           0       21.016575    1.428941    2.342881
    136          1           0       22.234215    1.856046    1.148611
    137          1           0       20.871042    3.030762    1.597278
 ---------------------------------------------------------------------

 SCF Done:  E(RCAM-B3LYP) =  -2933.46867961     A.U. after   16 cycles

 Excitation energies and oscillator strengths:

 Excited State   1:      Singlet-A      1.9841 eV  624.88 nm  f=0.2967  <S**2>=0.000
     240 -> 243       -0.24566
     241 -> 242        0.65154
 This state for optimization and/or second-order correction.
 Total Energy, E(TD-HF/TD-DFT) =  -2933.39576457
 Copying the excited state density for this state as the 1-particle RhoCI density.

 The electronic state is 1-A.
 Alpha  occ. eigenvalues --  -46.80207 -19.22167 -19.21534 -19.17083 -19.16722
 Alpha  occ. eigenvalues --  -19.15608 -14.37741 -14.35400 -14.35246 -14.35244
 Alpha  occ. eigenvalues --  -10.34732 -10.33991 -10.31318 -10.27986 -10.26365
 Alpha  occ. eigenvalues --  -10.26264 -10.25874 -10.25803 -10.25090 -10.25011
 Alpha  occ. eigenvalues --  -10.24927 -10.24800 -10.24700 -10.24672 -10.24271
 Alpha  occ. eigenvalues --  -10.24033 -10.23955 -10.23927 -10.23851 -10.23646
 Alpha  occ. eigenvalues --  -10.23478 -10.23378 -10.23101 -10.22968 -10.22846
 Alpha  occ. eigenvalues --  -10.22814 -10.22794 -10.22755 -10.22734 -10.22709
 Alpha  occ. eigenvalues --  -10.22669 -10.22561 -10.22369 -10.22280 -10.22274
 Alpha  occ. eigenvalues --  -10.22220 -10.22102 -10.21908 -10.21769 -10.21689
 Alpha  occ. eigenvalues --  -10.21680 -10.21590 -10.21519 -10.21414 -10.21411
 Alpha  occ. eigenvalues --  -10.21410 -10.21227 -10.21192 -10.21185 -10.20925
 Alpha  occ. eigenvalues --  -10.20777 -10.20713 -10.20521 -10.20390 -10.20300
 Alpha  occ. eigenvalues --   -3.08833  -1.83768  -1.83292  -1.83256  -1.14455
 Alpha  occ. eigenvalues --   -1.12913  -1.05606  -1.05080  -1.01654  -1.01134
 Alpha  occ. eigenvalues --   -0.99855  -0.99335  -0.96133  -0.88024  -0.86597
 Alpha  occ. eigenvalues --   -0.85910  -0.85362  -0.84742  -0.84138  -0.83987
 Alpha  occ. eigenvalues --   -0.83766  -0.83326  -0.82434  -0.82229  -0.81333
 Alpha  occ. eigenvalues --   -0.80646  -0.79324  -0.78853  -0.78168  -0.77311
 Alpha  occ. eigenvalues --   -0.76774  -0.76498  -0.75441  -0.74871  -0.73849
 Alpha  occ. eigenvalues --   -0.73554  -0.72516  -0.71898  -0.71186  -0.70893
 Alpha  occ. eigenvalues --   -0.70834  -0.69823  -0.69032  -0.68757  -0.68181
 Alpha  occ. eigenvalues --   -0.67370  -0.66431  -0.65287  -0.64931  -0.64264
 Alpha  occ. eigenvalues --   -0.63173  -0.62790  -0.61669  -0.60765  -0.60490
 Alpha  occ. eigenvalues --   -0.59939  -0.58775  -0.58664  -0.58358  -0.57745
 Alpha  occ. eigenvalues --   -0.57627  -0.56579  -0.56499  -0.56099  -0.55378
 Alpha  occ. eigenvalues --   -0.54636  -0.54351  -0.53757  -0.53210  -0.52632
 Alpha  occ. eigenvalues --   -0.52400  -0.52155  -0.51475  -0.51264  -0.50676
 Alpha  occ. eigenvalues --   -0.50443  -0.50309  -0.50254  -0.50192  -0.49655
 Alpha  occ. eigenvalues --   -0.49136  -0.48663  -0.48107  -0.48003  -0.47859
 Alpha  occ. eigenvalues --   -0.47515  -0.47384  -0.46951  -0.46820  -0.46784
 Alpha  occ. eigenvalues --   -0.46516  -0.46331  -0.46195  -0.46017  -0.45781
 Alpha  occ. eigenvalues --   -0.45588  -0.45490  -0.45194  -0.44960  -0.44758
 Alpha  occ. eigenvalues --   -0.44649  -0.44314  -0.44108  -0.43830  -0.43630
 Alpha  occ. eigenvalues --   -0.43441  -0.43296  -0.43193  -0.43159  -0.42663
 Alpha  occ. eigenvalues --   -0.42609  -0.42173  -0.42149  -0.41916  -0.41763
 Alpha  occ. eigenvalues --   -0.41549  -0.41460  -0.41260  -0.40966  -0.40844
 Alpha  occ. eigenvalues --   -0.40769  -0.40388  -0.40151  -0.40012  -0.39747
 Alpha  occ. eigenvalues --   -0.39607  -0.39444  -0.39266  -0.39203  -0.39138
 Alpha  occ. eigenvalues --   -0.39061  -0.38917  -0.38711  -0.38360  -0.38269
 Alpha  occ. eigenvalues --   -0.38186  -0.38019  -0.37484  -0.37433  -0.36706
 Alpha  occ. eigenvalues --   -0.36623  -0.36255  -0.36113  -0.36003  -0.35767
 Alpha  occ. eigenvalues --   -0.35655  -0.35422  -0.34988  -0.34866  -0.34390
 Alpha  occ. eigenvalues --   -0.34264  -0.33968  -0.33913  -0.33618  -0.33436
 Alpha  occ. eigenvalues --   -0.33298  -0.33255  -0.32991  -0.32096  -0.31879
 Alpha  occ. eigenvalues --   -0.31670  -0.31414  -0.31064  -0.30917  -0.30569
 Alpha  occ. eigenvalues --   -0.30461  -0.30085  -0.29097  -0.28307  -0.27619
 Alpha  occ. eigenvalues --   -0.27500  -0.26928  -0.26461  -0.24639  -0.21449
 Alpha  occ. eigenvalues --   -0.20244
 Alpha virt. eigenvalues --   -0.07682  -0.04123  -0.00772   0.01422   0.03303
 Alpha virt. eigenvalues --    0.03902   0.04092   0.04639   0.04993   0.05753
 Alpha virt. eigenvalues --    0.06369   0.08459   0.08986   0.09191   0.09402

 Mulliken charges:
               1
     1  Mg   0.821937
     2  C    0.111654
     3  C   -0.144175
     4  C   -0.158703
     5  C   -0.192447
     6  N   -0.607435
     7  C    0.332458
     8  C   -0.146971
     9  C   -0.123443
    10  C    0.257339
    11  C   -0.303529
    12  C   -0.197605
    13  C   -0.282803
    14  C    0.607570
    15  O   -0.462518
    16  O   -0.492194
    17  N   -0.685121
    18  C    0.285472
    19  C    0.099535
    20  C    0.029429
    21  C    0.306195
    22  C   -0.404729
    23  C   -0.125512
    24  C   -0.254435
    25  N   -0.675907
    26  C    0.254179
    27  C    0.034821
    28  C    0.057340
    29  C    0.308083
    30  C   -0.351399
    31  C   -0.239284
    32  C   -0.305157
    33  N   -0.734626
    34  C    0.332457
    35  C    0.029172
    36  C   -0.006778
    37  C    0.265797
    38  C   -0.389179
    39  C    0.380472
    40  O   -0.463744
    41  C   -0.342864
    42  C    0.601049
    43  O   -0.513605
    44  O   -0.406796
    45  C   -0.075822
    46  C    0.007174
    47  C   -0.141239
    48  C    0.153421
    49  C   -0.347225
    50  C   -0.220237
    51  C   -0.197094
    52  C   -0.169148
    53  C   -0.086437
    54  C   -0.266367
    55  C   -0.170632
    56  C   -0.195465
    57  C   -0.161398
    58  C   -0.075482
    59  C   -0.296359
    60  C   -0.154335
    61  C   -0.183756
    62  C   -0.155542
    63  C   -0.045557
    64  C   -0.302777
    65  C   -0.287928
    66  H    0.054901
    67  H    0.079204
    68  H    0.083006
    69  H    0.112991
    70  H    0.102476
    71  H    0.113291
    72  H    0.089733
    73  H    0.126723
    74  H    0.128015
    75  H    0.126964
    76  H    0.143020
    77  H    0.141731
    78  H    0.116202
    79  H    0.114775
    80  H    0.120874
    81  H    0.081824
    82  H    0.096431
    83  H    0.095601
    84  H    0.117534
    85  H    0.105101
    86  H    0.127682
    87  H    0.104193
    88  H    0.066490
    89  H    0.095832
    90  H    0.116385
    91  H    0.107077
    92  H    0.117453
    93  H    0.150776
    94  H    0.105752
    95  H    0.140990
    96  H    0.119895
    97  H    0.132728
    98  H    0.124855
    99  H    0.119420
   100  H    0.124620
   101  H    0.097527
   102  H    0.086725
   103  H    0.122080
   104  H    0.113686
   105  H    0.095722
   106  H    0.101238
   107  H    0.114555
   108  H    0.099773
   109  H    0.091483
   110  H    0.090594
   111  H    0.064950
   112  H    0.069207
   113  H    0.080695
   114  H    0.112490
   115  H    0.076747
   116  H    0.090349
   117  H    0.114597
   118  H    0.079473
   119  H    0.069289
   120  H    0.095123
   121  H    0.087874
   122  H    0.110294
   123  H    0.065892
   124  H    0.102624
   125  H    0.075886
   126  H    0.088319
   127  H    0.061409
   128  H    0.103529
   129  H    0.078805
   130  H    0.084496
   131  H    0.094501
   132  H    0.050767
   133  H    0.110825
   134  H    0.098113
   135  H    0.103469
   136  H    0.059086
   137  H    0.121468
 Sum of Mulliken charges =  -0.00000

 Dipole moment (field-independent basis, Debye):
    X=              2.0936    Y=              3.5991    Z=             -0.0583  Tot=              4.1641
 Quadrupole moment (field-independent basis, Debye-Ang):
   XX=           -360.1078   YY=           -397.2897   ZZ=           -401.5542
   XY=            -17.9208   XZ=             20.5333   YZ=             -0.8414

 Normal termination of Gaussian 16 at Wed Sep 11 01:34:54 2019.
