 Gaussian 16, Revision A.03,
 Gaussian 16:  ES64L-G16RevA.03 25-Dec-2016

 ----------------------------------------------------------------------
 # td=(NStates=1) iop(3/107=0140000000,3/108=0140000000) CAM-B3LYP/6-31
 G(d,p)
 ----------------------------------------------------------------------

 --
 TD
 --
 Symbolic Z-matrix:
 Charge =  0 Multiplicity = 1

                         Standard orientation:
 ---------------------------------------------------------------------
 Center     Atomic      Atomic             Coordinates (Angstroms)
 Number     Number       Type             X           Y           Z
 ---------------------------------------------------------------------
      1         12           0       -7.164650    0.635294    0.136630
      2          6           0       -4.839128   -1.988114    0.522503
      3          6           0       -4.739904    2.818113    1.303605
      4          6           0       -9.397481    3.152731   -0.227380
      5          6           0       -9.583670   -1.721894   -0.936826
      6          7           0       -5.063208    0.392406    0.687583
      7          6           0       -4.292918   -0.783329    0.842928
      8          6           0       -2.953949   -0.501535    1.178966
      9          6           0       -3.014636    1.054444    1.771339
     10          6           0       -4.338732    1.430458    1.226351
     11          6           0       -2.840080    1.135627    3.296764
     12          6           0       -1.960180   -0.735123    0.054671
     13          6           0       -0.451120   -0.576350    0.486644
     14          6           0        0.481824   -0.725900   -0.561362
     15          8           0        0.231554   -1.244308   -1.660620
     16          8           0        1.740580   -0.330297   -0.182025
     17          7           0       -7.090625    2.637086    0.424148
     18          6           0       -5.953271    3.394044    0.825713
     19          6           0       -6.253327    4.871178    0.783821
     20          6           0       -7.554418    4.825531    0.293710
     21          6           0       -8.058236    3.506556    0.090200
     22          6           0       -5.333172    5.882376    1.183272
     23          6           0       -8.285458    6.116539   -0.010006
     24          6           0       -8.185310    7.277011    0.603107
     25          7           0       -9.064612    0.784858   -0.450296
     26          6           0       -9.837431    1.885042   -0.532093
     27          6           0      -11.145176    1.657500   -1.132935
     28          6           0      -11.237777    0.288212   -1.264545
     29          6           0       -9.984965   -0.228414   -0.899623
     30          6           0      -12.247535    2.670579   -1.332527
     31          6           0      -12.347940   -0.609333   -1.800026
     32          6           0      -12.194464   -1.129445   -3.202344
     33          7           0       -7.256052   -1.380439   -0.220921
     34          6           0       -8.323839   -2.175025   -0.618922
     35          6           0       -7.871986   -3.634430   -0.516247
     36          6           0       -6.594624   -3.536431   -0.132443
     37          6           0       -6.180470   -2.159848    0.045614
     38          6           0       -8.726885   -4.707547   -0.935252
     39          6           0       -5.387821   -4.328624    0.115613
     40          8           0       -5.315712   -5.582348    0.159866
     41          6           0       -4.269723   -3.351157    0.483630
     42          6           0       -3.631757   -3.764042    1.886455
     43          8           0       -3.893877   -3.205349    2.923734
     44          8           0       -2.831069   -4.771757    1.717509
     45          6           0       -2.254253   -5.349762    2.907650
     46          6           0        2.863923   -0.783956   -1.146950
     47          6           0        4.174106   -0.448993   -0.431827
     48          6           0        5.181048    0.294378   -0.902498
     49          6           0        5.126080    1.100255   -2.212139
     50          6           0        6.473235    0.405879   -0.089694
     51          6           0        7.585723   -0.275944   -0.933476
     52          6           0        8.913119   -0.219652   -0.124630
     53          6           0       10.121779   -0.618470   -0.854408
     54          6           0       10.172221   -1.988514   -1.342737
     55          6           0       11.348351   -0.332929    0.022715
     56          6           0       12.774084   -0.383320   -0.711928
     57          6           0       13.914333   -0.012243    0.154925
     58          6           0       15.273350   -0.253914   -0.399329
     59          6           0       15.624941   -1.796830   -0.672890
     60          6           0       16.387380    0.366187    0.494076
     61          6           0       17.736843    0.572923   -0.180984
     62          6           0       18.719740    1.413249    0.712261
     63          6           0       20.143366    1.427638    0.084687
     64          6           0       20.247112    2.241939   -1.217405
     65          6           0       20.996504    2.050292    1.213588
     66          1           0       -3.980098    3.351989    1.770008
     67          1           0      -10.036351    3.861133   -0.808259
     68          1           0      -10.277187   -2.563424   -1.168781
     69          1           0       -2.677847   -1.157338    1.964768
     70          1           0       -2.328097    1.698550    1.478618
     71          1           0       -1.799035    0.834291    3.567892
     72          1           0       -2.799146    2.240731    3.589488
     73          1           0       -3.768899    0.577306    3.803060
     74          1           0       -2.031803   -1.896913   -0.407977
     75          1           0       -2.053450    0.072365   -0.778295
     76          1           0       -0.134229    0.267765    1.042942
     77          1           0       -0.210075   -1.287452    1.315707
     78          1           0       -5.499880    6.813398    0.661993
     79          1           0       -5.341495    6.044946    2.183849
     80          1           0       -4.320315    5.517696    0.677231
     81          1           0       -8.928924    6.257200   -0.850822
     82          1           0       -8.915891    8.040800   -0.052938
     83          1           0       -7.838344    7.473589    1.711151
     84          1           0      -11.735134    3.381622   -2.191419
     85          1           0      -13.049191    2.088482   -1.846492
     86          1           0      -12.542661    3.135426   -0.432512
     87          1           0      -12.406646   -1.528351   -1.185010
     88          1           0      -13.248471   -0.005437   -1.670627
     89          1           0      -13.245818   -1.548855   -3.687994
     90          1           0      -12.048530   -0.233744   -3.862117
     91          1           0      -11.127696   -1.739292   -3.380945
     92          1           0       -9.023114   -4.507129   -2.092278
     93          1           0       -8.213021   -5.581199   -0.862792
     94          1           0       -9.606325   -4.704597   -0.206641
     95          1           0       -3.468026   -3.382170   -0.387538
     96          1           0       -1.446481   -4.609187    3.185383
     97          1           0       -3.157822   -5.559711    3.556852
     98          1           0       -1.678174   -6.326989    2.446124
     99          1           0        2.931430   -1.769180   -1.454520
    100          1           0        2.646916   -0.392565   -2.086930
    101          1           0        4.323035   -1.043753    0.399727
    102          1           0        4.043111    1.095073   -2.645269
    103          1           0        5.457107    2.087840   -1.789028
    104          1           0        5.771252    0.456370   -2.752279
    105          1           0        6.742141    1.405054    0.058079
    106          1           0        6.319566   -0.117624    0.769137
    107          1           0        7.226263   -1.161662   -1.430685
    108          1           0        7.750508    0.098154   -1.809935
    109          1           0        8.996202    0.688161    0.399801
    110          1           0        8.637557   -1.005106    0.772275
    111          1           0       10.232294   -0.002664   -1.841914
    112          1           0        9.411646   -2.267331   -2.028533
    113          1           0       11.149001   -2.198145   -2.033726
    114          1           0       10.090415   -2.819765   -0.507777
    115          1           0       11.230896    0.577667    0.386295
    116          1           0       11.510581   -1.026377    0.812168
    117          1           0       12.908139   -1.431661   -1.400621
    118          1           0       12.863909    0.391898   -1.373140
    119          1           0       13.495788    0.982542    0.300904
    120          1           0       13.655266   -0.457224    1.012205
    121          1           0       15.356723    0.205329   -1.548377
    122          1           0       15.878769   -2.373332    0.295630
    123          1           0       14.917146   -2.316201   -1.259984
    124          1           0       16.595821   -1.757107   -1.298274
    125          1           0       16.069715    1.338536    0.894699
    126          1           0       16.678435   -0.320303    1.391012
    127          1           0       18.151845   -0.330502   -0.685956
    128          1           0       17.719916    1.158742   -1.170076
    129          1           0       18.344912    2.427783    0.970526
    130          1           0       18.898245    0.822529    1.579961
    131          1           0       20.389354    0.395639   -0.012433
    132          1           0       19.871667    3.122035   -0.869464
    133          1           0       21.304828    2.318293   -1.314345
    134          1           0       19.640472    1.738807   -2.066737
    135          1           0       20.992429    1.520743    2.008862
    136          1           0       21.996307    2.160833    0.845787
    137          1           0       20.659497    2.878840    1.442122
 ---------------------------------------------------------------------

 SCF Done:  E(RCAM-B3LYP) =  -2933.45326938     A.U. after   16 cycles

 Excitation energies and oscillator strengths:

 Excited State   1:      Singlet-A      1.9440 eV  637.79 nm  f=0.2065  <S**2>=0.000
     240 -> 243       -0.22863
     241 -> 242        0.66306
 This state for optimization and/or second-order correction.
 Total Energy, E(TD-HF/TD-DFT) =  -2933.38182996
 Copying the excited state density for this state as the 1-particle RhoCI density.

 The electronic state is 1-A.
 Alpha  occ. eigenvalues --  -46.79306 -19.22760 -19.21617 -19.16849 -19.15870
 Alpha  occ. eigenvalues --  -19.15622 -14.37451 -14.35175 -14.34879 -14.34686
 Alpha  occ. eigenvalues --  -10.34811 -10.33708 -10.30127 -10.29548 -10.26710
 Alpha  occ. eigenvalues --  -10.26177 -10.25620 -10.25525 -10.25077 -10.25071
 Alpha  occ. eigenvalues --  -10.24726 -10.24722 -10.24570 -10.24229 -10.23834
 Alpha  occ. eigenvalues --  -10.23513 -10.23425 -10.23411 -10.23186 -10.23170
 Alpha  occ. eigenvalues --  -10.22888 -10.22835 -10.22823 -10.22769 -10.22757
 Alpha  occ. eigenvalues --  -10.22565 -10.22512 -10.22315 -10.22176 -10.22126
 Alpha  occ. eigenvalues --  -10.22030 -10.22004 -10.21983 -10.21928 -10.21649
 Alpha  occ. eigenvalues --  -10.21593 -10.21439 -10.21402 -10.21350 -10.21203
 Alpha  occ. eigenvalues --  -10.21161 -10.21159 -10.21046 -10.21032 -10.20815
 Alpha  occ. eigenvalues --  -10.20663 -10.20594 -10.20587 -10.20425 -10.20147
 Alpha  occ. eigenvalues --  -10.20143 -10.19813 -10.19477 -10.18960 -10.16310
 Alpha  occ. eigenvalues --   -3.07927  -1.82868  -1.82405  -1.82329  -1.15027
 Alpha  occ. eigenvalues --   -1.10333  -1.05326  -1.03554  -1.01903  -0.98388
 Alpha  occ. eigenvalues --   -0.97385  -0.97334  -0.96195  -0.87718  -0.87159
 Alpha  occ. eigenvalues --   -0.85862  -0.84916  -0.84684  -0.83950  -0.83894
 Alpha  occ. eigenvalues --   -0.83436  -0.83169  -0.82565  -0.81792  -0.81391
 Alpha  occ. eigenvalues --   -0.80336  -0.79779  -0.79003  -0.78533  -0.77793
 Alpha  occ. eigenvalues --   -0.76739  -0.76256  -0.75957  -0.75310  -0.74447
 Alpha  occ. eigenvalues --   -0.73183  -0.72875  -0.72253  -0.72056  -0.71512
 Alpha  occ. eigenvalues --   -0.71317  -0.69813  -0.69707  -0.69055  -0.67814
 Alpha  occ. eigenvalues --   -0.66702  -0.66291  -0.65573  -0.64054  -0.64023
 Alpha  occ. eigenvalues --   -0.63034  -0.61428  -0.60471  -0.59780  -0.59562
 Alpha  occ. eigenvalues --   -0.59332  -0.59329  -0.58932  -0.58736  -0.57934
 Alpha  occ. eigenvalues --   -0.57516  -0.56149  -0.55921  -0.55169  -0.54917
 Alpha  occ. eigenvalues --   -0.54327  -0.53724  -0.53572  -0.53178  -0.52573
 Alpha  occ. eigenvalues --   -0.52473  -0.51745  -0.51539  -0.51424  -0.50974
 Alpha  occ. eigenvalues --   -0.50776  -0.50370  -0.50116  -0.49817  -0.49210
 Alpha  occ. eigenvalues --   -0.48882  -0.48773  -0.48521  -0.48344  -0.48118
 Alpha  occ. eigenvalues --   -0.47959  -0.47688  -0.47488  -0.47340  -0.47030
 Alpha  occ. eigenvalues --   -0.46808  -0.46574  -0.46341  -0.46208  -0.45857
 Alpha  occ. eigenvalues --   -0.45681  -0.45489  -0.45127  -0.45072  -0.44727
 Alpha  occ. eigenvalues --   -0.44311  -0.44115  -0.43935  -0.43729  -0.43621
 Alpha  occ. eigenvalues --   -0.43496  -0.43381  -0.43106  -0.42839  -0.42569
 Alpha  occ. eigenvalues --   -0.42281  -0.42164  -0.41860  -0.41683  -0.41543
 Alpha  occ. eigenvalues --   -0.41474  -0.41284  -0.40834  -0.40811  -0.40703
 Alpha  occ. eigenvalues --   -0.40617  -0.40415  -0.40255  -0.39987  -0.39974
 Alpha  occ. eigenvalues --   -0.39780  -0.39514  -0.39397  -0.39230  -0.38797
 Alpha  occ. eigenvalues --   -0.38771  -0.38427  -0.38392  -0.38204  -0.38021
 Alpha  occ. eigenvalues --   -0.37576  -0.37480  -0.37407  -0.37136  -0.37062
 Alpha  occ. eigenvalues --   -0.36591  -0.36444  -0.36240  -0.35973  -0.35815
 Alpha  occ. eigenvalues --   -0.35743  -0.35527  -0.34826  -0.34689  -0.34684
 Alpha  occ. eigenvalues --   -0.34264  -0.34132  -0.33802  -0.33702  -0.33245
 Alpha  occ. eigenvalues --   -0.33233  -0.32934  -0.32502  -0.32427  -0.32359
 Alpha  occ. eigenvalues --   -0.32290  -0.32094  -0.31527  -0.30573  -0.30323
 Alpha  occ. eigenvalues --   -0.30290  -0.29661  -0.29105  -0.27949  -0.27123
 Alpha  occ. eigenvalues --   -0.27098  -0.26504  -0.25540  -0.24835  -0.21678
 Alpha  occ. eigenvalues --   -0.18873
 Alpha virt. eigenvalues --   -0.06287  -0.04280  -0.00246   0.03010   0.03308
 Alpha virt. eigenvalues --    0.04643   0.04928   0.05232   0.05429   0.05726
 Alpha virt. eigenvalues --    0.06632   0.08528   0.08952   0.09580   0.10022

 Mulliken charges:
               1
     1  Mg   0.808811
     2  C    0.112357
     3  C   -0.194219
     4  C   -0.172524
     5  C   -0.184631
     6  N   -0.639804
     7  C    0.330687
     8  C   -0.163403
     9  C   -0.141116
    10  C    0.349987
    11  C   -0.307631
    12  C   -0.156897
    13  C   -0.275325
    14  C    0.631490
    15  O   -0.499451
    16  O   -0.500180
    17  N   -0.709246
    18  C    0.266887
    19  C    0.083042
    20  C   -0.047857
    21  C    0.349076
    22  C   -0.383737
    23  C   -0.082491
    24  C   -0.235351
    25  N   -0.676126
    26  C    0.311370
    27  C   -0.011141
    28  C    0.055606
    29  C    0.225733
    30  C   -0.356574
    31  C   -0.225099
    32  C   -0.292024
    33  N   -0.741163
    34  C    0.283218
    35  C    0.014630
    36  C    0.050700
    37  C    0.292274
    38  C   -0.376036
    39  C    0.360925
    40  O   -0.489597
    41  C   -0.350941
    42  C    0.610297
    43  O   -0.473462
    44  O   -0.409370
    45  C   -0.086974
    46  C   -0.005625
    47  C   -0.134750
    48  C    0.070079
    49  C   -0.331900
    50  C   -0.205516
    51  C   -0.195578
    52  C   -0.157816
    53  C   -0.044259
    54  C   -0.292434
    55  C   -0.172635
    56  C   -0.200723
    57  C   -0.153097
    58  C   -0.042261
    59  C   -0.314267
    60  C   -0.156824
    61  C   -0.190325
    62  C   -0.167710
    63  C   -0.092976
    64  C   -0.291287
    65  C   -0.299831
    66  H    0.065194
    67  H    0.082578
    68  H    0.091944
    69  H    0.118766
    70  H    0.107167
    71  H    0.111394
    72  H    0.101303
    73  H    0.121169
    74  H    0.105390
    75  H    0.113333
    76  H    0.135525
    77  H    0.138280
    78  H    0.129792
    79  H    0.139563
    80  H    0.102672
    81  H    0.093729
    82  H    0.068267
    83  H    0.099481
    84  H    0.101437
    85  H    0.111548
    86  H    0.143086
    87  H    0.108992
    88  H    0.096511
    89  H    0.087708
    90  H    0.105114
    91  H    0.093795
    92  H    0.116011
    93  H    0.150555
    94  H    0.125638
    95  H    0.148671
    96  H    0.131617
    97  H    0.151671
    98  H    0.121060
    99  H    0.138029
   100  H    0.125078
   101  H    0.080641
   102  H    0.108111
   103  H    0.119567
   104  H    0.133125
   105  H    0.105638
   106  H    0.110837
   107  H    0.092587
   108  H    0.105010
   109  H    0.099354
   110  H    0.063323
   111  H    0.074141
   112  H    0.100641
   113  H    0.083728
   114  H    0.082923
   115  H    0.089463
   116  H    0.101487
   117  H    0.048663
   118  H    0.100523
   119  H    0.087084
   120  H    0.095140
   121  H    0.055773
   122  H    0.094069
   123  H    0.113393
   124  H    0.093881
   125  H    0.091343
   126  H    0.082010
   127  H    0.087912
   128  H    0.070772
   129  H    0.084649
   130  H    0.092752
   131  H    0.085595
   132  H    0.110851
   133  H    0.103751
   134  H    0.095526
   135  H    0.106032
   136  H    0.084846
   137  H    0.107800
 Sum of Mulliken charges =  -0.00000

 Dipole moment (field-independent basis, Debye):
    X=              3.8092    Y=              2.7126    Z=              1.1812  Tot=              4.8232
 Quadrupole moment (field-independent basis, Debye-Ang):
   XX=           -361.9797   YY=           -398.7040   ZZ=           -394.9081
   XY=             -9.1922   XZ=             15.3273   YZ=             -1.8028

 Normal termination of Gaussian 16 at Tue Sep 17 03:18:58 2019.
