 Gaussian 09, Revision D.01,
 Gaussian 09:  ES64L-G09RevD.01 24-Apr-2013

 -------------------------------------
 # td=(NStates=1) CAM-B3LYP/6-31G(d,p)
 -------------------------------------

 --
 TD
 --
 Symbolic Z-matrix:
 Charge =  0 Multiplicity = 1

                         Standard orientation:
 ---------------------------------------------------------------------
 Center     Atomic      Atomic             Coordinates (Angstroms)
 Number     Number       Type             X           Y           Z
 ---------------------------------------------------------------------
      1         12           0       -7.034043    0.571457    0.075386
      2          6           0       -4.844299   -1.965766    0.521808
      3          6           0       -4.840371    2.844630    1.201226
      4          6           0       -9.379462    3.052132   -0.402974
      5          6           0       -9.465263   -1.717228   -0.918132
      6          7           0       -5.085938    0.426937    0.508006
      7          6           0       -4.362679   -0.744566    0.713860
      8          6           0       -2.889045   -0.497624    1.227669
      9          6           0       -3.095543    0.965461    1.688945
     10          6           0       -4.381296    1.445873    1.105971
     11          6           0       -3.025043    1.204900    3.221354
     12          6           0       -1.875777   -0.686557    0.049510
     13          6           0       -0.444855   -0.487304    0.575810
     14          6           0        0.556963   -0.696731   -0.494573
     15          8           0        0.271272   -1.013794   -1.739105
     16          8           0        1.782582   -0.366601   -0.183648
     17          7           0       -7.119526    2.663063    0.423094
     18          6           0       -6.046718    3.384845    0.880875
     19          6           0       -6.424523    4.866950    0.827308
     20          6           0       -7.771866    4.900177    0.415626
     21          6           0       -8.166738    3.527954    0.145624
     22          6           0       -5.466470    5.860586    1.273621
     23          6           0       -8.572187    6.120127    0.175249
     24          6           0       -8.606077    7.215021    0.926360
     25          7           0       -9.063103    0.685430   -0.489182
     26          6           0       -9.883295    1.832216   -0.618768
     27          6           0      -11.198511    1.489831   -1.210769
     28          6           0      -11.207532    0.169866   -1.308138
     29          6           0       -9.890019   -0.373284   -0.967425
     30          6           0      -12.304100    2.497270   -1.517155
     31          6           0      -12.352660   -0.687838   -1.806009
     32          6           0      -12.067783   -1.041768   -3.262546
     33          7           0       -7.130395   -1.403502   -0.244683
     34          6           0       -8.204019   -2.195236   -0.613566
     35          6           0       -7.865768   -3.643486   -0.515118
     36          6           0       -6.512718   -3.599984   -0.108121
     37          6           0       -6.140247   -2.191423    0.178525
     38          6           0       -8.772846   -4.811250   -0.793988
     39          6           0       -5.408573   -4.384806    0.194662
     40          8           0       -5.167738   -5.586144    0.060489
     41          6           0       -4.273037   -3.416474    0.585721
     42          6           0       -3.518955   -3.806440    1.917519
     43          8           0       -3.864037   -3.312112    3.025154
     44          8           0       -2.708808   -4.856891    1.648838
     45          6           0       -2.235742   -5.443566    2.844367
     46          6           0        2.852703   -0.443742   -1.219757
     47          6           0        4.123724   -0.227690   -0.486187
     48          6           0        5.098498    0.560534   -0.920332
     49          6           0        5.094564    1.352980   -2.216221
     50          6           0        6.458324    0.551162   -0.204259
     51          6           0        7.559796   -0.127216   -1.000787
     52          6           0        8.927839   -0.159016   -0.184800
     53          6           0       10.120148   -0.687149   -0.801375
     54          6           0        9.957726   -2.210831   -1.137435
     55          6           0       11.419258   -0.273865   -0.097158
     56          6           0       12.783817   -0.520640   -0.670446
     57          6           0       13.920111   -0.207560    0.316529
     58          6           0       15.286484   -0.252947   -0.411259
     59          6           0       15.728757   -1.705654   -0.866518
     60          6           0       16.468882    0.388306    0.450184
     61          6           0       17.795555    0.648628   -0.222766
     62          6           0       18.867232    1.354957    0.786789
     63          6           0       20.251234    1.302441    0.214593
     64          6           0       20.230989    2.097488   -1.135452
     65          6           0       21.210153    2.049190    1.135149
     66          1           0       -3.911770    3.367210    1.530614
     67          1           0       -9.961890    3.881930   -0.682250
     68          1           0      -10.175977   -2.393507   -1.149031
     69          1           0       -2.634123   -1.325635    2.059739
     70          1           0       -2.475886    1.780620    1.235718
     71          1           0       -1.920454    1.090731    3.612989
     72          1           0       -3.242474    2.226418    3.343910
     73          1           0       -3.800271    0.825463    3.897899
     74          1           0       -2.173638   -1.650198   -0.238950
     75          1           0       -1.990737   -0.018771   -0.812686
     76          1           0       -0.171552    0.470507    1.127945
     77          1           0       -0.336183   -1.225452    1.378597
     78          1           0       -5.837442    6.850574    1.034814
     79          1           0       -5.132412    5.693456    2.461511
     80          1           0       -4.331283    5.741372    0.654931
     81          1           0       -9.016805    5.909386   -0.832478
     82          1           0       -9.276709    8.117235    0.409848
     83          1           0       -8.085241    7.571241    1.880943
     84          1           0      -11.931307    3.205731   -2.357098
     85          1           0      -13.258512    1.951937   -1.731788
     86          1           0      -12.490998    3.227748   -0.593800
     87          1           0      -12.367227   -1.589653   -1.250078
     88          1           0      -13.280471   -0.002700   -1.513546
     89          1           0      -12.986191   -1.757187   -3.417865
     90          1           0      -12.005675   -0.153308   -3.979889
     91          1           0      -11.082285   -1.317748   -3.380312
     92          1           0       -8.830455   -4.875733   -1.950333
     93          1           0       -8.302871   -5.913674   -0.293676
     94          1           0       -9.740681   -4.518991   -0.352729
     95          1           0       -3.276447   -3.466075   -0.222544
     96          1           0       -1.889604   -4.684108    3.805816
     97          1           0       -2.937505   -6.120709    3.306366
     98          1           0       -1.328292   -6.086603    2.505843
     99          1           0        2.797228   -1.591387   -1.486743
    100          1           0        2.560335    0.394440   -1.912062
    101          1           0        4.188150   -0.750320    0.390951
    102          1           0        4.192863    1.297030   -2.847482
    103          1           0        5.264456    2.336647   -1.977109
    104          1           0        5.850418    0.999219   -2.983207
    105          1           0        7.047212    1.542806    0.118295
    106          1           0        6.257022   -0.088257    0.542681
    107          1           0        7.157861   -0.978419   -1.238651
    108          1           0        8.063426    0.437628   -1.862236
    109          1           0        9.232472    1.014344   -0.180200
    110          1           0        8.801539   -0.705455    0.718234
    111          1           0       10.206351    0.011813   -1.808605
    112          1           0        9.049301   -2.443245   -1.799741
    113          1           0       10.747250   -2.560977   -1.752126
    114          1           0        9.889295   -2.744450   -0.300266
    115          1           0       11.423960    0.745357    0.181760
    116          1           0       11.338156   -0.911531    0.956883
    117          1           0       12.835585   -1.569109   -0.849205
    118          1           0       12.779478    0.173424   -1.640170
    119          1           0       13.751088    0.845600    0.804756
    120          1           0       13.851231   -0.656523    1.329206
    121          1           0       15.014290    0.330648   -1.280865
    122          1           0       15.875398   -2.467213   -0.073658
    123          1           0       15.035388   -2.140107   -1.528023
    124          1           0       16.620044   -1.638391   -1.563244
    125          1           0       15.986139    1.213531    0.906274
    126          1           0       16.570614   -0.178971    1.415426
    127          1           0       18.071589   -0.437444   -0.400203
    128          1           0       17.861117    1.338566   -1.111764
    129          1           0       18.452798    2.535321    0.853643
    130          1           0       18.938105    0.848106    1.842223
    131          1           0       20.659099    0.254190   -0.020540
    132          1           0       19.627397    3.112935   -1.209706
    133          1           0       21.404782    2.337485   -1.323401
    134          1           0       19.737665    1.370920   -1.901832
    135          1           0       20.989125    1.559072    2.165059
    136          1           0       22.304541    1.865652    0.802617
    137          1           0       21.133233    3.253609    0.978595
 ---------------------------------------------------------------------

 SCF Done:  E(RCAM-B3LYP) =  -2932.62476921     A.U. after   18 cycles

 Excitation energies and oscillator strengths:

 Excited State   1:      Singlet-A      1.9029 eV  651.55 nm  f=0.3067  <S**2>=0.000
     240 -> 243        0.21311
     241 -> 242        0.67183
 This state for optimization and/or second-order correction.
 Total Energy, E(TD-HF/TD-KS) =  -2932.55483851
 Copying the excited state density for this state as the 1-particle RhoCI density.

 The electronic state is 1-A.
 Alpha  occ. eigenvalues --  -46.84129 -19.28500 -19.26304 -19.21602 -19.18685
 Alpha  occ. eigenvalues --  -19.18674 -14.42425 -14.39570 -14.39410 -14.39161
 Alpha  occ. eigenvalues --  -10.40413 -10.38890 -10.33623 -10.33488 -10.32976
 Alpha  occ. eigenvalues --  -10.32306 -10.30318 -10.30065 -10.29880 -10.29632
 Alpha  occ. eigenvalues --  -10.29213 -10.29004 -10.28971 -10.28874 -10.28871
 Alpha  occ. eigenvalues --  -10.28858 -10.28753 -10.28614 -10.28568 -10.28503
 Alpha  occ. eigenvalues --  -10.28274 -10.28270 -10.28198 -10.28083 -10.27679
 Alpha  occ. eigenvalues --  -10.27471 -10.27396 -10.27122 -10.26893 -10.26864
 Alpha  occ. eigenvalues --  -10.26742 -10.26646 -10.26587 -10.26521 -10.26408
 Alpha  occ. eigenvalues --  -10.26395 -10.26388 -10.26220 -10.26189 -10.26087
 Alpha  occ. eigenvalues --  -10.26085 -10.26076 -10.26049 -10.25950 -10.25882
 Alpha  occ. eigenvalues --  -10.25850 -10.25724 -10.25707 -10.25652 -10.25617
 Alpha  occ. eigenvalues --  -10.24988 -10.24926 -10.24734 -10.24551 -10.24227
 Alpha  occ. eigenvalues --   -3.13223  -1.87928  -1.87462  -1.87409  -1.18801
 Alpha  occ. eigenvalues --   -1.17531  -1.08978  -1.08326  -1.04400  -1.03337
 Alpha  occ. eigenvalues --   -1.03023  -1.02167  -1.00513  -0.92572  -0.92230
 Alpha  occ. eigenvalues --   -0.90846  -0.89897  -0.89403  -0.89266  -0.88910
 Alpha  occ. eigenvalues --   -0.88289  -0.88121  -0.87630  -0.87062  -0.86287
 Alpha  occ. eigenvalues --   -0.85328  -0.84129  -0.83436  -0.82948  -0.82775
 Alpha  occ. eigenvalues --   -0.81583  -0.81296  -0.80831  -0.80063  -0.78814
 Alpha  occ. eigenvalues --   -0.77561  -0.77112  -0.76308  -0.75780  -0.75210
 Alpha  occ. eigenvalues --   -0.74705  -0.74390  -0.73762  -0.73255  -0.72457
 Alpha  occ. eigenvalues --   -0.71839  -0.70798  -0.69626  -0.69027  -0.68063
 Alpha  occ. eigenvalues --   -0.66984  -0.66768  -0.65489  -0.64643  -0.64447
 Alpha  occ. eigenvalues --   -0.64210  -0.63544  -0.62329  -0.62269  -0.61735
 Alpha  occ. eigenvalues --   -0.60940  -0.60636  -0.59921  -0.59188  -0.58995
 Alpha  occ. eigenvalues --   -0.58629  -0.57649  -0.57381  -0.57336  -0.56814
 Alpha  occ. eigenvalues --   -0.56038  -0.55502  -0.55355  -0.55114  -0.54741
 Alpha  occ. eigenvalues --   -0.54676  -0.54324  -0.53984  -0.53390  -0.52995
 Alpha  occ. eigenvalues --   -0.52579  -0.51878  -0.51815  -0.51548  -0.51440
 Alpha  occ. eigenvalues --   -0.51422  -0.50759  -0.50684  -0.50591  -0.50437
 Alpha  occ. eigenvalues --   -0.50202  -0.49920  -0.49698  -0.49385  -0.49184
 Alpha  occ. eigenvalues --   -0.49067  -0.48717  -0.48470  -0.48378  -0.48275
 Alpha  occ. eigenvalues --   -0.48138  -0.47649  -0.47564  -0.47258  -0.46990
 Alpha  occ. eigenvalues --   -0.46979  -0.46754  -0.46637  -0.46170  -0.45662
 Alpha  occ. eigenvalues --   -0.45496  -0.45291  -0.45154  -0.44833  -0.44766
 Alpha  occ. eigenvalues --   -0.44650  -0.44405  -0.44235  -0.44046  -0.43872
 Alpha  occ. eigenvalues --   -0.43577  -0.43556  -0.43471  -0.43134  -0.42900
 Alpha  occ. eigenvalues --   -0.42780  -0.42450  -0.42278  -0.42123  -0.42076
 Alpha  occ. eigenvalues --   -0.41989  -0.41880  -0.41667  -0.41365  -0.41172
 Alpha  occ. eigenvalues --   -0.41029  -0.40509  -0.40344  -0.40219  -0.40179
 Alpha  occ. eigenvalues --   -0.39983  -0.39702  -0.39491  -0.39130  -0.38862
 Alpha  occ. eigenvalues --   -0.38678  -0.38291  -0.38210  -0.38096  -0.37855
 Alpha  occ. eigenvalues --   -0.37613  -0.37101  -0.37014  -0.36506  -0.36433
 Alpha  occ. eigenvalues --   -0.36351  -0.36244  -0.36181  -0.35765  -0.35308
 Alpha  occ. eigenvalues --   -0.34936  -0.34303  -0.34206  -0.33562  -0.33420
 Alpha  occ. eigenvalues --   -0.33224  -0.32114  -0.31954  -0.30759  -0.30431
 Alpha  occ. eigenvalues --   -0.29426  -0.29322  -0.28520  -0.27409  -0.23745
 Alpha  occ. eigenvalues --   -0.20276
 Alpha virt. eigenvalues --   -0.06487  -0.02577   0.00899   0.03537   0.04695
 Alpha virt. eigenvalues --    0.05126   0.05803   0.06091   0.06456   0.06680
 Alpha virt. eigenvalues --    0.07806   0.10562   0.10579   0.10699   0.11434

 Mulliken charges:
               1
     1  Mg   0.810041
     2  C    0.148805
     3  C   -0.218587
     4  C   -0.189996
     5  C   -0.149405
     6  N   -0.654555
     7  C    0.234428
     8  C   -0.154984
     9  C   -0.154764
    10  C    0.326662
    11  C   -0.304179
    12  C   -0.144267
    13  C   -0.277806
    14  C    0.604816
    15  O   -0.541271
    16  O   -0.475012
    17  N   -0.694915
    18  C    0.339041
    19  C    0.061419
    20  C   -0.021318
    21  C    0.299669
    22  C   -0.366649
    23  C   -0.061445
    24  C   -0.247084
    25  N   -0.663565
    26  C    0.291380
    27  C    0.065139
    28  C   -0.009078
    29  C    0.268529
    30  C   -0.363422
    31  C   -0.219774
    32  C   -0.298553
    33  N   -0.714135
    34  C    0.267542
    35  C    0.044530
    36  C    0.007053
    37  C    0.253175
    38  C   -0.359371
    39  C    0.354245
    40  O   -0.488603
    41  C   -0.305306
    42  C    0.609769
    43  O   -0.485594
    44  O   -0.405214
    45  C   -0.096131
    46  C    0.022620
    47  C   -0.127195
    48  C    0.109763
    49  C   -0.368947
    50  C   -0.210659
    51  C   -0.157161
    52  C   -0.157287
    53  C   -0.052555
    54  C   -0.324859
    55  C   -0.156776
    56  C   -0.162920
    57  C   -0.190576
    58  C   -0.043926
    59  C   -0.327511
    60  C   -0.184904
    61  C   -0.175836
    62  C   -0.151291
    63  C   -0.036547
    64  C   -0.303031
    65  C   -0.287807
    66  H    0.083119
    67  H    0.064472
    68  H    0.071291
    69  H    0.122637
    70  H    0.110854
    71  H    0.096530
    72  H    0.110387
    73  H    0.131016
    74  H    0.121250
    75  H    0.128673
    76  H    0.138148
    77  H    0.137512
    78  H    0.121707
    79  H    0.107154
    80  H    0.081618
    81  H    0.113833
    82  H    0.080350
    83  H    0.125264
    84  H    0.118954
    85  H    0.114681
    86  H    0.111981
    87  H    0.113822
    88  H    0.086293
    89  H    0.099055
    90  H    0.101577
    91  H    0.128201
    92  H    0.134050
    93  H    0.127423
    94  H    0.127857
    95  H    0.129979
    96  H    0.110506
    97  H    0.145100
    98  H    0.115061
    99  H    0.137764
   100  H    0.141400
   101  H    0.099426
   102  H    0.103973
   103  H    0.131649
   104  H    0.122047
   105  H    0.086155
   106  H    0.104839
   107  H    0.098916
   108  H    0.084720
   109  H    0.068034
   110  H    0.087912
   111  H    0.034293
   112  H    0.097732
   113  H    0.111227
   114  H    0.115606
   115  H    0.096584
   116  H    0.041739
   117  H    0.111715
   118  H    0.079352
   119  H    0.068407
   120  H    0.094754
   121  H    0.091571
   122  H    0.102698
   123  H    0.104756
   124  H    0.096831
   125  H    0.085477
   126  H    0.085375
   127  H    0.097059
   128  H    0.101365
   129  H    0.070884
   130  H    0.071694
   131  H    0.093957
   132  H    0.093967
   133  H    0.076220
   134  H    0.096469
   135  H    0.089083
   136  H    0.089631
   137  H    0.090506
 Sum of Mulliken charges =   0.00000

 Dipole moment (field-independent basis, Debye):
    X=              2.1747    Y=              4.2362    Z=              1.0360  Tot=              4.8732
 Quadrupole moment (field-independent basis, Debye-Ang):
   XX=           -350.0600   YY=           -394.7855   ZZ=           -400.8477
   XY=            -27.2152   XZ=              8.1766   YZ=             -5.9860

 Normal termination of Gaussian 09 at Tue Jul  2 15:51:56 2019.
