 Gaussian 16, Revision A.03,
 Gaussian 16:  ES64L-G16RevA.03 25-Dec-2016

 ----------------------------------------------------------------------
 # td=(NStates=1) iop(3/107=0140000000,3/108=0140000000) CAM-B3LYP/6-31
 G(d,p)
 ----------------------------------------------------------------------

 --
 TD
 --
 Symbolic Z-matrix:
 Charge =  0 Multiplicity = 1

                         Standard orientation:
 ---------------------------------------------------------------------
 Center     Atomic      Atomic             Coordinates (Angstroms)
 Number     Number       Type             X           Y           Z
 ---------------------------------------------------------------------
      1         12           0       -7.147801    0.591121    0.091721
      2          6           0       -4.875960   -1.876636    0.518790
      3          6           0       -4.753468    2.891064    1.000555
      4          6           0       -9.420780    3.035180   -0.419419
      5          6           0       -9.476131   -1.737089   -0.877090
      6          7           0       -5.080132    0.512444    0.821469
      7          6           0       -4.361064   -0.644568    0.737757
      8          6           0       -2.928754   -0.304287    1.228350
      9          6           0       -2.993214    1.045072    1.631159
     10          6           0       -4.423618    1.565809    1.174410
     11          6           0       -2.773475    1.319646    3.101671
     12          6           0       -1.942651   -0.621508    0.159076
     13          6           0       -0.401139   -0.522491    0.728426
     14          6           0        0.525551   -0.734231   -0.365322
     15          8           0        0.157056   -0.954850   -1.551792
     16          8           0        1.859245   -0.690790    0.027972
     17          7           0       -7.101107    2.642846    0.257419
     18          6           0       -6.046092    3.400836    0.625572
     19          6           0       -6.394275    4.799553    0.620660
     20          6           0       -7.784836    4.918314    0.347748
     21          6           0       -8.185261    3.487623    0.070967
     22          6           0       -5.464449    5.969737    1.083451
     23          6           0       -8.667905    6.061011    0.150048
     24          6           0       -8.377058    7.257131    0.733417
     25          7           0       -9.115982    0.598410   -0.514864
     26          6           0       -9.896370    1.739739   -0.634009
     27          6           0      -11.240520    1.402829   -1.128314
     28          6           0      -11.242659    0.073539   -1.368739
     29          6           0       -9.873902   -0.407106   -0.938591
     30          6           0      -12.344118    2.401970   -1.538302
     31          6           0      -12.391615   -0.769443   -1.676968
     32          6           0      -12.259344   -1.426050   -3.116247
     33          7           0       -7.184960   -1.397839   -0.171821
     34          6           0       -8.232975   -2.193978   -0.512285
     35          6           0       -7.805933   -3.623920   -0.475237
     36          6           0       -6.485317   -3.552255   -0.051015
     37          6           0       -6.192057   -2.180669    0.039013
     38          6           0       -8.607966   -4.870266   -0.711972
     39          6           0       -5.415082   -4.397386    0.233316
     40          8           0       -5.200340   -5.598802    0.179535
     41          6           0       -4.223050   -3.273083    0.542743
     42          6           0       -3.535041   -3.546952    1.940760
     43          8           0       -3.821940   -3.045269    2.996692
     44          8           0       -2.565605   -4.549561    1.663536
     45          6           0       -1.993593   -5.061155    2.950286
     46          6           0        2.906510   -0.823844   -1.000328
     47          6           0        4.304173   -0.495157   -0.423245
     48          6           0        5.198097    0.368031   -0.940472
     49          6           0        4.983392    1.168236   -2.234585
     50          6           0        6.377030    0.634930   -0.128077
     51          6           0        7.624174   -0.005560   -0.958094
     52          6           0        8.968617   -0.028826   -0.211033
     53          6           0       10.174551   -0.449647   -0.856956
     54          6           0       10.004205   -2.023117   -1.255078
     55          6           0       11.420578   -0.334178   -0.052371
     56          6           0       12.865621   -0.600155   -0.815463
     57          6           0       13.969088   -0.151971    0.082078
     58          6           0       15.298071   -0.106195   -0.676412
     59          6           0       15.622579   -1.578171   -1.102341
     60          6           0       16.361123    0.318167    0.350424
     61          6           0       17.775728    0.366136   -0.218122
     62          6           0       18.703380    1.174984    0.705325
     63          6           0       20.137570    1.359261    0.280461
     64          6           0       20.235055    2.173823   -0.970962
     65          6           0       20.974185    1.936445    1.400208
     66          1           0       -4.039522    3.611286    1.271687
     67          1           0      -10.067696    3.851652   -0.614293
     68          1           0      -10.188360   -2.530114   -1.039345
     69          1           0       -2.722840   -0.984458    1.974734
     70          1           0       -2.203456    1.558099    1.128407
     71          1           0       -1.827446    0.707080    3.393136
     72          1           0       -2.787608    2.409564    3.199984
     73          1           0       -3.640233    1.086081    3.769706
     74          1           0       -1.915216   -1.686164   -0.190630
     75          1           0       -2.040851   -0.068180   -0.669352
     76          1           0       -0.468538    0.530725    1.189443
     77          1           0       -0.325142   -1.199186    1.522281
     78          1           0       -5.718982    6.790343    0.451509
     79          1           0       -5.545256    6.276339    2.064363
     80          1           0       -4.438976    5.423525    0.740441
     81          1           0       -9.456860    5.817472   -0.699565
     82          1           0       -9.173724    8.044972    0.480527
     83          1           0       -7.441579    7.146797    1.360589
     84          1           0      -12.121562    3.068834   -2.450497
     85          1           0      -13.298904    1.855423   -1.814248
     86          1           0      -12.529484    2.924774   -0.536429
     87          1           0      -12.418415   -1.614384   -0.928556
     88          1           0      -13.397165   -0.421418   -1.773407
     89          1           0      -13.238885   -2.063872   -3.204817
     90          1           0      -12.312932   -0.684056   -3.785077
     91          1           0      -11.307643   -2.042599   -3.290489
     92          1           0       -9.007616   -4.741645   -1.716570
     93          1           0       -7.730806   -5.801515   -0.759685
     94          1           0       -9.382276   -4.991614   -0.070436
     95          1           0       -3.402447   -3.536635   -0.210825
     96          1           0       -1.460063   -4.349812    3.459307
     97          1           0       -2.849089   -5.424494    3.650013
     98          1           0       -1.273644   -5.853744    2.422308
     99          1           0        2.930375   -1.991632   -1.325443
    100          1           0        2.326267   -0.285854   -1.928913
    101          1           0        4.317306   -0.904811    0.579559
    102          1           0        4.092182    1.048681   -2.715652
    103          1           0        5.039850    2.381099   -2.170158
    104          1           0        5.749393    0.884518   -2.897558
    105          1           0        6.749642    1.658570    0.126481
    106          1           0        6.257419   -0.015657    0.766750
    107          1           0        7.360950   -1.056739   -1.486514
    108          1           0        7.797568    0.620000   -1.872848
    109          1           0        9.197821    0.969405    0.108934
    110          1           0        8.767129   -0.337391    0.747880
    111          1           0       10.287727    0.053305   -1.980653
    112          1           0        8.968986   -2.336093   -1.543395
    113          1           0       10.655585   -2.281161   -2.111131
    114          1           0       10.383419   -2.546307   -0.458578
    115          1           0       11.423558    0.798204    0.308255
    116          1           0       11.610401   -1.075047    0.801689
    117          1           0       13.039716   -1.574938   -1.227034
    118          1           0       12.891618   -0.046387   -1.744799
    119          1           0       13.705235    0.851736    0.292895
    120          1           0       14.009884   -0.459378    1.171993
    121          1           0       15.312434    0.363300   -1.551632
    122          1           0       15.674082   -2.259900   -0.179213
    123          1           0       15.056822   -2.091942   -1.666788
    124          1           0       16.478434   -1.745565   -1.732990
    125          1           0       16.074346    1.320282    0.709443
    126          1           0       16.428950   -0.368022    1.226042
    127          1           0       18.070870   -0.625215   -0.355085
    128          1           0       17.816864    0.936959   -1.098261
    129          1           0       18.312791    2.331046    1.219709
    130          1           0       18.683382    0.742191    1.621531
    131          1           0       20.368816    0.245941    0.092044
    132          1           0       19.908283    3.278773   -0.974617
    133          1           0       21.322548    2.354257   -1.353709
    134          1           0       19.797396    1.665414   -1.825536
    135          1           0       20.883437    1.377132    2.328556
    136          1           0       22.243098    1.910030    1.200726
    137          1           0       20.942523    3.056788    1.522464
 ---------------------------------------------------------------------

 SCF Done:  E(RCAM-B3LYP) =  -2933.51469987     A.U. after   16 cycles

 Excitation energies and oscillator strengths:

 Excited State   1:      Singlet-A      2.0775 eV  596.79 nm  f=0.2637  <S**2>=0.000
     240 -> 243       -0.22875
     241 -> 242        0.66277
 This state for optimization and/or second-order correction.
 Total Energy, E(TD-HF/TD-DFT) =  -2933.43835270
 Copying the excited state density for this state as the 1-particle RhoCI density.

 The electronic state is 1-A.
 Alpha  occ. eigenvalues --  -46.80858 -19.21564 -19.21347 -19.17710 -19.16660
 Alpha  occ. eigenvalues --  -19.16506 -14.36871 -14.35893 -14.35552 -14.35407
 Alpha  occ. eigenvalues --  -10.34896 -10.34315 -10.30387 -10.29108 -10.27236
 Alpha  occ. eigenvalues --  -10.25778 -10.25701 -10.25521 -10.25198 -10.25078
 Alpha  occ. eigenvalues --  -10.24874 -10.24855 -10.24374 -10.24287 -10.24032
 Alpha  occ. eigenvalues --  -10.23840 -10.23639 -10.23541 -10.23256 -10.23182
 Alpha  occ. eigenvalues --  -10.23023 -10.22944 -10.22703 -10.22680 -10.22675
 Alpha  occ. eigenvalues --  -10.22665 -10.22603 -10.22524 -10.22501 -10.22342
 Alpha  occ. eigenvalues --  -10.22318 -10.22296 -10.22251 -10.22190 -10.22066
 Alpha  occ. eigenvalues --  -10.21924 -10.21798 -10.21780 -10.21586 -10.21533
 Alpha  occ. eigenvalues --  -10.21346 -10.21331 -10.20880 -10.20872 -10.20812
 Alpha  occ. eigenvalues --  -10.20716 -10.20573 -10.20548 -10.20537 -10.20385
 Alpha  occ. eigenvalues --  -10.20033 -10.19526 -10.19425 -10.19217 -10.18463
 Alpha  occ. eigenvalues --   -3.09378  -1.84329  -1.83843  -1.83783  -1.10554
 Alpha  occ. eigenvalues --   -1.10189  -1.05751  -1.03704  -1.02121  -1.01569
 Alpha  occ. eigenvalues --   -1.00033  -0.98774  -0.97562  -0.87084  -0.86370
 Alpha  occ. eigenvalues --   -0.86244  -0.85830  -0.84747  -0.84160  -0.83957
 Alpha  occ. eigenvalues --   -0.83847  -0.83662  -0.82916  -0.82350  -0.80821
 Alpha  occ. eigenvalues --   -0.79665  -0.79093  -0.78444  -0.77687  -0.77580
 Alpha  occ. eigenvalues --   -0.76437  -0.75926  -0.75002  -0.74907  -0.73907
 Alpha  occ. eigenvalues --   -0.73066  -0.72292  -0.72048  -0.71178  -0.71074
 Alpha  occ. eigenvalues --   -0.70411  -0.70210  -0.69580  -0.68548  -0.68292
 Alpha  occ. eigenvalues --   -0.66879  -0.66346  -0.65417  -0.65040  -0.64703
 Alpha  occ. eigenvalues --   -0.62635  -0.62340  -0.61330  -0.61137  -0.61067
 Alpha  occ. eigenvalues --   -0.60656  -0.60338  -0.58528  -0.57968  -0.57701
 Alpha  occ. eigenvalues --   -0.57403  -0.56749  -0.56463  -0.56104  -0.55603
 Alpha  occ. eigenvalues --   -0.55257  -0.54016  -0.53471  -0.52838  -0.51894
 Alpha  occ. eigenvalues --   -0.51745  -0.51607  -0.51428  -0.51186  -0.50455
 Alpha  occ. eigenvalues --   -0.50167  -0.49874  -0.49679  -0.49212  -0.48894
 Alpha  occ. eigenvalues --   -0.48782  -0.48582  -0.48456  -0.48089  -0.48024
 Alpha  occ. eigenvalues --   -0.47829  -0.47581  -0.47322  -0.47108  -0.46776
 Alpha  occ. eigenvalues --   -0.46635  -0.46420  -0.46131  -0.45917  -0.45717
 Alpha  occ. eigenvalues --   -0.45588  -0.45395  -0.45192  -0.44955  -0.44815
 Alpha  occ. eigenvalues --   -0.44639  -0.44496  -0.44077  -0.44063  -0.43840
 Alpha  occ. eigenvalues --   -0.43475  -0.43291  -0.43115  -0.43095  -0.42892
 Alpha  occ. eigenvalues --   -0.42693  -0.42533  -0.42440  -0.41890  -0.41617
 Alpha  occ. eigenvalues --   -0.41139  -0.41016  -0.41007  -0.40769  -0.40439
 Alpha  occ. eigenvalues --   -0.40378  -0.40206  -0.39794  -0.39692  -0.39483
 Alpha  occ. eigenvalues --   -0.39377  -0.39321  -0.39002  -0.38785  -0.38704
 Alpha  occ. eigenvalues --   -0.38604  -0.38369  -0.38296  -0.37976  -0.37953
 Alpha  occ. eigenvalues --   -0.37884  -0.37703  -0.37504  -0.37378  -0.37198
 Alpha  occ. eigenvalues --   -0.36984  -0.36749  -0.36501  -0.36275  -0.36232
 Alpha  occ. eigenvalues --   -0.35928  -0.35795  -0.35597  -0.35181  -0.35061
 Alpha  occ. eigenvalues --   -0.34479  -0.34371  -0.34149  -0.34107  -0.33568
 Alpha  occ. eigenvalues --   -0.33304  -0.32960  -0.32838  -0.32576  -0.32253
 Alpha  occ. eigenvalues --   -0.31904  -0.31802  -0.30862  -0.30554  -0.29977
 Alpha  occ. eigenvalues --   -0.29953  -0.29896  -0.29598  -0.28753  -0.28022
 Alpha  occ. eigenvalues --   -0.26712  -0.26678  -0.26484  -0.24942  -0.21629
 Alpha  occ. eigenvalues --   -0.20109
 Alpha virt. eigenvalues --   -0.07151  -0.03539  -0.00405   0.02053   0.02429
 Alpha virt. eigenvalues --    0.03470   0.03933   0.04604   0.04992   0.05484
 Alpha virt. eigenvalues --    0.06831   0.08953   0.09360   0.09675   0.10199

 Mulliken charges:
               1
     1  Mg   0.827566
     2  C    0.136931
     3  C   -0.178240
     4  C   -0.174623
     5  C   -0.178384
     6  N   -0.633069
     7  C    0.257450
     8  C   -0.123666
     9  C   -0.152130
    10  C    0.334753
    11  C   -0.302548
    12  C   -0.183904
    13  C   -0.291117
    14  C    0.629681
    15  O   -0.486866
    16  O   -0.492782
    17  N   -0.704043
    18  C    0.347264
    19  C   -0.039883
    20  C    0.021704
    21  C    0.267670
    22  C   -0.368531
    23  C   -0.058489
    24  C   -0.257059
    25  N   -0.684220
    26  C    0.291848
    27  C    0.006498
    28  C    0.073578
    29  C    0.300930
    30  C   -0.363131
    31  C   -0.262722
    32  C   -0.316438
    33  N   -0.719933
    34  C    0.270445
    35  C    0.016967
    36  C    0.085691
    37  C    0.265341
    38  C   -0.378469
    39  C    0.336542
    40  O   -0.463413
    41  C   -0.348503
    42  C    0.619823
    43  O   -0.455412
    44  O   -0.476235
    45  C   -0.093319
    46  C    0.015917
    47  C   -0.159007
    48  C    0.170793
    49  C   -0.359265
    50  C   -0.237677
    51  C   -0.196109
    52  C   -0.154233
    53  C   -0.038018
    54  C   -0.325901
    55  C   -0.180332
    56  C   -0.202444
    57  C   -0.163890
    58  C   -0.045057
    59  C   -0.321851
    60  C   -0.174136
    61  C   -0.187154
    62  C   -0.148480
    63  C   -0.026683
    64  C   -0.308112
    65  C   -0.299926
    66  H    0.068456
    67  H    0.067125
    68  H    0.081893
    69  H    0.113296
    70  H    0.102565
    71  H    0.095870
    72  H    0.105789
    73  H    0.118973
    74  H    0.116576
    75  H    0.125302
    76  H    0.129481
    77  H    0.144607
    78  H    0.132044
    79  H    0.142222
    80  H    0.098387
    81  H    0.095418
    82  H    0.112614
    83  H    0.106585
    84  H    0.122402
    85  H    0.108392
    86  H    0.119606
    87  H    0.105992
    88  H    0.113170
    89  H    0.083557
    90  H    0.128522
    91  H    0.102570
    92  H    0.127990
    93  H    0.129172
    94  H    0.144012
    95  H    0.149435
    96  H    0.138756
    97  H    0.131074
    98  H    0.119634
    99  H    0.099338
   100  H    0.120617
   101  H    0.106855
   102  H    0.125071
   103  H    0.094498
   104  H    0.129871
   105  H    0.112041
   106  H    0.105173
   107  H    0.080281
   108  H    0.092212
   109  H    0.079583
   110  H    0.099148
   111  H    0.059049
   112  H    0.093572
   113  H    0.093943
   114  H    0.110182
   115  H    0.070094
   116  H    0.098711
   117  H    0.103671
   118  H    0.092166
   119  H    0.096368
   120  H    0.085366
   121  H    0.092952
   122  H    0.082493
   123  H    0.104685
   124  H    0.088632
   125  H    0.089465
   126  H    0.088739
   127  H    0.109039
   128  H    0.102229
   129  H    0.020745
   130  H    0.095746
   131  H    0.080704
   132  H    0.097074
   133  H    0.082224
   134  H    0.105337
   135  H    0.106593
   136  H    0.052838
   137  H    0.109218
 Sum of Mulliken charges =  -0.00000

 Dipole moment (field-independent basis, Debye):
    X=             -0.3135    Y=              4.0755    Z=              0.0743  Tot=              4.0882
 Quadrupole moment (field-independent basis, Debye-Ang):
   XX=           -335.8639   YY=           -399.0838   ZZ=           -395.5391
   XY=            -22.8136   XZ=             10.9066   YZ=             -3.3544

 Normal termination of Gaussian 16 at Sat Sep 14 23:00:33 2019.
