 Gaussian 16, Revision A.03,
 Gaussian 16:  ES64L-G16RevA.03 25-Dec-2016

 ----------------------------------------------------------------------
 # td=(NStates=1) iop(3/107=0140000000,3/108=0140000000) CAM-B3LYP/6-31
 G(d,p)
 ----------------------------------------------------------------------

 --
 TD
 --
 Symbolic Z-matrix:
 Charge =  0 Multiplicity = 1

                         Standard orientation:
 ---------------------------------------------------------------------
 Center     Atomic      Atomic             Coordinates (Angstroms)
 Number     Number       Type             X           Y           Z
 ---------------------------------------------------------------------
      1         12           0       -7.136106    0.581955    0.151797
      2          6           0       -4.888673   -2.016469    0.477285
      3          6           0       -4.695358    2.865230    1.148750
      4          6           0       -9.400451    3.159067   -0.441740
      5          6           0       -9.503014   -1.593970   -0.966369
      6          7           0       -5.121625    0.417474    0.812432
      7          6           0       -4.325750   -0.785791    0.825949
      8          6           0       -2.943070   -0.430908    1.204268
      9          6           0       -2.913126    1.034172    1.641774
     10          6           0       -4.319636    1.503835    1.028396
     11          6           0       -3.032267    1.163409    3.216697
     12          6           0       -1.930864   -0.662125    0.078600
     13          6           0       -0.482021   -0.508036    0.480687
     14          6           0        0.523962   -0.818196   -0.665361
     15          8           0        0.232992   -1.163426   -1.800233
     16          8           0        1.750639   -0.443188   -0.306829
     17          7           0       -7.038425    2.605386    0.339220
     18          6           0       -5.963277    3.375823    0.788511
     19          6           0       -6.366898    4.749742    0.729071
     20          6           0       -7.672071    4.862039    0.421165
     21          6           0       -8.140709    3.429445    0.053067
     22          6           0       -5.489513    5.956168    1.219932
     23          6           0       -8.470821    6.054610    0.151007
     24          6           0       -8.419312    7.215577    0.671659
     25          7           0       -9.119312    0.712500   -0.691012
     26          6           0       -9.838493    1.879034   -0.670569
     27          6           0      -11.209556    1.530132   -1.142881
     28          6           0      -11.263026    0.173779   -1.228306
     29          6           0       -9.924329   -0.309233   -0.958108
     30          6           0      -12.250570    2.568882   -1.182747
     31          6           0      -12.339660   -0.675721   -1.693848
     32          6           0      -12.248939   -1.003244   -3.215115
     33          7           0       -7.196685   -1.412689   -0.262259
     34          6           0       -8.234916   -2.245648   -0.585219
     35          6           0       -7.791987   -3.575693   -0.535832
     36          6           0       -6.524417   -3.551126   -0.133350
     37          6           0       -6.168170   -2.184140    0.008660
     38          6           0       -8.635342   -4.781725   -0.819984
     39          6           0       -5.415451   -4.350170    0.214796
     40          8           0       -5.279299   -5.606051    0.083515
     41          6           0       -4.191551   -3.325864    0.680697
     42          6           0       -3.598390   -3.618181    1.940809
     43          8           0       -3.839637   -3.083326    3.040349
     44          8           0       -2.864996   -4.742689    1.926284
     45          6           0       -2.292561   -5.142562    3.138198
     46          6           0        2.798171   -0.739294   -1.270160
     47          6           0        4.066936   -0.505652   -0.609851
     48          6           0        5.193534    0.311449   -0.990957
     49          6           0        5.203342    1.095764   -2.215907
     50          6           0        6.502415    0.343589   -0.209056
     51          6           0        7.665344   -0.200048   -1.035216
     52          6           0        8.954291   -0.314532   -0.094884
     53          6           0       10.215646   -0.742363   -0.913764
     54          6           0       10.211937   -2.200396   -1.385341
     55          6           0       11.374248   -0.330223   -0.181052
     56          6           0       12.732087   -0.450032   -0.758609
     57          6           0       14.003526   -0.203654    0.228682
     58          6           0       15.335389   -0.302423   -0.420573
     59          6           0       15.731388   -1.762661   -0.800944
     60          6           0       16.439892    0.378141    0.454923
     61          6           0       17.883919    0.641676   -0.184245
     62          6           0       18.758525    1.246108    0.847044
     63          6           0       20.181717    1.537498    0.147795
     64          6           0       20.045643    2.545346   -0.975633
     65          6           0       21.125751    2.008775    1.281453
     66          1           0       -4.069979    3.658848    1.409067
     67          1           0      -10.049930    3.948389   -0.411640
     68          1           0      -10.203029   -2.337639   -1.409237
     69          1           0       -2.555996   -1.176833    2.046699
     70          1           0       -1.966144    1.567014    1.100321
     71          1           0       -1.965691    0.876627    3.615445
     72          1           0       -3.125630    2.199667    3.692571
     73          1           0       -3.623467    0.554794    3.584612
     74          1           0       -2.145688   -1.599253   -0.374189
     75          1           0       -2.339298    0.009748   -0.861551
     76          1           0       -0.173115    0.450598    1.062690
     77          1           0       -0.448642   -1.334437    1.074575
     78          1           0       -5.539288    6.859259    0.746030
     79          1           0       -5.900546    6.181507    2.446514
     80          1           0       -4.342989    5.603521    1.221676
     81          1           0       -9.490146    5.899384   -0.423922
     82          1           0       -8.981152    8.066960    0.308559
     83          1           0       -7.576513    7.534349    1.350822
     84          1           0      -12.191566    3.292082   -1.953911
     85          1           0      -13.114987    2.140748   -1.317866
     86          1           0      -12.463710    2.985415   -0.201506
     87          1           0      -12.487804   -1.556617   -0.976903
     88          1           0      -13.324247   -0.097941   -1.451334
     89          1           0      -13.246086   -1.440108   -3.580450
     90          1           0      -12.117813   -0.026347   -3.750228
     91          1           0      -11.490340   -1.880366   -3.484397
     92          1           0       -9.096840   -4.866774   -1.845268
     93          1           0       -7.970713   -5.777800   -0.510848
     94          1           0       -9.506747   -4.713456   -0.348634
     95          1           0       -3.506672   -3.456832   -0.261933
     96          1           0       -1.788080   -4.331536    3.480135
     97          1           0       -2.997963   -5.372569    3.968270
     98          1           0       -1.716655   -5.990045    2.962761
     99          1           0        2.643889   -1.860873   -1.500263
    100          1           0        2.692757    0.120943   -2.066893
    101          1           0        4.194651   -0.953823    0.321996
    102          1           0        4.157175    1.429302   -2.714073
    103          1           0        5.820790    2.198383   -2.169062
    104          1           0        5.559691    0.488284   -3.150931
    105          1           0        6.678017    1.467386    0.083676
    106          1           0        6.398206   -0.204726    0.581183
    107          1           0        7.628988   -1.179860   -1.462263
    108          1           0        7.811302    0.576187   -1.835869
    109          1           0        9.046960    0.702957    0.454181
    110          1           0        8.705846   -0.995326    0.679642
    111          1           0       10.171377   -0.184775   -1.791324
    112          1           0        9.341056   -2.282362   -2.071555
    113          1           0       11.084167   -2.498615   -1.855905
    114          1           0        9.884582   -2.894413   -0.603612
    115          1           0       11.232534    0.724014    0.070363
    116          1           0       11.421026   -0.809773    0.651295
    117          1           0       12.900727   -1.520175   -1.273312
    118          1           0       12.781738    0.254477   -1.515998
    119          1           0       13.973205    0.990114    0.678396
    120          1           0       13.949561   -0.953652    0.965997
    121          1           0       15.187262    0.458402   -1.354293
    122          1           0       16.063033   -2.285270    0.151416
    123          1           0       14.935397   -2.001267   -1.525581
    124          1           0       16.558510   -1.660268   -1.380987
    125          1           0       16.016589    1.442308    0.788667
    126          1           0       16.411487   -0.142628    1.458657
    127          1           0       18.295673   -0.386296   -0.022595
    128          1           0       17.797011    1.192084   -1.087434
    129          1           0       18.348643    2.105749    1.331558
    130          1           0       18.986789    0.460172    1.794281
    131          1           0       20.646644    0.628775   -0.258361
    132          1           0       19.570175    3.441335   -0.544501
    133          1           0       21.139672    2.649973   -1.150446
    134          1           0       19.459672    2.247192   -1.764558
    135          1           0       21.439645    1.380788    2.229772
    136          1           0       22.276396    2.066514    0.801773
    137          1           0       20.893778    3.190426    1.629581
 ---------------------------------------------------------------------

 SCF Done:  E(RCAM-B3LYP) =  -2933.45927628     A.U. after   16 cycles

 Excitation energies and oscillator strengths:

 Excited State   1:      Singlet-A      2.0455 eV  606.12 nm  f=0.2762  <S**2>=0.000
     240 -> 243        0.22510
     241 -> 242        0.66584
 This state for optimization and/or second-order correction.
 Total Energy, E(TD-HF/TD-DFT) =  -2933.38410385
 Copying the excited state density for this state as the 1-particle RhoCI density.

 The electronic state is 1-A.
 Alpha  occ. eigenvalues --  -46.80491 -19.21761 -19.21436 -19.16125 -19.15725
 Alpha  occ. eigenvalues --  -19.15658 -14.38228 -14.35836 -14.35019 -14.34816
 Alpha  occ. eigenvalues --  -10.34284 -10.34075 -10.30651 -10.28551 -10.27422
 Alpha  occ. eigenvalues --  -10.26203 -10.26119 -10.26054 -10.25053 -10.24797
 Alpha  occ. eigenvalues --  -10.24735 -10.24660 -10.24616 -10.24593 -10.24479
 Alpha  occ. eigenvalues --  -10.24389 -10.23767 -10.23670 -10.23427 -10.23386
 Alpha  occ. eigenvalues --  -10.23312 -10.23234 -10.23092 -10.23084 -10.23063
 Alpha  occ. eigenvalues --  -10.23059 -10.22916 -10.22740 -10.22680 -10.22563
 Alpha  occ. eigenvalues --  -10.22351 -10.22064 -10.21995 -10.21736 -10.21719
 Alpha  occ. eigenvalues --  -10.21695 -10.21681 -10.21659 -10.21602 -10.21589
 Alpha  occ. eigenvalues --  -10.21481 -10.21450 -10.21372 -10.21345 -10.21290
 Alpha  occ. eigenvalues --  -10.21180 -10.20958 -10.20810 -10.20441 -10.20035
 Alpha  occ. eigenvalues --  -10.19993 -10.19903 -10.19882 -10.19831 -10.17767
 Alpha  occ. eigenvalues --   -3.08931  -1.83889  -1.83401  -1.83321  -1.13265
 Alpha  occ. eigenvalues --   -1.13174  -1.03598  -1.02821  -1.02362  -1.00376
 Alpha  occ. eigenvalues --   -0.98718  -0.97433  -0.96454  -0.88096  -0.86689
 Alpha  occ. eigenvalues --   -0.85526  -0.85087  -0.84646  -0.84527  -0.84344
 Alpha  occ. eigenvalues --   -0.84017  -0.83153  -0.83004  -0.81787  -0.81247
 Alpha  occ. eigenvalues --   -0.80151  -0.79513  -0.79187  -0.78512  -0.78327
 Alpha  occ. eigenvalues --   -0.77367  -0.77145  -0.76290  -0.75401  -0.73714
 Alpha  occ. eigenvalues --   -0.73178  -0.72449  -0.72240  -0.71656  -0.70946
 Alpha  occ. eigenvalues --   -0.70774  -0.70389  -0.69089  -0.68675  -0.68030
 Alpha  occ. eigenvalues --   -0.67499  -0.65821  -0.65315  -0.64979  -0.64171
 Alpha  occ. eigenvalues --   -0.62695  -0.61888  -0.61514  -0.60639  -0.60503
 Alpha  occ. eigenvalues --   -0.59861  -0.59528  -0.58581  -0.58206  -0.58077
 Alpha  occ. eigenvalues --   -0.56795  -0.56354  -0.56138  -0.55776  -0.55564
 Alpha  occ. eigenvalues --   -0.55172  -0.54510  -0.53919  -0.53865  -0.53442
 Alpha  occ. eigenvalues --   -0.52301  -0.51591  -0.51486  -0.50986  -0.50912
 Alpha  occ. eigenvalues --   -0.50630  -0.50481  -0.50316  -0.50044  -0.49463
 Alpha  occ. eigenvalues --   -0.49258  -0.48953  -0.48642  -0.48260  -0.48080
 Alpha  occ. eigenvalues --   -0.47987  -0.47733  -0.47572  -0.47207  -0.46948
 Alpha  occ. eigenvalues --   -0.46739  -0.46616  -0.46433  -0.46082  -0.45929
 Alpha  occ. eigenvalues --   -0.45783  -0.45633  -0.45502  -0.45101  -0.45001
 Alpha  occ. eigenvalues --   -0.44794  -0.44468  -0.44311  -0.43976  -0.43729
 Alpha  occ. eigenvalues --   -0.43390  -0.43058  -0.42900  -0.42735  -0.42435
 Alpha  occ. eigenvalues --   -0.42014  -0.41850  -0.41806  -0.41538  -0.41379
 Alpha  occ. eigenvalues --   -0.41299  -0.41099  -0.40903  -0.40712  -0.40587
 Alpha  occ. eigenvalues --   -0.40427  -0.40082  -0.40039  -0.39814  -0.39802
 Alpha  occ. eigenvalues --   -0.39327  -0.39278  -0.39235  -0.38848  -0.38559
 Alpha  occ. eigenvalues --   -0.38514  -0.38305  -0.37997  -0.37883  -0.37811
 Alpha  occ. eigenvalues --   -0.37663  -0.37426  -0.37249  -0.37065  -0.36962
 Alpha  occ. eigenvalues --   -0.36868  -0.36647  -0.36508  -0.36269  -0.36146
 Alpha  occ. eigenvalues --   -0.35781  -0.35753  -0.35302  -0.35209  -0.34855
 Alpha  occ. eigenvalues --   -0.34553  -0.34290  -0.33916  -0.33818  -0.33808
 Alpha  occ. eigenvalues --   -0.33169  -0.33144  -0.32647  -0.32259  -0.32243
 Alpha  occ. eigenvalues --   -0.32033  -0.31694  -0.31666  -0.30146  -0.29966
 Alpha  occ. eigenvalues --   -0.29779  -0.29652  -0.29465  -0.28713  -0.27398
 Alpha  occ. eigenvalues --   -0.26386  -0.26220  -0.25729  -0.25683  -0.21937
 Alpha  occ. eigenvalues --   -0.20111
 Alpha virt. eigenvalues --   -0.07237  -0.03737  -0.00659   0.01725   0.02180
 Alpha virt. eigenvalues --    0.02778   0.03989   0.04411   0.05196   0.05764
 Alpha virt. eigenvalues --    0.06114   0.09005   0.09258   0.09466   0.09522

 Mulliken charges:
               1
     1  Mg   0.811688
     2  C    0.079073
     3  C   -0.153042
     4  C   -0.126333
     5  C   -0.201954
     6  N   -0.627385
     7  C    0.325516
     8  C   -0.170346
     9  C   -0.128191
    10  C    0.309908
    11  C   -0.286986
    12  C   -0.182122
    13  C   -0.251156
    14  C    0.591746
    15  O   -0.472565
    16  O   -0.459112
    17  N   -0.748906
    18  C    0.329233
    19  C    0.006553
    20  C    0.014017
    21  C    0.295640
    22  C   -0.344488
    23  C   -0.048199
    24  C   -0.254267
    25  N   -0.692920
    26  C    0.293977
    27  C    0.007528
    28  C    0.055094
    29  C    0.365659
    30  C   -0.379697
    31  C   -0.263895
    32  C   -0.295888
    33  N   -0.744651
    34  C    0.253770
    35  C    0.018546
    36  C    0.109774
    37  C    0.319636
    38  C   -0.382670
    39  C    0.301189
    40  O   -0.482870
    41  C   -0.328073
    42  C    0.629149
    43  O   -0.509496
    44  O   -0.431651
    45  C   -0.071614
    46  C    0.024915
    47  C   -0.127903
    48  C    0.133603
    49  C   -0.371700
    50  C   -0.208617
    51  C   -0.180326
    52  C   -0.194017
    53  C   -0.047922
    54  C   -0.325579
    55  C   -0.142442
    56  C   -0.195612
    57  C   -0.144093
    58  C   -0.054268
    59  C   -0.313191
    60  C   -0.187883
    61  C   -0.155570
    62  C   -0.162497
    63  C   -0.057705
    64  C   -0.299548
    65  C   -0.289053
    66  H    0.071076
    67  H    0.082746
    68  H    0.074659
    69  H    0.103030
    70  H    0.090533
    71  H    0.085833
    72  H    0.103692
    73  H    0.145556
    74  H    0.118073
    75  H    0.082686
    76  H    0.128706
    77  H    0.145120
    78  H    0.140508
    79  H    0.086806
    80  H    0.091705
    81  H    0.076991
    82  H    0.104510
    83  H    0.087897
    84  H    0.123874
    85  H    0.114103
    86  H    0.123494
    87  H    0.101346
    88  H    0.089574
    89  H    0.099540
    90  H    0.118171
    91  H    0.103326
    92  H    0.112509
    93  H    0.130263
    94  H    0.133189
    95  H    0.166693
    96  H    0.121735
    97  H    0.120723
    98  H    0.122844
    99  H    0.132281
   100  H    0.110910
   101  H    0.082723
   102  H    0.098375
   103  H    0.086723
   104  H    0.126097
   105  H    0.095552
   106  H    0.102778
   107  H    0.107508
   108  H    0.096695
   109  H    0.077776
   110  H    0.098804
   111  H    0.087993
   112  H    0.094960
   113  H    0.115392
   114  H    0.100366
   115  H    0.083144
   116  H    0.094006
   117  H    0.062399
   118  H    0.095760
   119  H    0.051201
   120  H    0.091474
   121  H    0.048852
   122  H    0.101624
   123  H    0.108821
   124  H    0.121190
   125  H    0.055670
   126  H    0.080104
   127  H    0.111889
   128  H    0.102369
   129  H    0.092127
   130  H    0.054610
   131  H    0.093294
   132  H    0.102170
   133  H    0.104550
   134  H    0.114466
   135  H    0.104488
   136  H    0.054097
   137  H    0.075443
 Sum of Mulliken charges =  -0.00000

 Dipole moment (field-independent basis, Debye):
    X=              1.5180    Y=              5.0604    Z=              0.5248  Tot=              5.3092
 Quadrupole moment (field-independent basis, Debye-Ang):
   XX=           -324.1474   YY=           -398.5207   ZZ=           -399.9789
   XY=            -36.4413   XZ=              3.7684   YZ=             -3.3889

 Normal termination of Gaussian 16 at Mon Sep 16 23:04:57 2019.
