 Gaussian 09, Revision D.01,
 Gaussian 09:  ES64L-G09RevD.01 24-Apr-2013

 -------------------------------------
 # td=(NStates=1) CAM-B3LYP/6-31G(d,p)
 -------------------------------------

 --
 TD
 --
 Symbolic Z-matrix:
 Charge =  0 Multiplicity = 1

                         Standard orientation:
 ---------------------------------------------------------------------
 Center     Atomic      Atomic             Coordinates (Angstroms)
 Number     Number       Type             X           Y           Z
 ---------------------------------------------------------------------
      1         12           0       -7.263124    0.614486    0.205583
      2          6           0       -4.906333   -1.971163    0.539605
      3          6           0       -4.794344    2.894275    1.017989
      4          6           0       -9.430384    3.096111   -0.398954
      5          6           0       -9.570266   -1.691442   -0.831712
      6          7           0       -5.150618    0.445444    0.708018
      7          6           0       -4.313510   -0.629358    0.700449
      8          6           0       -2.845120   -0.285488    1.114607
      9          6           0       -2.938767    1.160720    1.538269
     10          6           0       -4.378404    1.495866    1.017923
     11          6           0       -2.945052    1.395972    3.022505
     12          6           0       -1.972559   -0.590556   -0.069387
     13          6           0       -0.448848   -0.426840    0.491071
     14          6           0        0.532606   -0.715205   -0.666639
     15          8           0        0.249946   -1.076088   -1.833669
     16          8           0        1.775453   -0.512567   -0.183339
     17          7           0       -7.082509    2.581219    0.357612
     18          6           0       -6.099632    3.364868    0.731959
     19          6           0       -6.367043    4.762067    0.762038
     20          6           0       -7.799798    4.812517    0.365578
     21          6           0       -8.182538    3.402861    0.049320
     22          6           0       -5.446557    5.851521    1.245724
     23          6           0       -8.603176    5.957270    0.113417
     24          6           0       -8.535310    7.201989    0.621513
     25          7           0       -9.192126    0.669933   -0.430637
     26          6           0       -9.885651    1.827508   -0.616363
     27          6           0      -11.241871    1.493216   -1.027648
     28          6           0      -11.293359    0.124438   -1.184532
     29          6           0       -9.923958   -0.402365   -0.788118
     30          6           0      -12.340342    2.452591   -1.390902
     31          6           0      -12.384689   -0.767620   -1.701566
     32          6           0      -12.343190   -1.065363   -3.218772
     33          7           0       -7.382113   -1.345795   -0.051289
     34          6           0       -8.288354   -2.247220   -0.500491
     35          6           0       -7.810682   -3.630043   -0.525557
     36          6           0       -6.531256   -3.493746    0.020729
     37          6           0       -6.289046   -2.190575    0.147548
     38          6           0       -8.643586   -4.814787   -0.963638
     39          6           0       -5.300794   -4.345131    0.183807
     40          8           0       -5.213565   -5.506673    0.216715
     41          6           0       -4.196824   -3.272326    0.617398
     42          6           0       -3.544516   -3.707242    1.827381
     43          8           0       -3.773129   -3.123158    2.963245
     44          8           0       -2.781648   -4.880496    1.754459
     45          6           0       -2.154997   -5.137367    3.045009
     46          6           0        2.741816   -0.687700   -1.179005
     47          6           0        4.096507   -0.480694   -0.518383
     48          6           0        5.105181    0.244654   -1.041023
     49          6           0        5.125027    1.042575   -2.252912
     50          6           0        6.425734    0.323054   -0.166542
     51          6           0        7.612493   -0.191989   -0.930748
     52          6           0        9.006930    0.051466   -0.060766
     53          6           0       10.207000   -0.513023   -0.799184
     54          6           0       10.245954   -2.020414   -1.139071
     55          6           0       11.463858   -0.296678    0.037672
     56          6           0       12.821702   -0.681856   -0.567195
     57          6           0       14.025838   -0.073428    0.165540
     58          6           0       15.395689   -0.243803   -0.460184
     59          6           0       15.801723   -1.675271   -0.839638
     60          6           0       16.405322    0.462157    0.324025
     61          6           0       17.909294    0.500452   -0.213773
     62          6           0       18.874817    1.319227    0.626378
     63          6           0       20.355132    1.378772    0.207524
     64          6           0       20.512444    2.173540   -1.088308
     65          6           0       21.182402    2.124896    1.313265
     66          1           0       -4.068719    3.603775    1.369435
     67          1           0      -10.091812    3.935935   -0.579722
     68          1           0      -10.458765   -2.376150   -1.197117
     69          1           0       -2.636860   -0.893849    1.864749
     70          1           0       -2.171008    1.793191    1.010389
     71          1           0       -2.134426    1.072589    3.587012
     72          1           0       -3.062286    2.398576    3.206196
     73          1           0       -3.626628    0.834993    3.573898
     74          1           0       -2.036257   -1.594239   -0.467098
     75          1           0       -1.912338   -0.084277   -0.926091
     76          1           0       -0.231830    0.543232    0.998267
     77          1           0       -0.323938   -1.295744    1.182302
     78          1           0       -5.809431    6.858902    0.717904
     79          1           0       -5.506655    6.027119    2.314968
     80          1           0       -4.512937    5.658280    0.776186
     81          1           0       -9.202012    5.898004   -0.770986
     82          1           0       -9.155744    7.999704    0.124142
     83          1           0       -7.843813    7.291887    1.568570
     84          1           0      -12.197092    2.821794   -2.316709
     85          1           0      -13.248603    1.889652   -1.401741
     86          1           0      -12.583612    2.847724   -0.381691
     87          1           0      -12.360309   -1.713148   -1.185684
     88          1           0      -13.524083   -0.467579   -1.205854
     89          1           0      -12.979690   -1.696906   -3.766271
     90          1           0      -12.528479   -0.085794   -3.863415
     91          1           0      -11.454088   -1.628253   -3.388993
     92          1           0       -9.031550   -4.486814   -2.022713
     93          1           0       -8.070196   -5.623606   -0.993985
     94          1           0       -9.446079   -4.992335   -0.285113
     95          1           0       -3.303812   -3.382493   -0.114839
     96          1           0       -1.087518   -4.488104    3.064847
     97          1           0       -3.014180   -4.964605    4.062533
     98          1           0       -1.925353   -6.343232    2.735163
     99          1           0        2.924341   -1.820258   -1.599158
    100          1           0        2.496374    0.049386   -1.981605
    101          1           0        3.936039   -1.093232    0.540286
    102          1           0        4.124312    1.192950   -2.477756
    103          1           0        5.633494    2.011877   -1.991007
    104          1           0        5.644914    0.542784   -3.125418
    105          1           0        6.409181    1.361585    0.184333
    106          1           0        6.062938   -0.073665    0.934414
    107          1           0        7.514662   -1.341792   -1.219204
    108          1           0        7.914788    0.228322   -1.809795
    109          1           0        9.080829    1.129576    0.280655
    110          1           0        8.993363   -0.777577    0.820821
    111          1           0       10.415702   -0.080189   -1.795883
    112          1           0        9.314827   -2.010761   -1.843966
    113          1           0       11.089588   -2.388415   -1.719867
    114          1           0       10.247413   -2.758645   -0.298704
    115          1           0       11.571770    0.821849    0.318355
    116          1           0       11.311575   -0.628302    1.195949
    117          1           0       12.934384   -1.797509   -0.852790
    118          1           0       12.908821   -0.384699   -1.801111
    119          1           0       13.873345    1.031115    0.597136
    120          1           0       13.922814   -0.824651    1.010485
    121          1           0       15.294219    0.259127   -1.545338
    122          1           0       15.725464   -2.451884    0.010126
    123          1           0       15.079931   -2.047285   -1.470129
    124          1           0       16.750652   -1.828372   -1.307160
    125          1           0       16.033681    1.466173    0.665333
    126          1           0       16.690193   -0.224296    1.147926
    127          1           0       18.253087   -0.609975   -0.268283
    128          1           0       17.988247    0.795369   -1.311270
    129          1           0       18.535627    2.537757    0.837262
    130          1           0       18.853094    0.830848    1.793692
    131          1           0       20.838112    0.416805    0.088681
    132          1           0       19.865214    3.003776   -0.844051
    133          1           0       21.557285    2.342080   -1.651761
    134          1           0       20.012517    1.702728   -1.787448
    135          1           0       20.967902    1.619495    2.299656
    136          1           0       22.262305    2.162606    1.186758
    137          1           0       20.679428    3.244164    1.365715
 ---------------------------------------------------------------------

 SCF Done:  E(RCAM-B3LYP) =  -2932.57906546     A.U. after   18 cycles

 Excitation energies and oscillator strengths:

 Excited State   1:      Singlet-A      1.9759 eV  627.49 nm  f=0.2708  <S**2>=0.000
     240 -> 243        0.24228
     241 -> 242        0.65635
 This state for optimization and/or second-order correction.
 Total Energy, E(TD-HF/TD-KS) =  -2932.50645288
 Copying the excited state density for this state as the 1-particle RhoCI density.

 The electronic state is 1-A.
 Alpha  occ. eigenvalues --  -46.83802 -19.27788 -19.26988 -19.21878 -19.21875
 Alpha  occ. eigenvalues --  -19.20378 -14.42414 -14.39300 -14.39220 -14.38914
 Alpha  occ. eigenvalues --  -10.40208 -10.39626 -10.36005 -10.35409 -10.32556
 Alpha  occ. eigenvalues --  -10.31202 -10.31037 -10.29655 -10.29194 -10.28986
 Alpha  occ. eigenvalues --  -10.28776 -10.28762 -10.28631 -10.28496 -10.28331
 Alpha  occ. eigenvalues --  -10.28260 -10.28224 -10.28140 -10.27903 -10.27698
 Alpha  occ. eigenvalues --  -10.27646 -10.27636 -10.27536 -10.27497 -10.27261
 Alpha  occ. eigenvalues --  -10.27241 -10.27144 -10.27020 -10.27016 -10.26936
 Alpha  occ. eigenvalues --  -10.26801 -10.26779 -10.26705 -10.26685 -10.26614
 Alpha  occ. eigenvalues --  -10.26588 -10.26411 -10.26370 -10.26305 -10.26182
 Alpha  occ. eigenvalues --  -10.26108 -10.25912 -10.25879 -10.25821 -10.25789
 Alpha  occ. eigenvalues --  -10.25622 -10.25540 -10.25432 -10.25403 -10.25384
 Alpha  occ. eigenvalues --  -10.24779 -10.24620 -10.24301 -10.23809 -10.23509
 Alpha  occ. eigenvalues --   -3.13035  -1.87718  -1.87311  -1.87205  -1.19614
 Alpha  occ. eigenvalues --   -1.15929  -1.14811  -1.08811  -1.05559  -1.04883
 Alpha  occ. eigenvalues --   -1.03954  -1.03637  -1.02537  -0.92848  -0.91140
 Alpha  occ. eigenvalues --   -0.90994  -0.90584  -0.89607  -0.89499  -0.88519
 Alpha  occ. eigenvalues --   -0.88484  -0.88073  -0.87468  -0.86451  -0.86201
 Alpha  occ. eigenvalues --   -0.84821  -0.83969  -0.83796  -0.83310  -0.82603
 Alpha  occ. eigenvalues --   -0.81715  -0.81025  -0.80074  -0.79487  -0.78522
 Alpha  occ. eigenvalues --   -0.77474  -0.76990  -0.75976  -0.75736  -0.75449
 Alpha  occ. eigenvalues --   -0.75394  -0.74419  -0.74335  -0.73371  -0.72288
 Alpha  occ. eigenvalues --   -0.71391  -0.70759  -0.69736  -0.68610  -0.68157
 Alpha  occ. eigenvalues --   -0.67396  -0.66650  -0.65940  -0.64494  -0.63941
 Alpha  occ. eigenvalues --   -0.63658  -0.63237  -0.62315  -0.61595  -0.61446
 Alpha  occ. eigenvalues --   -0.60766  -0.60701  -0.59679  -0.59430  -0.58950
 Alpha  occ. eigenvalues --   -0.58302  -0.58235  -0.57067  -0.56929  -0.56504
 Alpha  occ. eigenvalues --   -0.56031  -0.55488  -0.54645  -0.54430  -0.54323
 Alpha  occ. eigenvalues --   -0.54254  -0.53883  -0.53816  -0.53740  -0.53561
 Alpha  occ. eigenvalues --   -0.52871  -0.52530  -0.52416  -0.52226  -0.51812
 Alpha  occ. eigenvalues --   -0.51525  -0.51330  -0.50986  -0.50749  -0.50715
 Alpha  occ. eigenvalues --   -0.50579  -0.50231  -0.50023  -0.49875  -0.49500
 Alpha  occ. eigenvalues --   -0.49452  -0.49134  -0.48944  -0.48655  -0.48472
 Alpha  occ. eigenvalues --   -0.48390  -0.48062  -0.47726  -0.47567  -0.47284
 Alpha  occ. eigenvalues --   -0.47111  -0.46866  -0.46681  -0.46516  -0.46168
 Alpha  occ. eigenvalues --   -0.46110  -0.45495  -0.45438  -0.45368  -0.45130
 Alpha  occ. eigenvalues --   -0.44912  -0.44553  -0.44439  -0.44362  -0.44080
 Alpha  occ. eigenvalues --   -0.44055  -0.43951  -0.43528  -0.43279  -0.43132
 Alpha  occ. eigenvalues --   -0.42979  -0.42710  -0.42679  -0.42529  -0.42341
 Alpha  occ. eigenvalues --   -0.42112  -0.42024  -0.41546  -0.41309  -0.41274
 Alpha  occ. eigenvalues --   -0.41030  -0.40913  -0.40593  -0.39995  -0.39841
 Alpha  occ. eigenvalues --   -0.39748  -0.39595  -0.39432  -0.39069  -0.39050
 Alpha  occ. eigenvalues --   -0.38597  -0.38280  -0.38174  -0.38009  -0.37657
 Alpha  occ. eigenvalues --   -0.37586  -0.37416  -0.37090  -0.36911  -0.36731
 Alpha  occ. eigenvalues --   -0.36347  -0.35715  -0.35511  -0.35255  -0.35209
 Alpha  occ. eigenvalues --   -0.35005  -0.34429  -0.34150  -0.33630  -0.33171
 Alpha  occ. eigenvalues --   -0.33009  -0.32748  -0.32354  -0.30639  -0.30284
 Alpha  occ. eigenvalues --   -0.29272  -0.29254  -0.28525  -0.27014  -0.22569
 Alpha  occ. eigenvalues --   -0.20720
 Alpha virt. eigenvalues --   -0.06508  -0.02471   0.01660   0.03571   0.04920
 Alpha virt. eigenvalues --    0.05031   0.05810   0.06981   0.07290   0.07334
 Alpha virt. eigenvalues --    0.08245   0.10277   0.10839   0.11342   0.11715

 Mulliken charges:
               1
     1  Mg   0.823637
     2  C    0.051477
     3  C   -0.210616
     4  C   -0.169727
     5  C   -0.218737
     6  N   -0.577645
     7  C    0.243209
     8  C   -0.109780
     9  C   -0.139816
    10  C    0.308650
    11  C   -0.314012
    12  C   -0.184101
    13  C   -0.286470
    14  C    0.605209
    15  O   -0.491697
    16  O   -0.443625
    17  N   -0.734055
    18  C    0.360071
    19  C    0.013956
    20  C   -0.023921
    21  C    0.318407
    22  C   -0.373545
    23  C   -0.086492
    24  C   -0.256342
    25  N   -0.736160
    26  C    0.325769
    27  C   -0.035903
    28  C    0.043135
    29  C    0.357159
    30  C   -0.362284
    31  C   -0.258087
    32  C   -0.302743
    33  N   -0.707766
    34  C    0.273236
    35  C    0.000052
    36  C   -0.038152
    37  C    0.311513
    38  C   -0.346507
    39  C    0.390528
    40  O   -0.399247
    41  C   -0.359448
    42  C    0.639591
    43  O   -0.515715
    44  O   -0.456173
    45  C   -0.060331
    46  C    0.013349
    47  C   -0.131373
    48  C    0.076175
    49  C   -0.344608
    50  C   -0.215242
    51  C   -0.183380
    52  C   -0.170646
    53  C   -0.066059
    54  C   -0.305898
    55  C   -0.156389
    56  C   -0.177503
    57  C   -0.163746
    58  C   -0.031931
    59  C   -0.328257
    60  C   -0.159114
    61  C   -0.194463
    62  C   -0.134928
    63  C   -0.074668
    64  C   -0.289425
    65  C   -0.282673
    66  H    0.075057
    67  H    0.101410
    68  H    0.083848
    69  H    0.123927
    70  H    0.104434
    71  H    0.110011
    72  H    0.116446
    73  H    0.134203
    74  H    0.120012
    75  H    0.135037
    76  H    0.136932
    77  H    0.138711
    78  H    0.108118
    79  H    0.138756
    80  H    0.128921
    81  H    0.097835
    82  H    0.109144
    83  H    0.097611
    84  H    0.140736
    85  H    0.118262
    86  H    0.129104
    87  H    0.116350
    88  H    0.067004
    89  H    0.114716
    90  H    0.091869
    91  H    0.114995
    92  H    0.109352
    93  H    0.143753
    94  H    0.134558
    95  H    0.154028
    96  H    0.106104
    97  H    0.141128
    98  H    0.108263
    99  H    0.112436
   100  H    0.115292
   101  H    0.093895
   102  H    0.115190
   103  H    0.113035
   104  H    0.122539
   105  H    0.102401
   106  H    0.084139
   107  H    0.098632
   108  H    0.117724
   109  H    0.102659
   110  H    0.083063
   111  H    0.089776
   112  H    0.079983
   113  H    0.112781
   114  H    0.100890
   115  H    0.072778
   116  H    0.069927
   117  H    0.094246
   118  H    0.038137
   119  H    0.085722
   120  H    0.096977
   121  H    0.061688
   122  H    0.083749
   123  H    0.112209
   124  H    0.114028
   125  H    0.087942
   126  H    0.099832
   127  H    0.089070
   128  H    0.085804
   129  H    0.058318
   130  H    0.058963
   131  H    0.090144
   132  H    0.096781
   133  H    0.086146
   134  H    0.111605
   135  H    0.090218
   136  H    0.105636
   137  H    0.069290
 Sum of Mulliken charges =   0.00000

 Dipole moment (field-independent basis, Debye):
    X=              1.0099    Y=              3.8071    Z=             -0.4220  Tot=              3.9614
 Quadrupole moment (field-independent basis, Debye-Ang):
   XX=           -361.9158   YY=           -396.8520   ZZ=           -398.5780
   XY=            -29.5655   XZ=              6.4847   YZ=              1.9989

 Normal termination of Gaussian 09 at Wed Jul  3 11:22:38 2019.
