 Gaussian 09, Revision D.01,
 Gaussian 09:  ES64L-G09RevD.01 24-Apr-2013

 -------------------------------------
 # td=(NStates=1) CAM-B3LYP/6-31G(d,p)
 -------------------------------------

 --
 TD
 --
 Symbolic Z-matrix:
 Charge =  0 Multiplicity = 1

                         Standard orientation:
 ---------------------------------------------------------------------
 Center     Atomic      Atomic             Coordinates (Angstroms)
 Number     Number       Type             X           Y           Z
 ---------------------------------------------------------------------
      1         12           0       -7.150618    0.585737    0.090182
      2          6           0       -4.810167   -1.974143    0.426522
      3          6           0       -4.754760    2.825962    1.192437
      4          6           0       -9.339307    3.072500   -0.409033
      5          6           0       -9.503460   -1.775832   -0.890193
      6          7           0       -5.209177    0.355825    0.713563
      7          6           0       -4.343199   -0.741135    0.814191
      8          6           0       -2.934307   -0.528291    1.269443
      9          6           0       -3.088955    0.945888    1.674577
     10          6           0       -4.459191    1.463345    1.237926
     11          6           0       -2.909338    1.066450    3.248831
     12          6           0       -1.999700   -0.736244    0.096487
     13          6           0       -0.543479   -0.328821    0.410152
     14          6           0        0.462924   -0.627229   -0.787472
     15          8           0        0.261039   -1.009973   -1.890436
     16          8           0        1.775726   -0.417323   -0.353487
     17          7           0       -7.083091    2.561174    0.376177
     18          6           0       -5.996153    3.351298    0.796094
     19          6           0       -6.375705    4.669181    0.877706
     20          6           0       -7.730136    4.793023    0.341650
     21          6           0       -8.132432    3.419887    0.079255
     22          6           0       -5.531207    5.858547    1.299587
     23          6           0       -8.686023    5.922219    0.172575
     24          6           0       -8.483837    7.099925    0.780434
     25          7           0       -9.142628    0.656246   -0.531031
     26          6           0       -9.853726    1.806462   -0.639813
     27          6           0      -11.163809    1.481849   -1.112147
     28          6           0      -11.188671    0.129396   -1.215315
     29          6           0       -9.927214   -0.380465   -0.867481
     30          6           0      -12.227454    2.500800   -1.308692
     31          6           0      -12.327536   -0.713317   -1.729976
     32          6           0      -12.349390   -0.934120   -3.215505
     33          7           0       -7.260887   -1.447166   -0.028401
     34          6           0       -8.267188   -2.226039   -0.507448
     35          6           0       -7.854750   -3.637414   -0.475230
     36          6           0       -6.422950   -3.593437   -0.132946
     37          6           0       -6.150032   -2.153668    0.093238
     38          6           0       -8.660577   -4.859313   -0.746614
     39          6           0       -5.295653   -4.393511    0.251899
     40          8           0       -5.066821   -5.544980    0.142291
     41          6           0       -4.090148   -3.262603    0.528562
     42          6           0       -3.438679   -3.740584    1.796346
     43          8           0       -3.718515   -3.165598    2.881699
     44          8           0       -2.613205   -4.752825    1.633245
     45          6           0       -2.097737   -5.312823    2.960358
     46          6           0        2.749793   -0.536012   -1.334197
     47          6           0        4.122128   -0.358318   -0.755465
     48          6           0        5.107921    0.479672   -1.132064
     49          6           0        4.981883    1.256430   -2.286220
     50          6           0        6.322157    0.501626   -0.255418
     51          6           0        7.651208    0.080276   -0.971228
     52          6           0        8.928060    0.089958   -0.156548
     53          6           0       10.100285   -0.471226   -0.882449
     54          6           0       10.049015   -1.949602   -1.169232
     55          6           0       11.390900   -0.094073    0.011100
     56          6           0       12.813645   -0.302486   -0.712547
     57          6           0       13.908295   -0.143386    0.199714
     58          6           0       15.327383   -0.157312   -0.450009
     59          6           0       15.770655   -1.555153   -0.816856
     60          6           0       16.417267    0.404055    0.533616
     61          6           0       17.832903    0.477984    0.027358
     62          6           0       18.822156    1.285136    0.891153
     63          6           0       20.277386    1.204941    0.229690
     64          6           0       20.417571    1.861168   -1.183527
     65          6           0       21.078618    1.871545    1.344737
     66          1           0       -4.131220    3.543881    1.653504
     67          1           0      -10.034225    3.839472   -0.638890
     68          1           0      -10.181766   -2.497476   -1.497243
     69          1           0       -2.517886   -1.428005    1.983327
     70          1           0       -2.125274    1.563505    1.371714
     71          1           0       -1.860746    0.854725    3.430129
     72          1           0       -3.035170    2.136306    3.564667
     73          1           0       -3.694718    0.451876    3.740944
     74          1           0       -1.781154   -1.783505   -0.288374
     75          1           0       -2.291021   -0.054658   -0.667489
     76          1           0       -0.248239    0.727966    0.500053
     77          1           0       -0.170487   -1.046105    1.160808
     78          1           0       -5.632172    6.799093    0.664281
     79          1           0       -5.983519    6.170140    2.427582
     80          1           0       -4.366779    5.408848    1.315620
     81          1           0       -9.444800    5.915327   -0.524729
     82          1           0       -9.567120    7.866669    0.816776
     83          1           0       -7.605800    7.445874    1.479202
     84          1           0      -11.885944    3.129261   -1.984552
     85          1           0      -13.219841    1.991117   -1.544822
     86          1           0      -12.386074    3.164612   -0.513103
     87          1           0      -12.313893   -1.600495   -0.870234
     88          1           0      -13.201338   -0.185008   -1.374321
     89          1           0      -13.215877   -1.435275   -3.704400
     90          1           0      -12.394599   -0.023146   -3.696513
     91          1           0      -11.419833   -1.337981   -3.423483
     92          1           0       -9.176289   -4.724776   -1.762853
     93          1           0       -8.006590   -5.576786   -0.672739
     94          1           0       -9.298655   -5.077778    0.200200
     95          1           0       -3.289921   -3.398461   -0.485778
     96          1           0       -1.608414   -4.521917    3.562260
     97          1           0       -2.903943   -5.809508    3.648336
     98          1           0       -1.183319   -5.805772    2.643824
     99          1           0        2.698656   -1.554968   -1.851141
    100          1           0        2.464200    0.149058   -2.176605
    101          1           0        4.162948   -0.779982    0.249551
    102          1           0        4.085818    1.052447   -2.935491
    103          1           0        5.167731    2.323898   -2.205581
    104          1           0        5.707842    0.969277   -3.132540
    105          1           0        6.523666    1.493734    0.043918
    106          1           0        6.250413   -0.150343    0.540361
    107          1           0        7.627765   -0.970633   -1.116322
    108          1           0        7.689542    0.576520   -1.892283
    109          1           0        9.232369    1.241393   -0.099210
    110          1           0        8.725106   -0.524716    0.793752
    111          1           0       10.361685    0.106136   -1.672541
    112          1           0        9.135222   -2.250824   -1.810276
    113          1           0       11.048512   -2.301206   -1.812041
    114          1           0        9.928472   -2.380899   -0.279791
    115          1           0       11.257134    0.999475    0.321514
    116          1           0       11.291388   -0.575593    0.933951
    117          1           0       12.823438   -1.283589   -1.179442
    118          1           0       12.791711    0.278243   -1.599645
    119          1           0       13.768787    0.892230    0.757486
    120          1           0       13.777778   -0.810705    1.084652
    121          1           0       15.488915    0.485642   -1.309682
    122          1           0       15.698522   -2.139618    0.091159
    123          1           0       15.016616   -1.896616   -1.560741
    124          1           0       16.694151   -1.437873   -1.448752
    125          1           0       15.822946    1.314319    0.906595
    126          1           0       16.058291   -0.097474    1.449572
    127          1           0       18.411065   -0.629910   -0.193880
    128          1           0       17.772097    0.835942   -0.978213
    129          1           0       18.438747    2.382358    0.993294
    130          1           0       18.633926    0.581343    1.741141
    131          1           0       20.443711    0.127790    0.015591
    132          1           0       19.976230    2.848515   -1.230021
    133          1           0       21.428811    1.954827   -1.579021
    134          1           0       19.952746    1.122276   -1.989288
    135          1           0       21.051598    1.283230    2.291091
    136          1           0       22.084745    1.910410    1.058798
    137          1           0       20.683742    2.770285    1.513480
 ---------------------------------------------------------------------

 SCF Done:  E(RCAM-B3LYP) =  -2932.66809725     A.U. after   18 cycles

 Excitation energies and oscillator strengths:

 Excited State   1:      Singlet-A      2.0214 eV  613.37 nm  f=0.2427  <S**2>=0.000
     240 -> 243        0.24323
     241 -> 242        0.65359
 This state for optimization and/or second-order correction.
 Total Energy, E(TD-HF/TD-KS) =  -2932.59381360
 Copying the excited state density for this state as the 1-particle RhoCI density.

 The electronic state is 1-A.
 Alpha  occ. eigenvalues --  -46.83225 -19.27880 -19.25191 -19.21859 -19.21086
 Alpha  occ. eigenvalues --  -19.19695 -14.41939 -14.39557 -14.38728 -14.38674
 Alpha  occ. eigenvalues --  -10.39403 -10.39236 -10.35396 -10.33242 -10.31538
 Alpha  occ. eigenvalues --  -10.31031 -10.30822 -10.30105 -10.29687 -10.29685
 Alpha  occ. eigenvalues --  -10.29447 -10.29375 -10.29261 -10.29090 -10.28903
 Alpha  occ. eigenvalues --  -10.28559 -10.28552 -10.28390 -10.28350 -10.28303
 Alpha  occ. eigenvalues --  -10.27695 -10.27507 -10.27502 -10.26978 -10.26852
 Alpha  occ. eigenvalues --  -10.26700 -10.26649 -10.26591 -10.26511 -10.26336
 Alpha  occ. eigenvalues --  -10.26206 -10.26153 -10.26147 -10.25879 -10.25816
 Alpha  occ. eigenvalues --  -10.25812 -10.25677 -10.25653 -10.25597 -10.25533
 Alpha  occ. eigenvalues --  -10.25370 -10.25193 -10.25041 -10.25028 -10.24966
 Alpha  occ. eigenvalues --  -10.24688 -10.24685 -10.24625 -10.24574 -10.24509
 Alpha  occ. eigenvalues --  -10.24423 -10.24307 -10.23872 -10.23787 -10.22707
 Alpha  occ. eigenvalues --   -3.12429  -1.87131  -1.86671  -1.86617  -1.18485
 Alpha  occ. eigenvalues --   -1.17724  -1.13515  -1.10262  -1.06820  -1.04842
 Alpha  occ. eigenvalues --   -1.03769  -1.02346  -1.01385  -0.92316  -0.91861
 Alpha  occ. eigenvalues --   -0.90674  -0.90361  -0.89699  -0.89498  -0.88627
 Alpha  occ. eigenvalues --   -0.88202  -0.88007  -0.87766  -0.87149  -0.85555
 Alpha  occ. eigenvalues --   -0.85031  -0.84294  -0.83808  -0.83076  -0.82822
 Alpha  occ. eigenvalues --   -0.81534  -0.81284  -0.80710  -0.80299  -0.78693
 Alpha  occ. eigenvalues --   -0.78166  -0.76765  -0.76518  -0.76318  -0.76195
 Alpha  occ. eigenvalues --   -0.74996  -0.74820  -0.74353  -0.73008  -0.72302
 Alpha  occ. eigenvalues --   -0.71780  -0.70231  -0.69945  -0.68693  -0.68303
 Alpha  occ. eigenvalues --   -0.66219  -0.65765  -0.65124  -0.65072  -0.64730
 Alpha  occ. eigenvalues --   -0.63778  -0.63280  -0.62932  -0.62519  -0.62051
 Alpha  occ. eigenvalues --   -0.61890  -0.60679  -0.60246  -0.60077  -0.59044
 Alpha  occ. eigenvalues --   -0.58913  -0.58257  -0.57383  -0.57276  -0.56265
 Alpha  occ. eigenvalues --   -0.55867  -0.55581  -0.55109  -0.54531  -0.54478
 Alpha  occ. eigenvalues --   -0.54450  -0.53958  -0.53633  -0.53576  -0.52997
 Alpha  occ. eigenvalues --   -0.52974  -0.52724  -0.52353  -0.51684  -0.51439
 Alpha  occ. eigenvalues --   -0.51228  -0.51006  -0.50888  -0.50857  -0.50630
 Alpha  occ. eigenvalues --   -0.50425  -0.50035  -0.49925  -0.49723  -0.49465
 Alpha  occ. eigenvalues --   -0.49054  -0.48837  -0.48680  -0.48504  -0.48280
 Alpha  occ. eigenvalues --   -0.48196  -0.48120  -0.47788  -0.47632  -0.47358
 Alpha  occ. eigenvalues --   -0.47171  -0.47124  -0.46813  -0.46622  -0.46511
 Alpha  occ. eigenvalues --   -0.46422  -0.46174  -0.45817  -0.45607  -0.45371
 Alpha  occ. eigenvalues --   -0.45133  -0.44804  -0.44720  -0.44644  -0.44432
 Alpha  occ. eigenvalues --   -0.44366  -0.44076  -0.44000  -0.43893  -0.43664
 Alpha  occ. eigenvalues --   -0.43553  -0.43313  -0.43069  -0.42823  -0.42697
 Alpha  occ. eigenvalues --   -0.42258  -0.42119  -0.42061  -0.41667  -0.41286
 Alpha  occ. eigenvalues --   -0.40597  -0.40480  -0.40175  -0.40130  -0.39767
 Alpha  occ. eigenvalues --   -0.39595  -0.39500  -0.39480  -0.39187  -0.38946
 Alpha  occ. eigenvalues --   -0.38662  -0.38452  -0.38362  -0.38295  -0.37980
 Alpha  occ. eigenvalues --   -0.37658  -0.37460  -0.37130  -0.36901  -0.36382
 Alpha  occ. eigenvalues --   -0.36239  -0.36008  -0.35619  -0.35464  -0.35335
 Alpha  occ. eigenvalues --   -0.35176  -0.34214  -0.33734  -0.33567  -0.33209
 Alpha  occ. eigenvalues --   -0.32831  -0.32385  -0.32348  -0.30497  -0.29687
 Alpha  occ. eigenvalues --   -0.29278  -0.28423  -0.28110  -0.26530  -0.23278
 Alpha  occ. eigenvalues --   -0.21539
 Alpha virt. eigenvalues --   -0.06803  -0.03514   0.01239   0.03732   0.05567
 Alpha virt. eigenvalues --    0.05951   0.06515   0.06866   0.07040   0.07544
 Alpha virt. eigenvalues --    0.07833   0.10498   0.10739   0.11111   0.11417

 Mulliken charges:
               1
     1  Mg   0.804109
     2  C    0.081184
     3  C   -0.195624
     4  C   -0.144316
     5  C   -0.178077
     6  N   -0.673115
     7  C    0.338168
     8  C   -0.116814
     9  C   -0.192640
    10  C    0.355023
    11  C   -0.298344
    12  C   -0.167426
    13  C   -0.260088
    14  C    0.562125
    15  O   -0.438131
    16  O   -0.485783
    17  N   -0.751375
    18  C    0.339618
    19  C   -0.009673
    20  C    0.012099
    21  C    0.322104
    22  C   -0.354789
    23  C   -0.056742
    24  C   -0.239258
    25  N   -0.698146
    26  C    0.280759
    27  C    0.042145
    28  C   -0.042403
    29  C    0.303918
    30  C   -0.366849
    31  C   -0.233400
    32  C   -0.304118
    33  N   -0.733804
    34  C    0.305845
    35  C    0.009306
    36  C   -0.035385
    37  C    0.341960
    38  C   -0.354262
    39  C    0.349405
    40  O   -0.419476
    41  C   -0.331216
    42  C    0.627031
    43  O   -0.519482
    44  O   -0.445324
    45  C   -0.099169
    46  C    0.032686
    47  C   -0.166346
    48  C    0.190003
    49  C   -0.401632
    50  C   -0.220076
    51  C   -0.185321
    52  C   -0.170013
    53  C   -0.056626
    54  C   -0.294814
    55  C   -0.199295
    56  C   -0.172507
    57  C   -0.179492
    58  C   -0.081664
    59  C   -0.283857
    60  C   -0.175059
    61  C   -0.187332
    62  C   -0.168542
    63  C   -0.062062
    64  C   -0.315427
    65  C   -0.294805
    66  H    0.082876
    67  H    0.077002
    68  H    0.109960
    69  H    0.129811
    70  H    0.094836
    71  H    0.110547
    72  H    0.097238
    73  H    0.130629
    74  H    0.121437
    75  H    0.121453
    76  H    0.139834
    77  H    0.136847
    78  H    0.130730
    79  H    0.099087
    80  H    0.087472
    81  H    0.111853
    82  H    0.062220
    83  H    0.108832
    84  H    0.130832
    85  H    0.105782
    86  H    0.126391
    87  H    0.076755
    88  H    0.099079
    89  H    0.103976
    90  H    0.122066
    91  H    0.114539
    92  H    0.124151
    93  H    0.156674
    94  H    0.128012
    95  H    0.121908
    96  H    0.139255
    97  H    0.152447
    98  H    0.136401
    99  H    0.108152
   100  H    0.100495
   101  H    0.088990
   102  H    0.114252
   103  H    0.121367
   104  H    0.106585
   105  H    0.100560
   106  H    0.100023
   107  H    0.094722
   108  H    0.094252
   109  H    0.071956
   110  H    0.080302
   111  H    0.095221
   112  H    0.095711
   113  H    0.081800
   114  H    0.114424
   115  H    0.078257
   116  H    0.089666
   117  H    0.094633
   118  H    0.098522
   119  H    0.068335
   120  H    0.095392
   121  H    0.083227
   122  H    0.103730
   123  H    0.085557
   124  H    0.100470
   125  H    0.075636
   126  H    0.080638
   127  H    0.059869
   128  H    0.098745
   129  H    0.088030
   130  H    0.110886
   131  H    0.085550
   132  H    0.106286
   133  H    0.108392
   134  H    0.086226
   135  H    0.099037
   136  H    0.092764
   137  H    0.113017
 Sum of Mulliken charges =   0.00000

 Dipole moment (field-independent basis, Debye):
    X=              0.5730    Y=              3.0590    Z=             -0.0473  Tot=              3.1126
 Quadrupole moment (field-independent basis, Debye-Ang):
   XX=           -348.9675   YY=           -390.4948   ZZ=           -395.1388
   XY=            -11.3550   XZ=              9.6103   YZ=             -8.4524

 Normal termination of Gaussian 09 at Wed Jul  3 16:25:37 2019.
