 Gaussian 16, Revision A.03,
 Gaussian 16:  ES64L-G16RevA.03 25-Dec-2016

 ----------------------------------------------------------------------
 # td=(NStates=1) iop(3/107=0140000000,3/108=0140000000) CAM-B3LYP/6-31
 G(d,p)
 ----------------------------------------------------------------------

 --
 TD
 --
 Symbolic Z-matrix:
 Charge =  0 Multiplicity = 1

                         Standard orientation:
 ---------------------------------------------------------------------
 Center     Atomic      Atomic             Coordinates (Angstroms)
 Number     Number       Type             X           Y           Z
 ---------------------------------------------------------------------
      1         12           0       -7.044297    0.630076    0.054631
      2          6           0       -4.847153   -1.947543    0.495025
      3          6           0       -4.731786    2.854828    1.056288
      4          6           0       -9.304592    3.133137   -0.450208
      5          6           0       -9.518796   -1.652535   -0.849181
      6          7           0       -5.130034    0.422843    0.571156
      7          6           0       -4.375275   -0.637488    0.725406
      8          6           0       -2.921288   -0.352894    1.214624
      9          6           0       -3.085864    1.095133    1.670102
     10          6           0       -4.369198    1.614914    1.039063
     11          6           0       -3.031742    1.220138    3.209679
     12          6           0       -1.903805   -0.704100    0.069042
     13          6           0       -0.548934   -0.478585    0.513134
     14          6           0        0.523848   -0.781456   -0.622220
     15          8           0        0.281618   -1.229499   -1.735340
     16          8           0        1.780405   -0.606733   -0.172158
     17          7           0       -7.106384    2.688907    0.322067
     18          6           0       -6.051386    3.331669    0.731814
     19          6           0       -6.297144    4.755913    0.816490
     20          6           0       -7.640608    4.928152    0.357265
     21          6           0       -8.053262    3.576849    0.017518
     22          6           0       -5.351446    5.929748    1.110683
     23          6           0       -8.470369    6.031023    0.219020
     24          6           0       -8.377651    7.130500    0.844577
     25          7           0       -9.085734    0.747484   -0.615017
     26          6           0       -9.908253    1.830678   -0.625646
     27          6           0      -11.221080    1.559930   -1.158450
     28          6           0      -11.191302    0.198326   -1.379113
     29          6           0       -9.881076   -0.319539   -0.972911
     30          6           0      -12.334270    2.554304   -1.090288
     31          6           0      -12.330438   -0.682802   -1.912530
     32          6           0      -12.178768   -1.168347   -3.391937
     33          7           0       -7.149760   -1.312277   -0.188974
     34          6           0       -8.161510   -2.201957   -0.474189
     35          6           0       -7.861681   -3.613909   -0.398600
     36          6           0       -6.552210   -3.499957   -0.086754
     37          6           0       -6.176452   -2.232894    0.076735
     38          6           0       -8.567815   -4.773245   -0.983125
     39          6           0       -5.372232   -4.338300    0.152539
     40          8           0       -5.208702   -5.568023    0.247413
     41          6           0       -4.217993   -3.300096    0.556216
     42          6           0       -3.657893   -3.598634    1.936813
     43          8           0       -3.918695   -3.000306    2.970101
     44          8           0       -2.917056   -4.832198    1.955466
     45          6           0       -2.397811   -5.159623    3.259336
     46          6           0        2.780504   -0.899114   -1.119110
     47          6           0        4.163715   -0.775076   -0.538647
     48          6           0        5.117949    0.092478   -0.924751
     49          6           0        4.898124    0.990120   -2.179530
     50          6           0        6.475142    0.333303   -0.255797
     51          6           0        7.695099   -0.201562   -0.969269
     52          6           0        8.861453   -0.336783   -0.104573
     53          6           0       10.194482   -0.611656   -0.909281
     54          6           0       10.160729   -2.109042   -1.332032
     55          6           0       11.440452   -0.250801    0.007714
     56          6           0       12.739235   -0.433073   -0.597436
     57          6           0       14.012250    0.006990    0.221041
     58          6           0       15.338576   -0.125349   -0.530874
     59          6           0       15.686567   -1.551560   -0.821597
     60          6           0       16.375341    0.559336    0.402526
     61          6           0       17.758549    0.714182   -0.307115
     62          6           0       18.750431    1.344095    0.599546
     63          6           0       20.207429    1.401447    0.279693
     64          6           0       20.504439    2.051554   -1.114533
     65          6           0       21.133011    2.006365    1.355552
     66          1           0       -3.923911    3.484649    1.419813
     67          1           0      -10.018473    3.992498   -0.461442
     68          1           0      -10.196458   -2.290883   -1.251532
     69          1           0       -2.916684   -0.964741    2.102950
     70          1           0       -2.301163    1.663508    1.123421
     71          1           0       -2.125013    0.754085    3.608780
     72          1           0       -3.096732    2.196892    3.544966
     73          1           0       -4.015501    0.827671    3.837616
     74          1           0       -2.224912   -1.685616   -0.315166
     75          1           0       -2.170173    0.023983   -0.661357
     76          1           0       -0.410476    0.442325    0.670067
     77          1           0       -0.163088   -1.054336    1.515798
     78          1           0       -5.709845    6.720380    0.559231
     79          1           0       -5.335827    6.278465    2.114634
     80          1           0       -4.379545    5.707325    0.720977
     81          1           0       -9.340501    5.790800   -0.567708
     82          1           0       -9.074213    7.847501    0.557697
     83          1           0       -7.552573    7.220685    1.413464
     84          1           0      -12.241048    3.111766   -2.013675
     85          1           0      -13.370205    2.334873   -1.111712
     86          1           0      -12.318407    3.334148   -0.149658
     87          1           0      -12.485749   -1.733335   -1.310219
     88          1           0      -13.323859   -0.241017   -1.604913
     89          1           0      -13.127492   -1.358962   -3.922981
     90          1           0      -11.935022   -0.285769   -4.027902
     91          1           0      -11.324867   -1.982106   -3.240721
     92          1           0       -8.703040   -4.698198   -2.064773
     93          1           0       -8.146207   -5.822528   -0.685116
     94          1           0       -9.676576   -4.855312   -0.500784
     95          1           0       -3.289331   -3.455963   -0.112242
     96          1           0       -1.860894   -4.376800    3.702111
     97          1           0       -3.237334   -5.518975    3.766963
     98          1           0       -1.826095   -6.093091    3.094956
     99          1           0        2.671136   -1.799108   -1.504447
    100          1           0        2.713486   -0.014748   -1.959040
    101          1           0        4.216971   -1.186149    0.386792
    102          1           0        4.002706    1.068358   -2.619584
    103          1           0        5.023181    2.202522   -1.957451
    104          1           0        5.728467    0.941244   -2.943707
    105          1           0        6.491325    1.478973    0.005430
    106          1           0        6.460411   -0.569778    0.592272
    107          1           0        7.534308   -1.218736   -1.135150
    108          1           0        7.844879    0.307210   -1.952698
    109          1           0        8.958239    0.670892    0.137982
    110          1           0        8.993555   -1.000241    0.828656
    111          1           0       10.095114    0.105572   -1.850284
    112          1           0        9.315907   -2.367012   -2.063749
    113          1           0       11.062333   -2.765578   -1.811874
    114          1           0        9.973570   -2.866784   -0.404165
    115          1           0       11.381587    0.832777    0.293969
    116          1           0       11.193791   -0.779665    0.883572
    117          1           0       12.884860   -1.404096   -0.728791
    118          1           0       12.897004    0.003513   -1.760365
    119          1           0       14.009511    1.118258    0.465001
    120          1           0       14.157978   -0.518395    1.288133
    121          1           0       15.366205    0.452392   -1.325518
    122          1           0       15.692262   -2.166083    0.164956
    123          1           0       14.760032   -1.982558   -1.313819
    124          1           0       16.683927   -1.566096   -1.330022
    125          1           0       15.989075    1.494505    0.649719
    126          1           0       16.560421   -0.100553    1.363505
    127          1           0       18.256581   -0.230207   -0.643915
    128          1           0       17.625595    1.420656   -1.179672
    129          1           0       18.444108    2.406964    0.789323
    130          1           0       18.510330    0.902179    1.791084
    131          1           0       20.602057    0.507878    0.149719
    132          1           0       20.130486    3.035265   -0.878718
    133          1           0       21.591233    1.891914   -1.374137
    134          1           0       20.051564    1.638214   -2.029854
    135          1           0       21.125054    1.413438    2.305424
    136          1           0       22.127728    1.828418    0.840242
    137          1           0       20.831186    2.962037    1.649139
 ---------------------------------------------------------------------

 SCF Done:  E(RCAM-B3LYP) =  -2933.46699122     A.U. after   16 cycles

 Excitation energies and oscillator strengths:

 Excited State   1:      Singlet-A      1.9004 eV  652.39 nm  f=0.3556  <S**2>=0.000
     240 -> 243       -0.17335
     241 -> 242        0.68451
 This state for optimization and/or second-order correction.
 Total Energy, E(TD-HF/TD-DFT) =  -2933.39715107
 Copying the excited state density for this state as the 1-particle RhoCI density.

 The electronic state is 1-A.
 Alpha  occ. eigenvalues --  -46.79785 -19.22383 -19.20032 -19.16975 -19.16657
 Alpha  occ. eigenvalues --  -19.16143 -14.37193 -14.35503 -14.35195 -14.35167
 Alpha  occ. eigenvalues --  -10.34673 -10.34254 -10.30672 -10.26857 -10.26041
 Alpha  occ. eigenvalues --  -10.25777 -10.25511 -10.25410 -10.25069 -10.24690
 Alpha  occ. eigenvalues --  -10.24640 -10.24394 -10.24377 -10.24053 -10.24030
 Alpha  occ. eigenvalues --  -10.23657 -10.23607 -10.23601 -10.23563 -10.23511
 Alpha  occ. eigenvalues --  -10.23502 -10.23434 -10.23230 -10.23157 -10.22825
 Alpha  occ. eigenvalues --  -10.22763 -10.22640 -10.22631 -10.22568 -10.22470
 Alpha  occ. eigenvalues --  -10.22300 -10.22253 -10.22240 -10.22218 -10.21944
 Alpha  occ. eigenvalues --  -10.21829 -10.21725 -10.21620 -10.21543 -10.21472
 Alpha  occ. eigenvalues --  -10.21095 -10.21009 -10.20917 -10.20897 -10.20862
 Alpha  occ. eigenvalues --  -10.20764 -10.20729 -10.20697 -10.20656 -10.20383
 Alpha  occ. eigenvalues --  -10.20292 -10.20149 -10.20016 -10.19589 -10.19327
 Alpha  occ. eigenvalues --   -3.08534  -1.83460  -1.83017  -1.82952  -1.13820
 Alpha  occ. eigenvalues --   -1.09940  -1.04318  -1.04070  -1.02661  -1.00891
 Alpha  occ. eigenvalues --   -1.00102  -0.97936  -0.97464  -0.87352  -0.86625
 Alpha  occ. eigenvalues --   -0.85942  -0.85802  -0.85655  -0.84795  -0.84416
 Alpha  occ. eigenvalues --   -0.83727  -0.83121  -0.82809  -0.82486  -0.81594
 Alpha  occ. eigenvalues --   -0.80934  -0.79718  -0.78469  -0.78140  -0.77904
 Alpha  occ. eigenvalues --   -0.77166  -0.76119  -0.75311  -0.74899  -0.74045
 Alpha  occ. eigenvalues --   -0.73385  -0.72598  -0.71330  -0.71130  -0.70868
 Alpha  occ. eigenvalues --   -0.70694  -0.70222  -0.69423  -0.69148  -0.68609
 Alpha  occ. eigenvalues --   -0.67250  -0.66155  -0.65019  -0.64501  -0.64225
 Alpha  occ. eigenvalues --   -0.63601  -0.62304  -0.61104  -0.60584  -0.60264
 Alpha  occ. eigenvalues --   -0.59821  -0.59275  -0.59030  -0.58394  -0.58163
 Alpha  occ. eigenvalues --   -0.57114  -0.56561  -0.56138  -0.55934  -0.55361
 Alpha  occ. eigenvalues --   -0.55236  -0.54129  -0.53675  -0.53242  -0.52780
 Alpha  occ. eigenvalues --   -0.52522  -0.52300  -0.52083  -0.51103  -0.50941
 Alpha  occ. eigenvalues --   -0.50649  -0.50262  -0.50189  -0.49819  -0.49522
 Alpha  occ. eigenvalues --   -0.49127  -0.48926  -0.48569  -0.48454  -0.48237
 Alpha  occ. eigenvalues --   -0.47774  -0.47551  -0.47159  -0.47085  -0.46748
 Alpha  occ. eigenvalues --   -0.46515  -0.46338  -0.46088  -0.45885  -0.45838
 Alpha  occ. eigenvalues --   -0.45701  -0.45446  -0.45217  -0.45118  -0.44887
 Alpha  occ. eigenvalues --   -0.44536  -0.44442  -0.44243  -0.44000  -0.43935
 Alpha  occ. eigenvalues --   -0.43830  -0.43415  -0.43357  -0.42816  -0.42560
 Alpha  occ. eigenvalues --   -0.42443  -0.42387  -0.42151  -0.42042  -0.41783
 Alpha  occ. eigenvalues --   -0.41452  -0.41316  -0.41198  -0.40965  -0.40672
 Alpha  occ. eigenvalues --   -0.40337  -0.40209  -0.40083  -0.39930  -0.39661
 Alpha  occ. eigenvalues --   -0.39533  -0.39201  -0.39080  -0.38851  -0.38635
 Alpha  occ. eigenvalues --   -0.38513  -0.38435  -0.38387  -0.38284  -0.37969
 Alpha  occ. eigenvalues --   -0.37563  -0.37472  -0.37150  -0.37050  -0.36998
 Alpha  occ. eigenvalues --   -0.36907  -0.36587  -0.36552  -0.36166  -0.35765
 Alpha  occ. eigenvalues --   -0.35434  -0.35273  -0.35125  -0.35044  -0.35015
 Alpha  occ. eigenvalues --   -0.34597  -0.34562  -0.34017  -0.33790  -0.33784
 Alpha  occ. eigenvalues --   -0.33510  -0.33322  -0.32840  -0.32819  -0.32645
 Alpha  occ. eigenvalues --   -0.32118  -0.31388  -0.31212  -0.31139  -0.30420
 Alpha  occ. eigenvalues --   -0.30090  -0.29988  -0.29840  -0.28458  -0.27737
 Alpha  occ. eigenvalues --   -0.27333  -0.26716  -0.26083  -0.24992  -0.22315
 Alpha  occ. eigenvalues --   -0.19558
 Alpha virt. eigenvalues --   -0.07695  -0.03677   0.00304   0.02539   0.03526
 Alpha virt. eigenvalues --    0.03694   0.04030   0.04750   0.05185   0.05633
 Alpha virt. eigenvalues --    0.06449   0.08623   0.09021   0.09817   0.09953

 Mulliken charges:
               1
     1  Mg   0.812861
     2  C    0.090129
     3  C   -0.170986
     4  C   -0.171526
     5  C   -0.151826
     6  N   -0.665965
     7  C    0.311963
     8  C   -0.158377
     9  C   -0.151200
    10  C    0.318585
    11  C   -0.308609
    12  C   -0.162438
    13  C   -0.228697
    14  C    0.579591
    15  O   -0.471319
    16  O   -0.455709
    17  N   -0.679041
    18  C    0.324846
    19  C   -0.028069
    20  C    0.054063
    21  C    0.270107
    22  C   -0.379438
    23  C   -0.069926
    24  C   -0.226321
    25  N   -0.644065
    26  C    0.257296
    27  C    0.058442
    28  C    0.020013
    29  C    0.310577
    30  C   -0.380034
    31  C   -0.266257
    32  C   -0.292772
    33  N   -0.700519
    34  C    0.214517
    35  C    0.056227
    36  C    0.067872
    37  C    0.276137
    38  C   -0.389417
    39  C    0.357253
    40  O   -0.464046
    41  C   -0.358990
    42  C    0.620072
    43  O   -0.460924
    44  O   -0.478416
    45  C   -0.076085
    46  C    0.044759
    47  C   -0.152850
    48  C    0.148926
    49  C   -0.367721
    50  C   -0.222064
    51  C   -0.178037
    52  C   -0.160333
    53  C   -0.070624
    54  C   -0.308542
    55  C   -0.161289
    56  C   -0.156948
    57  C   -0.175743
    58  C   -0.040372
    59  C   -0.298692
    60  C   -0.168031
    61  C   -0.177293
    62  C   -0.139884
    63  C   -0.070513
    64  C   -0.315527
    65  C   -0.304024
    66  H    0.088513
    67  H    0.071788
    68  H    0.063521
    69  H    0.136182
    70  H    0.093074
    71  H    0.116815
    72  H    0.116420
    73  H    0.104086
    74  H    0.122547
    75  H    0.119873
    76  H    0.138306
    77  H    0.115805
    78  H    0.130915
    79  H    0.127395
    80  H    0.115755
    81  H    0.072466
    82  H    0.096611
    83  H    0.083708
    84  H    0.130322
    85  H    0.126867
    86  H    0.106759
    87  H    0.081057
    88  H    0.097550
    89  H    0.113247
    90  H    0.108766
    91  H    0.105881
    92  H    0.143429
    93  H    0.143565
    94  H    0.098527
    95  H    0.149640
    96  H    0.126111
    97  H    0.133632
    98  H    0.115709
    99  H    0.136446
   100  H    0.083926
   101  H    0.087894
   102  H    0.127764
   103  H    0.071334
   104  H    0.116774
   105  H    0.100700
   106  H    0.076759
   107  H    0.113429
   108  H    0.095501
   109  H    0.098966
   110  H    0.093159
   111  H    0.070588
   112  H    0.105632
   113  H    0.086312
   114  H    0.074753
   115  H    0.084742
   116  H    0.096514
   117  H    0.113317
   118  H    0.059707
   119  H    0.072628
   120  H    0.069329
   121  H    0.092597
   122  H    0.086300
   123  H    0.096032
   124  H    0.101736
   125  H    0.096640
   126  H    0.074943
   127  H    0.091447
   128  H    0.089077
   129  H    0.073366
   130  H    0.034716
   131  H    0.096854
   132  H    0.105443
   133  H    0.091705
   134  H    0.101874
   135  H    0.098730
   136  H    0.094641
   137  H    0.108103
 Sum of Mulliken charges =  -0.00000

 Dipole moment (field-independent basis, Debye):
    X=              0.6463    Y=              5.3070    Z=             -0.0132  Tot=              5.3462
 Quadrupole moment (field-independent basis, Debye-Ang):
   XX=           -343.8544   YY=           -398.2210   ZZ=           -397.0756
   XY=            -25.4388   XZ=             10.2777   YZ=             -1.8460

 Normal termination of Gaussian 16 at Mon Sep 16 02:45:33 2019.
