 Gaussian 09, Revision D.01,
 Gaussian 09:  ES64L-G09RevD.01 24-Apr-2013

 -------------------------------------
 # td=(NStates=1) CAM-B3LYP/6-31G(d,p)
 -------------------------------------

 --
 TD
 --
 Symbolic Z-matrix:
 Charge =  0 Multiplicity = 1

                         Standard orientation:
 ---------------------------------------------------------------------
 Center     Atomic      Atomic             Coordinates (Angstroms)
 Number     Number       Type             X           Y           Z
 ---------------------------------------------------------------------
      1         12           0       -7.202841    0.695067    0.123169
      2          6           0       -4.901780   -1.919390    0.484350
      3          6           0       -4.837869    2.886834    1.007022
      4          6           0       -9.446835    2.974873   -0.373128
      5          6           0       -9.593701   -1.796301   -0.833223
      6          7           0       -5.136290    0.446058    0.662473
      7          6           0       -4.343103   -0.646934    0.751680
      8          6           0       -2.879862   -0.328997    1.116190
      9          6           0       -2.925623    1.108903    1.530174
     10          6           0       -4.342072    1.507864    1.032066
     11          6           0       -2.963762    1.375053    3.067902
     12          6           0       -1.891129   -0.647241   -0.024810
     13          6           0       -0.543179   -0.398905    0.594570
     14          6           0        0.554341   -0.685533   -0.562605
     15          8           0        0.267956   -0.994124   -1.749621
     16          8           0        1.794321   -0.479035   -0.124564
     17          7           0       -7.196693    2.550930    0.266177
     18          6           0       -6.086824    3.342253    0.625634
     19          6           0       -6.465388    4.731416    0.701767
     20          6           0       -7.815870    4.820321    0.394168
     21          6           0       -8.293150    3.416293    0.065907
     22          6           0       -5.525839    5.841037    1.205406
     23          6           0       -8.649086    5.959394    0.277038
     24          6           0       -8.551740    7.117900    0.974893
     25          7           0       -9.168943    0.581611   -0.509285
     26          6           0       -9.945929    1.721951   -0.705601
     27          6           0      -11.276152    1.377904   -1.121863
     28          6           0      -11.269462    0.081431   -1.355777
     29          6           0       -9.931990   -0.536683   -0.884918
     30          6           0      -12.285660    2.469401   -1.432644
     31          6           0      -12.420271   -0.811657   -1.877183
     32          6           0      -12.379461   -1.036285   -3.375617
     33          7           0       -7.302542   -1.441017   -0.204543
     34          6           0       -8.284359   -2.290719   -0.509072
     35          6           0       -7.845615   -3.598921   -0.448322
     36          6           0       -6.559362   -3.594798   -0.037885
     37          6           0       -6.285644   -2.207464    0.114766
     38          6           0       -8.587250   -4.934894   -0.794145
     39          6           0       -5.330904   -4.374369    0.310397
     40          8           0       -5.129929   -5.492762    0.342154
     41          6           0       -4.202785   -3.285608    0.579836
     42          6           0       -3.614022   -3.616653    1.936207
     43          8           0       -3.790984   -3.006187    3.001849
     44          8           0       -2.744561   -4.663700    1.900517
     45          6           0       -2.046092   -4.962389    3.156946
     46          6           0        2.888321   -0.683269   -1.087218
     47          6           0        4.182345   -0.299409   -0.481975
     48          6           0        5.218400    0.254468   -1.006841
     49          6           0        5.228525    1.135542   -2.152515
     50          6           0        6.479315    0.468774   -0.220687
     51          6           0        7.730262   -0.241477   -0.957688
     52          6           0        8.929615   -0.263309   -0.118804
     53          6           0       10.266162   -0.660822   -0.839855
     54          6           0       10.135071   -2.094273   -1.274682
     55          6           0       11.491284   -0.291620    0.020084
     56          6           0       12.738070   -0.396906   -0.788217
     57          6           0       13.922448    0.033144    0.018007
     58          6           0       15.423120   -0.134871   -0.540557
     59          6           0       15.678020   -1.537186   -0.854256
     60          6           0       16.472766    0.438643    0.433935
     61          6           0       17.933334    0.477424   -0.124255
     62          6           0       18.965312    1.235498    0.761607
     63          6           0       20.257443    1.323556    0.173951
     64          6           0       20.353626    2.098167   -1.121111
     65          6           0       21.221670    1.999777    1.321673
     66          1           0       -4.185699    3.634091    1.499475
     67          1           0       -9.990148    3.775615   -0.631446
     68          1           0      -10.374999   -2.436425   -1.171294
     69          1           0       -2.868902   -0.922363    1.966116
     70          1           0       -2.025120    1.701047    1.097997
     71          1           0       -1.966698    1.034392    3.500049
     72          1           0       -3.055338    2.386380    3.512933
     73          1           0       -3.592892    0.710994    3.689471
     74          1           0       -2.014963   -1.623917   -0.328057
     75          1           0       -2.063666    0.036550   -0.768967
     76          1           0       -0.309897    0.583110    1.011408
     77          1           0       -0.154562   -1.228259    1.358389
     78          1           0       -5.988202    6.683412    0.708886
     79          1           0       -5.718502    5.738954    2.305140
     80          1           0       -4.632384    5.683155    0.775250
     81          1           0       -9.431091    6.047335   -0.540078
     82          1           0       -9.209923    7.909833    0.776182
     83          1           0       -7.587385    7.477690    1.460355
     84          1           0      -12.067454    2.926119   -2.432029
     85          1           0      -13.322424    2.189360   -1.695862
     86          1           0      -12.405716    3.111512   -0.559892
     87          1           0      -12.898580   -1.610142   -1.170316
     88          1           0      -13.185921   -0.004274   -1.623508
     89          1           0      -13.039634   -1.798601   -3.868357
     90          1           0      -12.475757   -0.143242   -4.141701
     91          1           0      -11.427900   -1.638839   -3.501541
     92          1           0       -8.859232   -5.096005   -1.812155
     93          1           0       -7.757711   -5.533385   -0.649437
     94          1           0       -9.477787   -4.862778   -0.212623
     95          1           0       -3.405235   -3.404758   -0.327788
     96          1           0       -1.431944   -4.138208    3.587369
     97          1           0       -2.814012   -5.049566    3.900159
     98          1           0       -1.318637   -5.733990    2.778711
     99          1           0        3.032188   -1.713411   -1.416256
    100          1           0        2.454481   -0.080197   -2.014607
    101          1           0        4.072242   -0.899318    0.459439
    102          1           0        4.267005    1.218343   -2.627437
    103          1           0        5.567217    2.193087   -2.012561
    104          1           0        6.005235    0.782794   -2.894170
    105          1           0        6.775947    1.426018    0.071777
    106          1           0        6.415932    0.240786    0.807971
    107          1           0        7.396464   -1.179841   -1.374646
    108          1           0        7.945111    0.231374   -1.924478
    109          1           0        9.071137    0.685655    0.396901
    110          1           0        8.903016   -0.989889    0.728512
    111          1           0       10.449010    0.106728   -1.762807
    112          1           0        9.459029   -2.430384   -1.950511
    113          1           0       10.986819   -2.637549   -1.719783
    114          1           0        9.914021   -2.825751   -0.368921
    115          1           0       11.252546    0.684357    0.428943
    116          1           0       11.611625   -1.031223    0.818068
    117          1           0       12.757924   -1.403026   -1.031589
    118          1           0       12.696279    0.242975   -1.740279
    119          1           0       13.666519    1.143922    0.383247
    120          1           0       13.931565   -0.645958    1.014781
    121          1           0       15.645710    0.379265   -1.598806
    122          1           0       15.745276   -2.285839    0.020428
    123          1           0       15.057289   -1.885743   -1.709760
    124          1           0       16.729103   -1.528489   -1.338416
    125          1           0       16.087092    1.416957    0.614992
    126          1           0       16.278385   -0.193152    1.263359
    127          1           0       18.278028   -0.500088   -0.510250
    128          1           0       17.833173    1.088589   -1.092373
    129          1           0       18.591648    2.158821    1.219751
    130          1           0       18.967126    0.575140    1.684820
    131          1           0       20.579258    0.354391    0.156315
    132          1           0       19.978898    3.081493   -0.950694
    133          1           0       21.350606    2.235261   -1.558318
    134          1           0       19.601449    1.580977   -2.046011
    135          1           0       21.298162    1.415183    2.226321
    136          1           0       22.131285    1.929119    1.055457
    137          1           0       20.679364    2.910799    1.349981
 ---------------------------------------------------------------------

 SCF Done:  E(RCAM-B3LYP) =  -2932.69754966     A.U. after   18 cycles

 Excitation energies and oscillator strengths:

 Excited State   1:      Singlet-A      2.1192 eV  585.06 nm  f=0.2813  <S**2>=0.000
     240 -> 242       -0.11790
     240 -> 243        0.21606
     241 -> 242        0.65483
 This state for optimization and/or second-order correction.
 Total Energy, E(TD-HF/TD-KS) =  -2932.61967190
 Copying the excited state density for this state as the 1-particle RhoCI density.

 The electronic state is 1-A.
 Alpha  occ. eigenvalues --  -46.83428 -19.27209 -19.25498 -19.20584 -19.20572
 Alpha  occ. eigenvalues --  -19.20273 -14.42374 -14.38967 -14.38757 -14.37962
 Alpha  occ. eigenvalues --  -10.39624 -10.39047 -10.34694 -10.32758 -10.32158
 Alpha  occ. eigenvalues --  -10.31261 -10.30069 -10.29786 -10.29543 -10.29411
 Alpha  occ. eigenvalues --  -10.29384 -10.29237 -10.28995 -10.27922 -10.27717
 Alpha  occ. eigenvalues --  -10.27658 -10.27598 -10.27513 -10.27190 -10.27127
 Alpha  occ. eigenvalues --  -10.26923 -10.26894 -10.26855 -10.26848 -10.26702
 Alpha  occ. eigenvalues --  -10.26699 -10.26661 -10.26594 -10.26483 -10.26397
 Alpha  occ. eigenvalues --  -10.26363 -10.26359 -10.26239 -10.26206 -10.26146
 Alpha  occ. eigenvalues --  -10.26055 -10.25896 -10.25834 -10.25629 -10.25611
 Alpha  occ. eigenvalues --  -10.25394 -10.25272 -10.25049 -10.24993 -10.24888
 Alpha  occ. eigenvalues --  -10.24741 -10.24667 -10.24650 -10.24516 -10.24399
 Alpha  occ. eigenvalues --  -10.24277 -10.24127 -10.23556 -10.23072 -10.22687
 Alpha  occ. eigenvalues --   -3.12699  -1.87371  -1.86955  -1.86894  -1.17845
 Alpha  occ. eigenvalues --   -1.16644  -1.15602  -1.07122  -1.06903  -1.05016
 Alpha  occ. eigenvalues --   -1.03980  -1.02098  -1.00886  -0.92419  -0.91283
 Alpha  occ. eigenvalues --   -0.91035  -0.90910  -0.90496  -0.89590  -0.89169
 Alpha  occ. eigenvalues --   -0.88746  -0.88252  -0.87053  -0.86560  -0.86360
 Alpha  occ. eigenvalues --   -0.85564  -0.84220  -0.83635  -0.83123  -0.82754
 Alpha  occ. eigenvalues --   -0.81593  -0.80753  -0.80499  -0.79784  -0.78180
 Alpha  occ. eigenvalues --   -0.77598  -0.77026  -0.76583  -0.76233  -0.75933
 Alpha  occ. eigenvalues --   -0.75473  -0.75267  -0.75177  -0.74043  -0.72470
 Alpha  occ. eigenvalues --   -0.71506  -0.70863  -0.69936  -0.69246  -0.68226
 Alpha  occ. eigenvalues --   -0.67931  -0.67341  -0.65702  -0.64738  -0.64334
 Alpha  occ. eigenvalues --   -0.63561  -0.63454  -0.63333  -0.63105  -0.61744
 Alpha  occ. eigenvalues --   -0.61589  -0.60475  -0.60074  -0.59948  -0.59234
 Alpha  occ. eigenvalues --   -0.58027  -0.57931  -0.57269  -0.57012  -0.56647
 Alpha  occ. eigenvalues --   -0.56061  -0.55898  -0.55326  -0.55190  -0.54863
 Alpha  occ. eigenvalues --   -0.54456  -0.54120  -0.53831  -0.53383  -0.52982
 Alpha  occ. eigenvalues --   -0.52785  -0.52589  -0.52474  -0.52359  -0.51663
 Alpha  occ. eigenvalues --   -0.51445  -0.51287  -0.51102  -0.50930  -0.50653
 Alpha  occ. eigenvalues --   -0.50250  -0.50144  -0.50106  -0.49896  -0.49646
 Alpha  occ. eigenvalues --   -0.49446  -0.48975  -0.48734  -0.48507  -0.48354
 Alpha  occ. eigenvalues --   -0.48177  -0.47986  -0.47800  -0.47714  -0.47670
 Alpha  occ. eigenvalues --   -0.47150  -0.47067  -0.46814  -0.46486  -0.46419
 Alpha  occ. eigenvalues --   -0.46192  -0.45865  -0.45698  -0.45643  -0.45117
 Alpha  occ. eigenvalues --   -0.44915  -0.44826  -0.44624  -0.44465  -0.44169
 Alpha  occ. eigenvalues --   -0.43959  -0.43788  -0.43459  -0.43237  -0.42903
 Alpha  occ. eigenvalues --   -0.42852  -0.42792  -0.42526  -0.42463  -0.42191
 Alpha  occ. eigenvalues --   -0.41992  -0.41897  -0.41696  -0.41500  -0.41268
 Alpha  occ. eigenvalues --   -0.41002  -0.40701  -0.40675  -0.40615  -0.40373
 Alpha  occ. eigenvalues --   -0.40267  -0.39846  -0.39655  -0.39485  -0.39361
 Alpha  occ. eigenvalues --   -0.39009  -0.38805  -0.38343  -0.38252  -0.37384
 Alpha  occ. eigenvalues --   -0.37378  -0.37211  -0.36960  -0.36802  -0.36406
 Alpha  occ. eigenvalues --   -0.36203  -0.36163  -0.35992  -0.35381  -0.35334
 Alpha  occ. eigenvalues --   -0.35033  -0.34978  -0.34520  -0.33165  -0.32760
 Alpha  occ. eigenvalues --   -0.32699  -0.32485  -0.32261  -0.30655  -0.30279
 Alpha  occ. eigenvalues --   -0.29618  -0.29323  -0.28756  -0.27709  -0.22942
 Alpha  occ. eigenvalues --   -0.20517
 Alpha virt. eigenvalues --   -0.05874  -0.02241   0.02284   0.04163   0.05939
 Alpha virt. eigenvalues --    0.06114   0.06380   0.06620   0.07144   0.07643
 Alpha virt. eigenvalues --    0.08676   0.10990   0.11761   0.12146   0.12209

 Mulliken charges:
               1
     1  Mg   0.850459
     2  C    0.039284
     3  C   -0.237980
     4  C   -0.183752
     5  C   -0.171275
     6  N   -0.597183
     7  C    0.259418
     8  C   -0.139933
     9  C   -0.144215
    10  C    0.322228
    11  C   -0.331502
    12  C   -0.130820
    13  C   -0.267238
    14  C    0.585210
    15  O   -0.500740
    16  O   -0.470764
    17  N   -0.800915
    18  C    0.358229
    19  C   -0.035694
    20  C    0.050018
    21  C    0.316272
    22  C   -0.337228
    23  C   -0.120286
    24  C   -0.246589
    25  N   -0.703916
    26  C    0.313389
    27  C    0.074561
    28  C   -0.024700
    29  C    0.324454
    30  C   -0.377683
    31  C   -0.259611
    32  C   -0.304241
    33  N   -0.676586
    34  C    0.261785
    35  C   -0.077481
    36  C    0.014357
    37  C    0.260839
    38  C   -0.343865
    39  C    0.374251
    40  O   -0.388131
    41  C   -0.342419
    42  C    0.628008
    43  O   -0.500632
    44  O   -0.461928
    45  C   -0.083076
    46  C    0.001265
    47  C   -0.148285
    48  C    0.147364
    49  C   -0.360236
    50  C   -0.232635
    51  C   -0.179568
    52  C   -0.172988
    53  C   -0.053678
    54  C   -0.321103
    55  C   -0.170457
    56  C   -0.163796
    57  C   -0.156059
    58  C   -0.069451
    59  C   -0.296494
    60  C   -0.155801
    61  C   -0.195125
    62  C   -0.159118
    63  C   -0.069600
    64  C   -0.291322
    65  C   -0.307729
    66  H    0.083171
    67  H    0.060625
    68  H    0.090385
    69  H    0.143741
    70  H    0.103160
    71  H    0.095684
    72  H    0.118246
    73  H    0.137057
    74  H    0.129933
    75  H    0.133712
    76  H    0.140865
    77  H    0.125707
    78  H    0.123944
    79  H    0.142993
    80  H    0.129541
    81  H    0.107843
    82  H    0.103525
    83  H    0.097097
    84  H    0.128225
    85  H    0.115768
    86  H    0.128615
    87  H    0.115488
    88  H    0.099598
    89  H    0.104332
    90  H    0.104497
    91  H    0.107680
    92  H    0.116963
    93  H    0.142736
    94  H    0.122643
    95  H    0.152745
    96  H    0.115970
    97  H    0.149547
    98  H    0.130246
    99  H    0.142299
   100  H    0.117851
   101  H    0.099119
   102  H    0.108804
   103  H    0.122240
   104  H    0.110099
   105  H    0.106876
   106  H    0.095178
   107  H    0.102258
   108  H    0.095131
   109  H    0.083412
   110  H    0.090590
   111  H    0.057377
   112  H    0.119803
   113  H    0.097228
   114  H    0.079981
   115  H    0.091068
   116  H    0.090669
   117  H    0.109396
   118  H    0.081849
   119  H    0.066589
   120  H    0.060779
   121  H    0.058247
   122  H    0.088491
   123  H    0.103099
   124  H    0.085640
   125  H    0.097275
   126  H    0.090182
   127  H    0.096589
   128  H    0.082005
   129  H    0.083737
   130  H    0.085423
   131  H    0.095680
   132  H    0.107537
   133  H    0.107096
   134  H    0.064884
   135  H    0.096060
   136  H    0.103436
   137  H    0.106173
 Sum of Mulliken charges =   0.00000

 Dipole moment (field-independent basis, Debye):
    X=              2.6483    Y=              5.5680    Z=              0.3742  Tot=              6.1771
 Quadrupole moment (field-independent basis, Debye-Ang):
   XX=           -341.0004   YY=           -392.3751   ZZ=           -395.7543
   XY=            -37.0352   XZ=             15.4238   YZ=             -0.5673

 Normal termination of Gaussian 09 at Wed Jul  3 14:07:32 2019.
