 Gaussian 16, Revision A.03,
 Gaussian 16:  ES64L-G16RevA.03 25-Dec-2016

 ----------------------------------------------------------------------
 # td=(NStates=1) iop(3/107=0140000000,3/108=0140000000) CAM-B3LYP/6-31
 G(d,p)
 ----------------------------------------------------------------------

 --
 TD
 --
 Symbolic Z-matrix:
 Charge =  0 Multiplicity = 1

                         Standard orientation:
 ---------------------------------------------------------------------
 Center     Atomic      Atomic             Coordinates (Angstroms)
 Number     Number       Type             X           Y           Z
 ---------------------------------------------------------------------
      1         12           0       -7.037098    0.549288    0.156162
      2          6           0       -4.853004   -2.063119    0.501570
      3          6           0       -4.789943    2.734395    1.185171
      4          6           0       -9.284878    3.143228   -0.408506
      5          6           0       -9.548730   -1.726279   -0.948789
      6          7           0       -5.022009    0.359729    0.661161
      7          6           0       -4.243806   -0.818145    0.785354
      8          6           0       -2.890647   -0.476394    1.325730
      9          6           0       -3.017151    1.074649    1.788216
     10          6           0       -4.400775    1.449306    1.290626
     11          6           0       -2.921527    1.215107    3.223941
     12          6           0       -1.919049   -0.680448    0.093515
     13          6           0       -0.456436   -0.418552    0.539759
     14          6           0        0.484458   -0.628694   -0.590140
     15          8           0        0.199956   -1.164558   -1.668774
     16          8           0        1.760158   -0.318544   -0.326585
     17          7           0       -7.106183    2.568576    0.290620
     18          6           0       -6.044134    3.299018    0.769728
     19          6           0       -6.240052    4.726693    0.800269
     20          6           0       -7.566060    4.890952    0.297519
     21          6           0       -8.103658    3.506170    0.077067
     22          6           0       -5.384053    5.824472    1.206675
     23          6           0       -8.437909    6.058504    0.234626
     24          6           0       -8.231152    7.296558    0.643308
     25          7           0       -9.056281    0.724938   -0.442695
     26          6           0       -9.795227    1.904474   -0.551773
     27          6           0      -11.125412    1.575883   -1.062131
     28          6           0      -11.204141    0.259159   -1.215418
     29          6           0       -9.891730   -0.298447   -0.875498
     30          6           0      -12.306712    2.624591   -1.319388
     31          6           0      -12.445130   -0.615046   -1.665781
     32          6           0      -12.322113   -0.913810   -3.202550
     33          7           0       -7.200318   -1.387087   -0.142923
     34          6           0       -8.251606   -2.231276   -0.629974
     35          6           0       -7.922601   -3.621407   -0.502789
     36          6           0       -6.580896   -3.618405   -0.198341
     37          6           0       -6.241434   -2.193203   -0.029470
     38          6           0       -8.747069   -4.722972   -0.853195
     39          6           0       -5.431364   -4.438520    0.189436
     40          8           0       -5.334429   -5.640481    0.213518
     41          6           0       -4.274609   -3.371708    0.575295
     42          6           0       -3.637844   -3.698851    1.940000
     43          8           0       -3.760655   -3.026160    2.932561
     44          8           0       -2.876630   -4.827555    1.870238
     45          6           0       -2.282337   -5.275812    3.031069
     46          6           0        2.752017   -0.522062   -1.422594
     47          6           0        4.132976   -0.429089   -0.761912
     48          6           0        5.168161    0.396883   -1.121861
     49          6           0        5.022340    1.313435   -2.199034
     50          6           0        6.441892    0.331800   -0.352184
     51          6           0        7.552602   -0.326122   -1.059806
     52          6           0        8.907128   -0.284210   -0.286672
     53          6           0       10.225412   -0.663154   -1.018398
     54          6           0       10.102732   -2.121857   -1.404941
     55          6           0       11.410313   -0.262237   -0.147799
     56          6           0       12.797552   -0.484351   -0.801265
     57          6           0       13.914184   -0.130197    0.125272
     58          6           0       15.322127   -0.174299   -0.554475
     59          6           0       15.694653   -1.555797   -0.904718
     60          6           0       16.381744    0.445677    0.473931
     61          6           0       17.873431    0.492728    0.009017
     62          6           0       18.775026    1.310952    0.849343
     63          6           0       20.233019    1.324571    0.344713
     64          6           0       20.503297    2.047564   -0.999035
     65          6           0       20.981085    2.074188    1.481138
     66          1           0       -4.076039    3.482941    1.475502
     67          1           0       -9.988368    4.066135   -0.324939
     68          1           0      -10.293349   -2.422781   -1.052684
     69          1           0       -2.732593   -1.120607    2.052632
     70          1           0       -2.337761    1.596712    1.333516
     71          1           0       -1.836268    1.058644    3.448254
     72          1           0       -3.227016    2.303796    3.546824
     73          1           0       -3.567997    0.447606    3.841217
     74          1           0       -1.863252   -1.629285   -0.227990
     75          1           0       -2.063714   -0.089553   -0.768715
     76          1           0       -0.178072    0.587079    0.853417
     77          1           0       -0.140177   -1.145789    1.297404
     78          1           0       -5.726406    6.667474    0.563304
     79          1           0       -5.479105    5.947829    2.205791
     80          1           0       -4.182950    5.533853    1.255203
     81          1           0       -9.224320    5.993732   -0.518767
     82          1           0       -8.972361    7.935407    0.168641
     83          1           0       -7.598618    7.625563    1.531354
     84          1           0      -12.139541    3.209496   -2.341008
     85          1           0      -13.009631    1.947936   -1.795052
     86          1           0      -12.416266    3.425212   -0.432986
     87          1           0      -12.572237   -1.689441   -1.228027
     88          1           0      -13.211710    0.005820   -1.415302
     89          1           0      -13.204484   -1.332036   -3.516019
     90          1           0      -12.244645   -0.055428   -3.640341
     91          1           0      -11.469378   -1.565803   -3.517631
     92          1           0       -9.496229   -4.657146   -1.769798
     93          1           0       -8.227952   -5.729123   -0.800472
     94          1           0       -9.447793   -4.857694    0.005665
     95          1           0       -3.525199   -3.737797   -0.332682
     96          1           0       -1.644818   -4.597616    3.394030
     97          1           0       -2.958439   -5.361291    3.813048
     98          1           0       -1.794880   -6.376090    2.907942
     99          1           0        2.546448   -1.511859   -1.802875
    100          1           0        2.708540    0.006778   -2.309508
    101          1           0        4.416671   -1.196233    0.048705
    102          1           0        3.994906    1.205323   -2.542236
    103          1           0        5.133777    2.333998   -1.931767
    104          1           0        5.706417    0.906989   -3.058315
    105          1           0        6.712796    1.387724   -0.193517
    106          1           0        6.381265   -0.048636    0.738920
    107          1           0        7.348693   -1.277571   -1.356057
    108          1           0        7.559312    0.334714   -1.935198
    109          1           0        8.780651    0.744094    0.383542
    110          1           0        8.757511   -1.172524    0.544457
    111          1           0       10.322043   -0.117018   -1.941504
    112          1           0        9.202495   -2.127510   -2.303857
    113          1           0       10.928980   -2.201558   -1.906683
    114          1           0        9.859476   -2.791499   -0.555595
    115          1           0       11.200690    0.756273    0.266263
    116          1           0       11.446457   -0.968951    0.740655
    117          1           0       12.922332   -1.521230   -1.288836
    118          1           0       12.725513    0.310243   -1.545029
    119          1           0       13.659883    0.917860    0.527139
    120          1           0       13.942884   -0.603607    0.979465
    121          1           0       15.406437    0.577336   -1.307121
    122          1           0       15.999205   -1.949063    0.095611
    123          1           0       14.970357   -2.008372   -1.598270
    124          1           0       16.564725   -1.797596   -1.678888
    125          1           0       16.066516    1.449553    0.726652
    126          1           0       16.422595   -0.230518    1.382545
    127          1           0       18.368709   -0.443664    0.152759
    128          1           0       17.991655    0.850475   -1.113846
    129          1           0       18.382225    2.318918    0.944001
    130          1           0       18.502093    0.982513    1.867412
    131          1           0       20.443807    0.234809    0.314401
    132          1           0       20.552318    3.164454   -0.739439
    133          1           0       21.568517    1.728213   -1.391932
    134          1           0       19.575821    1.610972   -1.465024
    135          1           0       20.822822    1.481441    2.423272
    136          1           0       22.056840    1.959692    1.473679
    137          1           0       20.832934    3.262139    1.576826
 ---------------------------------------------------------------------

 SCF Done:  E(RCAM-B3LYP) =  -2933.50091020     A.U. after   15 cycles

 Excitation energies and oscillator strengths:

 Excited State   1:      Singlet-A      1.9927 eV  622.19 nm  f=0.2398  <S**2>=0.000
     240 -> 243       -0.22906
     241 -> 242        0.66371
 This state for optimization and/or second-order correction.
 Total Energy, E(TD-HF/TD-DFT) =  -2933.42767996
 Copying the excited state density for this state as the 1-particle RhoCI density.

 The electronic state is 1-A.
 Alpha  occ. eigenvalues --  -46.79400 -19.21758 -19.21635 -19.17135 -19.16155
 Alpha  occ. eigenvalues --  -19.15364 -14.36740 -14.35757 -14.35080 -14.35053
 Alpha  occ. eigenvalues --  -10.34867 -10.33610 -10.30534 -10.27013 -10.26344
 Alpha  occ. eigenvalues --  -10.25667 -10.25339 -10.25333 -10.25112 -10.24951
 Alpha  occ. eigenvalues --  -10.24789 -10.24637 -10.23931 -10.23813 -10.23786
 Alpha  occ. eigenvalues --  -10.23731 -10.23361 -10.23142 -10.22959 -10.22891
 Alpha  occ. eigenvalues --  -10.22800 -10.22659 -10.22533 -10.22533 -10.22444
 Alpha  occ. eigenvalues --  -10.22437 -10.22314 -10.22295 -10.22224 -10.21990
 Alpha  occ. eigenvalues --  -10.21972 -10.21913 -10.21790 -10.21735 -10.21665
 Alpha  occ. eigenvalues --  -10.21664 -10.21611 -10.21394 -10.21388 -10.21351
 Alpha  occ. eigenvalues --  -10.21333 -10.21289 -10.21229 -10.21207 -10.21203
 Alpha  occ. eigenvalues --  -10.21134 -10.20950 -10.20886 -10.20757 -10.20662
 Alpha  occ. eigenvalues --  -10.20643 -10.20023 -10.20004 -10.19603 -10.18959
 Alpha  occ. eigenvalues --   -3.08109  -1.83043  -1.82598  -1.82511  -1.13590
 Alpha  occ. eigenvalues --   -1.11993  -1.06484  -1.05390  -1.01982  -1.00553
 Alpha  occ. eigenvalues --   -0.97734  -0.96326  -0.95822  -0.87098  -0.86692
 Alpha  occ. eigenvalues --   -0.85846  -0.84938  -0.84845  -0.84726  -0.84348
 Alpha  occ. eigenvalues --   -0.83732  -0.83558  -0.82803  -0.82362  -0.81189
 Alpha  occ. eigenvalues --   -0.80538  -0.79803  -0.78841  -0.78629  -0.77781
 Alpha  occ. eigenvalues --   -0.77136  -0.76604  -0.76432  -0.75538  -0.73962
 Alpha  occ. eigenvalues --   -0.73352  -0.71902  -0.71311  -0.70989  -0.70801
 Alpha  occ. eigenvalues --   -0.70122  -0.70061  -0.69772  -0.68581  -0.67978
 Alpha  occ. eigenvalues --   -0.66829  -0.66478  -0.65697  -0.64376  -0.63888
 Alpha  occ. eigenvalues --   -0.62666  -0.61954  -0.61537  -0.61043  -0.60381
 Alpha  occ. eigenvalues --   -0.60217  -0.59267  -0.59016  -0.58489  -0.58090
 Alpha  occ. eigenvalues --   -0.57925  -0.55932  -0.55813  -0.55339  -0.55007
 Alpha  occ. eigenvalues --   -0.54640  -0.54145  -0.53488  -0.52790  -0.52542
 Alpha  occ. eigenvalues --   -0.52148  -0.51644  -0.51547  -0.51446  -0.51272
 Alpha  occ. eigenvalues --   -0.51102  -0.50788  -0.50117  -0.49931  -0.49520
 Alpha  occ. eigenvalues --   -0.49069  -0.49016  -0.48667  -0.48074  -0.47755
 Alpha  occ. eigenvalues --   -0.47568  -0.47487  -0.47409  -0.47318  -0.47228
 Alpha  occ. eigenvalues --   -0.46640  -0.46482  -0.46262  -0.46001  -0.45858
 Alpha  occ. eigenvalues --   -0.45613  -0.45399  -0.45312  -0.45206  -0.44907
 Alpha  occ. eigenvalues --   -0.44836  -0.44515  -0.44226  -0.43832  -0.43759
 Alpha  occ. eigenvalues --   -0.43558  -0.43316  -0.43195  -0.42720  -0.42578
 Alpha  occ. eigenvalues --   -0.42473  -0.42295  -0.41980  -0.41904  -0.41777
 Alpha  occ. eigenvalues --   -0.41240  -0.41140  -0.40976  -0.40866  -0.40830
 Alpha  occ. eigenvalues --   -0.40636  -0.40504  -0.40100  -0.39968  -0.39808
 Alpha  occ. eigenvalues --   -0.39585  -0.39439  -0.39226  -0.39048  -0.38768
 Alpha  occ. eigenvalues --   -0.38737  -0.38473  -0.38352  -0.38312  -0.37795
 Alpha  occ. eigenvalues --   -0.37567  -0.37454  -0.37334  -0.37224  -0.36966
 Alpha  occ. eigenvalues --   -0.36567  -0.36516  -0.36412  -0.36272  -0.36140
 Alpha  occ. eigenvalues --   -0.35792  -0.35243  -0.34666  -0.34475  -0.34465
 Alpha  occ. eigenvalues --   -0.34201  -0.34050  -0.34020  -0.33535  -0.33513
 Alpha  occ. eigenvalues --   -0.33423  -0.33169  -0.33126  -0.32848  -0.32584
 Alpha  occ. eigenvalues --   -0.32215  -0.32137  -0.31729  -0.30788  -0.30360
 Alpha  occ. eigenvalues --   -0.30190  -0.29385  -0.29261  -0.28271  -0.27471
 Alpha  occ. eigenvalues --   -0.26492  -0.26322  -0.25893  -0.24775  -0.21247
 Alpha  occ. eigenvalues --   -0.19782
 Alpha virt. eigenvalues --   -0.07002  -0.03563   0.00517   0.02166   0.03447
 Alpha virt. eigenvalues --    0.03659   0.04563   0.04883   0.05534   0.05916
 Alpha virt. eigenvalues --    0.06635   0.08542   0.09559   0.10017   0.10085

 Mulliken charges:
               1
     1  Mg   0.804905
     2  C    0.082409
     3  C   -0.174484
     4  C   -0.167714
     5  C   -0.153622
     6  N   -0.633679
     7  C    0.289535
     8  C   -0.140861
     9  C   -0.105516
    10  C    0.314106
    11  C   -0.299594
    12  C   -0.172237
    13  C   -0.274422
    14  C    0.591558
    15  O   -0.499428
    16  O   -0.470392
    17  N   -0.689153
    18  C    0.316717
    19  C    0.042176
    20  C    0.014173
    21  C    0.283997
    22  C   -0.381597
    23  C   -0.083210
    24  C   -0.255373
    25  N   -0.666278
    26  C    0.280765
    27  C    0.009191
    28  C    0.027920
    29  C    0.260600
    30  C   -0.361067
    31  C   -0.237279
    32  C   -0.310486
    33  N   -0.689036
    34  C    0.208969
    35  C    0.089677
    36  C    0.006235
    37  C    0.323493
    38  C   -0.415018
    39  C    0.349851
    40  O   -0.448592
    41  C   -0.354225
    42  C    0.625883
    43  O   -0.467708
    44  O   -0.431807
    45  C   -0.081141
    46  C    0.002082
    47  C   -0.130848
    48  C    0.132792
    49  C   -0.362609
    50  C   -0.238165
    51  C   -0.150188
    52  C   -0.155869
    53  C   -0.065480
    54  C   -0.278435
    55  C   -0.174582
    56  C   -0.182242
    57  C   -0.156302
    58  C   -0.058196
    59  C   -0.291973
    60  C   -0.201011
    61  C   -0.175005
    62  C   -0.168269
    63  C   -0.061153
    64  C   -0.286350
    65  C   -0.309531
    66  H    0.059370
    67  H    0.072278
    68  H    0.083533
    69  H    0.115340
    70  H    0.105857
    71  H    0.100362
    72  H    0.091809
    73  H    0.119260
    74  H    0.135894
    75  H    0.128511
    76  H    0.128632
    77  H    0.142666
    78  H    0.133696
    79  H    0.147674
    80  H    0.084860
    81  H    0.093020
    82  H    0.097624
    83  H    0.109745
    84  H    0.101196
    85  H    0.116272
    86  H    0.122616
    87  H    0.094608
    88  H    0.111753
    89  H    0.107216
    90  H    0.120072
    91  H    0.106473
    92  H    0.120294
    93  H    0.146654
    94  H    0.131269
    95  H    0.144185
    96  H    0.122070
    97  H    0.126891
    98  H    0.106998
    99  H    0.135288
   100  H    0.128855
   101  H    0.077788
   102  H    0.105093
   103  H    0.124889
   104  H    0.113048
   105  H    0.093253
   106  H    0.087234
   107  H    0.108385
   108  H    0.084045
   109  H    0.055645
   110  H    0.058322
   111  H    0.086784
   112  H    0.067191
   113  H    0.113205
   114  H    0.109100
   115  H    0.094990
   116  H    0.076908
   117  H    0.091764
   118  H    0.096835
   119  H    0.072975
   120  H    0.098872
   121  H    0.088518
   122  H    0.102865
   123  H    0.103154
   124  H    0.084151
   125  H    0.093719
   126  H    0.076736
   127  H    0.096020
   128  H    0.070138
   129  H    0.080717
   130  H    0.088427
   131  H    0.084590
   132  H    0.101503
   133  H    0.100708
   134  H    0.098861
   135  H    0.091811
   136  H    0.093261
   137  H    0.088749
 Sum of Mulliken charges =  -0.00000

 Dipole moment (field-independent basis, Debye):
    X=              1.5789    Y=              3.6842    Z=              0.5406  Tot=              4.0445
 Quadrupole moment (field-independent basis, Debye-Ang):
   XX=           -343.3870   YY=           -392.4114   ZZ=           -396.1130
   XY=            -18.1765   XZ=              8.4576   YZ=             -1.0834

 Normal termination of Gaussian 16 at Tue Sep 24 03:59:12 2019.
