 Gaussian 09, Revision D.01,
 Gaussian 09:  ES64L-G09RevD.01 24-Apr-2013

 -------------------------------------
 # td=(NStates=1) CAM-B3LYP/6-31G(d,p)
 -------------------------------------

 --
 TD
 --
 Symbolic Z-matrix:
 Charge =  0 Multiplicity = 1

                         Standard orientation:
 ---------------------------------------------------------------------
 Center     Atomic      Atomic             Coordinates (Angstroms)
 Number     Number       Type             X           Y           Z
 ---------------------------------------------------------------------
      1         12           0       -7.208665    0.573832    0.114293
      2          6           0       -4.788680   -1.902594    0.424737
      3          6           0       -4.804207    2.902744    1.181474
      4          6           0       -9.370089    3.114900   -0.449892
      5          6           0       -9.557166   -1.755039   -0.914404
      6          7           0       -5.069621    0.454843    0.717197
      7          6           0       -4.294847   -0.626934    0.717230
      8          6           0       -2.923433   -0.454652    1.213205
      9          6           0       -2.962812    1.104063    1.586094
     10          6           0       -4.369758    1.523559    1.095713
     11          6           0       -2.730226    1.336595    3.119142
     12          6           0       -1.879983   -0.601055    0.131940
     13          6           0       -0.423144   -0.330197    0.448230
     14          6           0        0.570512   -0.625664   -0.621956
     15          8           0        0.298197   -0.921967   -1.784348
     16          8           0        1.809040   -0.340762   -0.143570
     17          7           0       -7.172186    2.612263    0.296716
     18          6           0       -6.123005    3.283728    0.730017
     19          6           0       -6.423754    4.735426    0.800146
     20          6           0       -7.746005    4.777253    0.393152
     21          6           0       -8.159678    3.479226    0.039348
     22          6           0       -5.447059    5.733020    1.236402
     23          6           0       -8.582186    6.065202    0.228593
     24          6           0       -8.405943    7.213014    0.897169
     25          7           0       -9.160748    0.634533   -0.514597
     26          6           0       -9.868697    1.757621   -0.634664
     27          6           0      -11.163397    1.500413   -1.095688
     28          6           0      -11.319131    0.089431   -1.221769
     29          6           0       -9.992181   -0.393888   -0.915128
     30          6           0      -12.253993    2.399357   -1.496249
     31          6           0      -12.436346   -0.693635   -1.754205
     32          6           0      -12.459395   -1.058200   -3.227137
     33          7           0       -7.215103   -1.369064   -0.136030
     34          6           0       -8.302719   -2.218817   -0.496076
     35          6           0       -7.858566   -3.598874   -0.446999
     36          6           0       -6.592090   -3.522242    0.020036
     37          6           0       -6.186683   -2.164639    0.071979
     38          6           0       -8.593849   -4.822859   -0.781131
     39          6           0       -5.349670   -4.360484    0.211826
     40          8           0       -5.265838   -5.570605    0.273202
     41          6           0       -4.141822   -3.278262    0.480212
     42          6           0       -3.582422   -3.681541    1.897501
     43          8           0       -3.822375   -3.099043    2.978162
     44          8           0       -2.783415   -4.637902    1.770256
     45          6           0       -2.312308   -5.319679    2.966077
     46          6           0        2.857652   -0.745277   -1.149151
     47          6           0        4.177787   -0.421569   -0.491926
     48          6           0        5.093354    0.443113   -0.934840
     49          6           0        4.963861    1.107503   -2.232682
     50          6           0        6.509117    0.468212   -0.250958
     51          6           0        7.724678   -0.093553   -1.078525
     52          6           0        8.971262   -0.067989   -0.180337
     53          6           0       10.241593   -0.520587   -0.881870
     54          6           0       10.055966   -2.001693   -1.401053
     55          6           0       11.417404   -0.327243    0.094990
     56          6           0       12.728040   -0.558619   -0.576885
     57          6           0       13.917426   -0.205778    0.259900
     58          6           0       15.342596   -0.353703   -0.368824
     59          6           0       15.788475   -1.750517   -0.749428
     60          6           0       16.405157    0.358542    0.397125
     61          6           0       17.852945    0.614314   -0.237525
     62          6           0       18.762289    1.398052    0.679155
     63          6           0       20.224665    1.368811    0.215715
     64          6           0       20.403471    1.951056   -1.254532
     65          6           0       21.133600    2.061879    1.334936
     66          1           0       -4.034805    3.550815    1.325488
     67          1           0       -9.992756    4.080097   -0.689098
     68          1           0      -10.045013   -2.594900   -1.195976
     69          1           0       -2.712003   -1.088048    1.929619
     70          1           0       -2.075232    1.537422    0.995163
     71          1           0       -1.940974    0.693771    3.579965
     72          1           0       -2.634294    2.417404    3.221321
     73          1           0       -3.679794    0.812716    3.516556
     74          1           0       -2.220573   -1.687020   -0.283429
     75          1           0       -2.106427    0.016314   -0.654799
     76          1           0       -0.118484    0.442861    0.847344
     77          1           0       -0.238794   -1.076718    1.320262
     78          1           0       -5.822159    6.607499    0.810466
     79          1           0       -5.261820    5.559159    2.330614
     80          1           0       -4.414574    5.532447    0.761250
     81          1           0       -9.328784    5.899619   -0.753707
     82          1           0       -8.893412    8.169501    0.680153
     83          1           0       -7.741356    7.392707    1.678241
     84          1           0      -11.925914    3.143799   -2.226420
     85          1           0      -13.112373    1.989294   -1.868455
     86          1           0      -12.463764    3.078780   -0.584992
     87          1           0      -12.403082   -1.657255   -1.272703
     88          1           0      -13.397085   -0.331821   -1.361247
     89          1           0      -13.385340   -1.518773   -3.558286
     90          1           0      -12.262236   -0.168788   -3.777890
     91          1           0      -11.701122   -1.848970   -3.498447
     92          1           0       -8.834843   -4.837452   -1.908776
     93          1           0       -7.768485   -5.574161   -0.569719
     94          1           0       -9.642493   -5.113891   -0.200796
     95          1           0       -3.293279   -3.700928   -0.202586
     96          1           0       -1.852727   -4.554945    3.509664
     97          1           0       -3.062863   -5.861411    3.546678
     98          1           0       -1.743593   -6.230644    2.534112
     99          1           0        2.783291   -1.821360   -1.465765
    100          1           0        3.002612   -0.067388   -2.288496
    101          1           0        4.466964   -0.928713    0.523813
    102          1           0        4.173334    1.176173   -2.750869
    103          1           0        5.469620    2.155512   -1.979779
    104          1           0        5.795320    0.796923   -2.993449
    105          1           0        6.505549    1.386389    0.022672
    106          1           0        6.308255   -0.125034    0.645682
    107          1           0        7.401345   -1.071416   -1.256168
    108          1           0        7.692163    0.616532   -2.078200
    109          1           0        8.713096    1.030849    0.190744
    110          1           0        8.793575   -0.580529    0.601318
    111          1           0       10.504371    0.251067   -1.887198
    112          1           0        9.201610   -2.029762   -2.063703
    113          1           0       10.817080   -2.401221   -2.044480
    114          1           0        9.865525   -2.754424   -0.701235
    115          1           0       11.589482    0.632836    0.741346
    116          1           0       11.384761   -1.046814    0.830705
    117          1           0       13.002273   -1.603052   -1.051212
    118          1           0       12.821404    0.292762   -1.345468
    119          1           0       13.759028    0.950099    0.547566
    120          1           0       13.642491   -0.761716    1.266621
    121          1           0       15.274753    0.374333   -1.157361
    122          1           0       15.645298   -2.443758    0.030630
    123          1           0       15.077311   -2.386897   -1.423563
    124          1           0       16.803651   -2.026809   -1.192989
    125          1           0       16.294935    1.469459    0.663047
    126          1           0       16.672541   -0.183738    1.410287
    127          1           0       18.294357   -0.355508   -0.323499
    128          1           0       17.732418    1.118733   -1.193295
    129          1           0       18.446210    2.302726    0.729572
    130          1           0       18.947020    1.067248    1.655037
    131          1           0       20.425005    0.047969    0.423501
    132          1           0       19.873084    3.007081   -1.153313
    133          1           0       21.507713    2.281390   -1.412063
    134          1           0       19.881008    1.402854   -2.139791
    135          1           0       20.958904    1.521648    2.260526
    136          1           0       22.223817    1.823538    1.037900
    137          1           0       20.882348    3.164278    1.507933
 ---------------------------------------------------------------------

 SCF Done:  E(RCAM-B3LYP) =  -2932.58255104     A.U. after   17 cycles

 Excitation energies and oscillator strengths:

 Excited State   1:      Singlet-A      2.2001 eV  563.53 nm  f=0.1542  <S**2>=0.000
     240 -> 243        0.30186
     241 -> 242        0.63068
 This state for optimization and/or second-order correction.
 Total Energy, E(TD-HF/TD-KS) =  -2932.50169741
 Copying the excited state density for this state as the 1-particle RhoCI density.

 The electronic state is 1-A.
 Alpha  occ. eigenvalues --  -46.84375 -19.27610 -19.27166 -19.21314 -19.20755
 Alpha  occ. eigenvalues --  -19.19305 -14.41520 -14.39324 -14.39208 -14.38830
 Alpha  occ. eigenvalues --  -10.39095 -10.38802 -10.36013 -10.34326 -10.32461
 Alpha  occ. eigenvalues --  -10.31389 -10.30288 -10.30069 -10.29557 -10.29534
 Alpha  occ. eigenvalues --  -10.28973 -10.28955 -10.28813 -10.28526 -10.28401
 Alpha  occ. eigenvalues --  -10.28299 -10.28206 -10.27943 -10.27830 -10.27792
 Alpha  occ. eigenvalues --  -10.27690 -10.27386 -10.27374 -10.27240 -10.26942
 Alpha  occ. eigenvalues --  -10.26822 -10.26718 -10.26637 -10.26541 -10.26439
 Alpha  occ. eigenvalues --  -10.26410 -10.26378 -10.26271 -10.26240 -10.26158
 Alpha  occ. eigenvalues --  -10.26118 -10.26029 -10.25947 -10.25670 -10.25505
 Alpha  occ. eigenvalues --  -10.25427 -10.25352 -10.25302 -10.25252 -10.25227
 Alpha  occ. eigenvalues --  -10.25086 -10.25011 -10.24917 -10.24897 -10.24861
 Alpha  occ. eigenvalues --  -10.24771 -10.24738 -10.24656 -10.24397 -10.22495
 Alpha  occ. eigenvalues --   -3.13450  -1.88154  -1.87675  -1.87642  -1.21283
 Alpha  occ. eigenvalues --   -1.17147  -1.11627  -1.08167  -1.06883  -1.05772
 Alpha  occ. eigenvalues --   -1.05100  -1.03818  -1.02782  -0.91722  -0.91400
 Alpha  occ. eigenvalues --   -0.90782  -0.90417  -0.89706  -0.88932  -0.88607
 Alpha  occ. eigenvalues --   -0.88274  -0.88171  -0.87941  -0.86899  -0.86167
 Alpha  occ. eigenvalues --   -0.85459  -0.84748  -0.83917  -0.82986  -0.82698
 Alpha  occ. eigenvalues --   -0.82301  -0.80992  -0.80633  -0.80156  -0.78474
 Alpha  occ. eigenvalues --   -0.78078  -0.77395  -0.77116  -0.75991  -0.75877
 Alpha  occ. eigenvalues --   -0.75029  -0.74948  -0.74855  -0.73159  -0.72040
 Alpha  occ. eigenvalues --   -0.71193  -0.70550  -0.70096  -0.69486  -0.67600
 Alpha  occ. eigenvalues --   -0.67346  -0.66774  -0.65896  -0.65084  -0.64242
 Alpha  occ. eigenvalues --   -0.64201  -0.63116  -0.62881  -0.62854  -0.62110
 Alpha  occ. eigenvalues --   -0.60965  -0.60867  -0.59983  -0.59887  -0.59081
 Alpha  occ. eigenvalues --   -0.58748  -0.58111  -0.57549  -0.57431  -0.57014
 Alpha  occ. eigenvalues --   -0.56402  -0.55685  -0.55425  -0.55181  -0.54910
 Alpha  occ. eigenvalues --   -0.54700  -0.54432  -0.54131  -0.53869  -0.53300
 Alpha  occ. eigenvalues --   -0.53049  -0.52295  -0.52137  -0.51888  -0.51735
 Alpha  occ. eigenvalues --   -0.51705  -0.50966  -0.50922  -0.50669  -0.50416
 Alpha  occ. eigenvalues --   -0.50339  -0.50261  -0.49837  -0.49585  -0.49350
 Alpha  occ. eigenvalues --   -0.49189  -0.49041  -0.48900  -0.48492  -0.48409
 Alpha  occ. eigenvalues --   -0.48129  -0.47968  -0.47590  -0.47323  -0.47177
 Alpha  occ. eigenvalues --   -0.47016  -0.46883  -0.46613  -0.46476  -0.46006
 Alpha  occ. eigenvalues --   -0.45860  -0.45721  -0.45468  -0.45433  -0.45348
 Alpha  occ. eigenvalues --   -0.44853  -0.44693  -0.44374  -0.44255  -0.44185
 Alpha  occ. eigenvalues --   -0.44123  -0.43958  -0.43719  -0.43558  -0.43455
 Alpha  occ. eigenvalues --   -0.43419  -0.43096  -0.42954  -0.42791  -0.42617
 Alpha  occ. eigenvalues --   -0.42342  -0.42121  -0.41702  -0.41480  -0.41324
 Alpha  occ. eigenvalues --   -0.41196  -0.41094  -0.40651  -0.40602  -0.40451
 Alpha  occ. eigenvalues --   -0.39976  -0.39276  -0.39188  -0.38973  -0.38785
 Alpha  occ. eigenvalues --   -0.38485  -0.38302  -0.38156  -0.38149  -0.37762
 Alpha  occ. eigenvalues --   -0.37164  -0.37018  -0.36860  -0.36381  -0.36258
 Alpha  occ. eigenvalues --   -0.36058  -0.35954  -0.35681  -0.35414  -0.35224
 Alpha  occ. eigenvalues --   -0.34961  -0.34854  -0.34432  -0.33665  -0.33581
 Alpha  occ. eigenvalues --   -0.33115  -0.32621  -0.31960  -0.30667  -0.29963
 Alpha  occ. eigenvalues --   -0.29744  -0.29611  -0.28058  -0.26906  -0.22792
 Alpha  occ. eigenvalues --   -0.21416
 Alpha virt. eigenvalues --   -0.05506  -0.03125   0.01884   0.04394   0.05753
 Alpha virt. eigenvalues --    0.05979   0.06341   0.06595   0.06937   0.07850
 Alpha virt. eigenvalues --    0.08672   0.10854   0.10998   0.11174   0.11326

 Mulliken charges:
               1
     1  Mg   0.833192
     2  C    0.081927
     3  C   -0.186823
     4  C   -0.178530
     5  C   -0.119460
     6  N   -0.630986
     7  C    0.331478
     8  C   -0.127291
     9  C   -0.179971
    10  C    0.327814
    11  C   -0.295361
    12  C   -0.182288
    13  C   -0.241780
    14  C    0.621776
    15  O   -0.481154
    16  O   -0.478500
    17  N   -0.725073
    18  C    0.327631
    19  C    0.013293
    20  C   -0.021433
    21  C    0.346202
    22  C   -0.369221
    23  C   -0.055446
    24  C   -0.265735
    25  N   -0.691329
    26  C    0.317533
    27  C    0.010908
    28  C    0.035845
    29  C    0.252972
    30  C   -0.372540
    31  C   -0.255799
    32  C   -0.304009
    33  N   -0.746716
    34  C    0.221967
    35  C    0.061769
    36  C   -0.024800
    37  C    0.301364
    38  C   -0.392014
    39  C    0.382888
    40  O   -0.455281
    41  C   -0.361575
    42  C    0.605010
    43  O   -0.524436
    44  O   -0.391311
    45  C   -0.092477
    46  C    0.018309
    47  C   -0.133212
    48  C    0.108817
    49  C   -0.351382
    50  C   -0.235997
    51  C   -0.173474
    52  C   -0.142627
    53  C   -0.046882
    54  C   -0.340674
    55  C   -0.167227
    56  C   -0.155442
    57  C   -0.184661
    58  C   -0.019963
    59  C   -0.336493
    60  C   -0.179212
    61  C   -0.190430
    62  C   -0.145020
    63  C   -0.039999
    64  C   -0.308253
    65  C   -0.316540
    66  H    0.076021
    67  H    0.086651
    68  H    0.078926
    69  H    0.119778
    70  H    0.093595
    71  H    0.112535
    72  H    0.111240
    73  H    0.118354
    74  H    0.092333
    75  H    0.122908
    76  H    0.137119
    77  H    0.117835
    78  H    0.125259
    79  H    0.134116
    80  H    0.110809
    81  H    0.084543
    82  H    0.107462
    83  H    0.115607
    84  H    0.114709
    85  H    0.118776
    86  H    0.103416
    87  H    0.106014
    88  H    0.106043
    89  H    0.106438
    90  H    0.114888
    91  H    0.099791
    92  H    0.121107
    93  H    0.150905
    94  H    0.111956
    95  H    0.156710
    96  H    0.148393
    97  H    0.145742
    98  H    0.127170
    99  H    0.140884
   100  H    0.080126
   101  H    0.073024
   102  H    0.124291
   103  H    0.089228
   104  H    0.111313
   105  H    0.116395
   106  H    0.092601
   107  H    0.111684
   108  H    0.076756
   109  H    0.081943
   110  H    0.107512
   111  H    0.051314
   112  H    0.114942
   113  H    0.115094
   114  H    0.112773
   115  H    0.088174
   116  H    0.100786
   117  H    0.083753
   118  H    0.076923
   119  H    0.069156
   120  H    0.062494
   121  H    0.094921
   122  H    0.118843
   123  H    0.083005
   124  H    0.112449
   125  H    0.078568
   126  H    0.066508
   127  H    0.095496
   128  H    0.091449
   129  H    0.093508
   130  H    0.092604
   131  H    0.020903
   132  H    0.085416
   133  H    0.099047
   134  H    0.114214
   135  H    0.112086
   136  H    0.100584
   137  H    0.100214
 Sum of Mulliken charges =   0.00000

 Dipole moment (field-independent basis, Debye):
    X=              2.8923    Y=              2.3663    Z=              0.3037  Tot=              3.7493
 Quadrupole moment (field-independent basis, Debye-Ang):
   XX=           -365.6082   YY=           -378.3952   ZZ=           -399.8469
   XY=            -14.0437   XZ=             14.4392   YZ=             -2.6708

 Normal termination of Gaussian 09 at Fri Jul  5 03:39:50 2019.
