 Gaussian 16, Revision A.03,
 Gaussian 16:  ES64L-G16RevA.03 25-Dec-2016

 ----------------------------------------------------------------------
 # td=(NStates=1) iop(3/107=0140000000,3/108=0140000000) CAM-B3LYP/6-31
 G(d,p)
 ----------------------------------------------------------------------

 --
 TD
 --
 Symbolic Z-matrix:
 Charge =  0 Multiplicity = 1

                         Standard orientation:
 ---------------------------------------------------------------------
 Center     Atomic      Atomic             Coordinates (Angstroms)
 Number     Number       Type             X           Y           Z
 ---------------------------------------------------------------------
      1         12           0       -7.180127    0.632436    0.026240
      2          6           0       -4.819960   -2.042333    0.547421
      3          6           0       -4.825402    2.790432    1.092512
      4          6           0       -9.374787    3.273870   -0.360246
      5          6           0       -9.553127   -1.642846   -0.786910
      6          7           0       -5.107589    0.388153    0.564808
      7          6           0       -4.239781   -0.770825    0.701937
      8          6           0       -2.877455   -0.451258    1.125146
      9          6           0       -3.038566    0.995135    1.619397
     10          6           0       -4.398582    1.393351    1.101023
     11          6           0       -2.924833    1.044158    3.063228
     12          6           0       -1.857515   -0.551543   -0.093845
     13          6           0       -0.516066   -0.463311    0.376544
     14          6           0        0.501194   -0.797473   -0.784123
     15          8           0        0.285152   -1.149985   -1.914918
     16          8           0        1.702442   -0.658515   -0.211482
     17          7           0       -7.074859    2.643830    0.291206
     18          6           0       -6.029050    3.423605    0.821884
     19          6           0       -6.353464    4.810748    0.827998
     20          6           0       -7.639378    4.959725    0.421331
     21          6           0       -8.062206    3.564685    0.117257
     22          6           0       -5.285862    5.965229    1.103044
     23          6           0       -8.404604    6.193276    0.208795
     24          6           0       -8.312475    7.393519    0.799630
     25          7           0       -9.089191    0.827114   -0.514825
     26          6           0       -9.837470    1.956624   -0.642472
     27          6           0      -11.189541    1.642491   -0.996750
     28          6           0      -11.217111    0.214833   -1.185167
     29          6           0       -9.911705   -0.332444   -0.830196
     30          6           0      -12.372679    2.585100   -1.247964
     31          6           0      -12.353028   -0.671845   -1.648806
     32          6           0      -12.286560   -1.103077   -3.119806
     33          7           0       -7.191765   -1.420672   -0.168493
     34          6           0       -8.297570   -2.182497   -0.561918
     35          6           0       -7.918009   -3.576025   -0.588936
     36          6           0       -6.475531   -3.609532   -0.195598
     37          6           0       -6.197117   -2.163636    0.095201
     38          6           0       -8.778027   -4.752432   -0.980555
     39          6           0       -5.384414   -4.478063    0.081432
     40          8           0       -5.272719   -5.644279    0.120852
     41          6           0       -4.204123   -3.482724    0.627178
     42          6           0       -3.602386   -3.753954    1.937659
     43          8           0       -3.787819   -3.142888    2.962127
     44          8           0       -2.843214   -4.884876    1.843962
     45          6           0       -2.198754   -5.186024    3.145829
     46          6           0        2.795598   -0.839103   -1.150818
     47          6           0        4.130427   -0.670829   -0.562615
     48          6           0        5.123389    0.116576   -0.883712
     49          6           0        5.033783    0.985616   -2.152950
     50          6           0        6.346170    0.357200   -0.150498
     51          6           0        7.599559   -0.171773   -0.946561
     52          6           0        8.985143   -0.133269   -0.150113
     53          6           0       10.280669   -0.563183   -0.742691
     54          6           0       10.124735   -2.094490   -1.107563
     55          6           0       11.467225   -0.354157    0.030047
     56          6           0       12.779739   -0.441091   -0.665193
     57          6           0       14.000362   -0.182240    0.268705
     58          6           0       15.304907   -0.038694   -0.518510
     59          6           0       15.607765   -1.438839   -1.067924
     60          6           0       16.383735    0.485061    0.434283
     61          6           0       17.806580    0.683258   -0.247945
     62          6           0       18.828692    1.332313    0.827861
     63          6           0       20.231112    1.378837    0.232747
     64          6           0       20.361320    2.167368   -1.138227
     65          6           0       21.223954    2.053145    1.273075
     66          1           0       -4.029487    3.335407    1.532266
     67          1           0      -10.213709    3.845353   -0.757675
     68          1           0      -10.326722   -2.378306   -1.042483
     69          1           0       -2.567064   -1.301520    1.774036
     70          1           0       -2.215223    1.615983    1.190341
     71          1           0       -1.978917    0.652029    3.553508
     72          1           0       -3.163111    2.016097    3.661164
     73          1           0       -3.784872    0.325269    3.450709
     74          1           0       -2.041081   -1.513677   -0.620974
     75          1           0       -2.149294    0.341681   -0.781279
     76          1           0       -0.231623    0.509012    0.943169
     77          1           0       -0.328036   -1.213780    1.028883
     78          1           0       -5.672562    6.984517    0.692656
     79          1           0       -5.379059    6.179401    2.151237
     80          1           0       -4.220353    5.635168    0.800999
     81          1           0       -9.165048    6.162994   -0.460594
     82          1           0       -9.051840    8.312327    0.494474
     83          1           0       -7.558421    7.714790    1.611639
     84          1           0      -12.252651    3.141698   -2.292793
     85          1           0      -13.447509    2.102382   -1.370237
     86          1           0      -12.242094    3.434373   -0.592415
     87          1           0      -12.432765   -1.576134   -1.106390
     88          1           0      -13.260059    0.069151   -1.306609
     89          1           0      -13.124678   -1.610460   -3.541802
     90          1           0      -12.284843   -0.174108   -3.619404
     91          1           0      -11.372076   -1.632042   -3.240015
     92          1           0       -9.005572   -5.003761   -2.170701
     93          1           0       -8.145707   -5.610621   -0.797615
     94          1           0       -9.684466   -4.851375   -0.285778
     95          1           0       -3.309670   -3.534483   -0.072486
     96          1           0       -1.563079   -4.551865    3.626908
     97          1           0       -3.082914   -5.449383    3.751585
     98          1           0       -1.756171   -6.077208    2.968386
     99          1           0        2.734102   -1.801929   -1.484163
    100          1           0        2.537895   -0.216202   -1.986531
    101          1           0        4.384234   -1.267668    0.312948
    102          1           0        4.054405    1.020591   -2.759957
    103          1           0        5.148089    2.160621   -1.936746
    104          1           0        5.681917    0.744965   -3.090400
    105          1           0        6.461515    1.462495    0.033211
    106          1           0        6.320453   -0.173105    0.666290
    107          1           0        7.419292   -1.312613   -1.103255
    108          1           0        7.718001    0.488054   -1.768421
    109          1           0        8.913197    0.841340    0.407194
    110          1           0        8.789983   -0.836859    0.499173
    111          1           0       10.404300    0.011315   -1.804566
    112          1           0        9.203473   -2.281402   -1.812782
    113          1           0       11.164006   -2.579460   -1.336645
    114          1           0        9.644433   -2.543216   -0.054588
    115          1           0       11.414939    0.670737    0.519179
    116          1           0       11.514658   -0.849558    1.057593
    117          1           0       12.775431   -1.570399   -1.077967
    118          1           0       12.827184    0.237459   -1.507122
    119          1           0       13.752547    0.844528    0.947940
    120          1           0       14.102037   -0.983278    0.996219
    121          1           0       15.201107    0.701894   -1.345398
    122          1           0       15.347194   -2.220397   -0.190901
    123          1           0       14.996779   -1.798204   -1.803161
    124          1           0       16.595007   -1.582425   -1.421923
    125          1           0       16.053958    1.422662    0.682910
    126          1           0       16.581143   -0.047422    1.454876
    127          1           0       18.511767   -0.299323   -0.478800
    128          1           0       17.637541    1.177131   -1.184823
    129          1           0       18.377857    2.354516    0.844739
    130          1           0       18.649518    0.849653    1.956421
    131          1           0       20.504607    0.152595    0.090510
    132          1           0       19.877267    3.167738   -0.732152
    133          1           0       21.399096    2.285623   -1.368268
    134          1           0       19.819667    1.830990   -2.076035
    135          1           0       21.298197    1.280552    2.122470
    136          1           0       22.096771    2.136237    0.777030
    137          1           0       20.788217    2.849083    1.619800
 ---------------------------------------------------------------------

 SCF Done:  E(RCAM-B3LYP) =  -2933.52717842     A.U. after   15 cycles

 Excitation energies and oscillator strengths:

 Excited State   1:      Singlet-A      2.0494 eV  604.99 nm  f=0.2099  <S**2>=0.000
     240 -> 243       -0.21967
     241 -> 242        0.66638
 This state for optimization and/or second-order correction.
 Total Energy, E(TD-HF/TD-DFT) =  -2933.45186601
 Copying the excited state density for this state as the 1-particle RhoCI density.

 The electronic state is 1-A.
 Alpha  occ. eigenvalues --  -46.79864 -19.22172 -19.21430 -19.17487 -19.16194
 Alpha  occ. eigenvalues --  -19.15555 -14.38370 -14.35721 -14.35337 -14.34563
 Alpha  occ. eigenvalues --  -10.34697 -10.33490 -10.29821 -10.27537 -10.26432
 Alpha  occ. eigenvalues --  -10.26368 -10.25979 -10.25939 -10.24931 -10.24675
 Alpha  occ. eigenvalues --  -10.24585 -10.24409 -10.24362 -10.24201 -10.24194
 Alpha  occ. eigenvalues --  -10.23972 -10.23766 -10.23647 -10.23562 -10.23556
 Alpha  occ. eigenvalues --  -10.23421 -10.23343 -10.23236 -10.23217 -10.23206
 Alpha  occ. eigenvalues --  -10.23191 -10.23126 -10.23120 -10.22907 -10.22837
 Alpha  occ. eigenvalues --  -10.22781 -10.22685 -10.22629 -10.22625 -10.22510
 Alpha  occ. eigenvalues --  -10.22442 -10.22440 -10.22400 -10.22317 -10.22232
 Alpha  occ. eigenvalues --  -10.22138 -10.21912 -10.21866 -10.21849 -10.21810
 Alpha  occ. eigenvalues --  -10.21690 -10.21588 -10.21164 -10.21079 -10.20737
 Alpha  occ. eigenvalues --  -10.20706 -10.19852 -10.19756 -10.19504 -10.18912
 Alpha  occ. eigenvalues --   -3.08489  -1.83426  -1.82968  -1.82892  -1.13835
 Alpha  occ. eigenvalues --   -1.11925  -1.07934  -1.05315  -1.03596  -0.99428
 Alpha  occ. eigenvalues --   -0.98670  -0.98033  -0.95659  -0.87440  -0.86513
 Alpha  occ. eigenvalues --   -0.86176  -0.85824  -0.84417  -0.84337  -0.83678
 Alpha  occ. eigenvalues --   -0.82939  -0.82699  -0.82158  -0.81964  -0.81170
 Alpha  occ. eigenvalues --   -0.80583  -0.79182  -0.78537  -0.78483  -0.77619
 Alpha  occ. eigenvalues --   -0.76586  -0.76269  -0.75929  -0.74512  -0.72864
 Alpha  occ. eigenvalues --   -0.72729  -0.72235  -0.71351  -0.71159  -0.71101
 Alpha  occ. eigenvalues --   -0.70351  -0.70182  -0.69647  -0.69086  -0.68018
 Alpha  occ. eigenvalues --   -0.66725  -0.65790  -0.65145  -0.64690  -0.63996
 Alpha  occ. eigenvalues --   -0.62823  -0.62457  -0.61244  -0.60261  -0.60203
 Alpha  occ. eigenvalues --   -0.59883  -0.59625  -0.58988  -0.57913  -0.57398
 Alpha  occ. eigenvalues --   -0.56900  -0.56576  -0.56464  -0.55695  -0.55358
 Alpha  occ. eigenvalues --   -0.54471  -0.54303  -0.53733  -0.53496  -0.52832
 Alpha  occ. eigenvalues --   -0.52444  -0.51862  -0.51343  -0.51079  -0.51021
 Alpha  occ. eigenvalues --   -0.50601  -0.50456  -0.49996  -0.49687  -0.49664
 Alpha  occ. eigenvalues --   -0.48865  -0.48604  -0.48527  -0.48151  -0.47753
 Alpha  occ. eigenvalues --   -0.47579  -0.47425  -0.47125  -0.46965  -0.46890
 Alpha  occ. eigenvalues --   -0.46772  -0.46552  -0.46129  -0.45982  -0.45721
 Alpha  occ. eigenvalues --   -0.45550  -0.45275  -0.45137  -0.45111  -0.44830
 Alpha  occ. eigenvalues --   -0.44571  -0.44256  -0.44189  -0.44050  -0.43937
 Alpha  occ. eigenvalues --   -0.43686  -0.43505  -0.42805  -0.42542  -0.42368
 Alpha  occ. eigenvalues --   -0.42344  -0.41907  -0.41684  -0.41610  -0.41564
 Alpha  occ. eigenvalues --   -0.41282  -0.41189  -0.40811  -0.40663  -0.40633
 Alpha  occ. eigenvalues --   -0.40335  -0.40030  -0.39726  -0.39633  -0.39481
 Alpha  occ. eigenvalues --   -0.39422  -0.39267  -0.39080  -0.38986  -0.38804
 Alpha  occ. eigenvalues --   -0.38731  -0.38491  -0.38428  -0.38258  -0.38144
 Alpha  occ. eigenvalues --   -0.37943  -0.37439  -0.37404  -0.37316  -0.37224
 Alpha  occ. eigenvalues --   -0.37172  -0.36913  -0.36814  -0.36584  -0.36413
 Alpha  occ. eigenvalues --   -0.36365  -0.35877  -0.35652  -0.35131  -0.34970
 Alpha  occ. eigenvalues --   -0.34941  -0.34663  -0.34628  -0.33696  -0.33603
 Alpha  occ. eigenvalues --   -0.33459  -0.33312  -0.32883  -0.32456  -0.32446
 Alpha  occ. eigenvalues --   -0.32347  -0.32193  -0.31510  -0.30962  -0.30293
 Alpha  occ. eigenvalues --   -0.30081  -0.29857  -0.29680  -0.28139  -0.27832
 Alpha  occ. eigenvalues --   -0.26544  -0.26241  -0.26018  -0.24738  -0.21611
 Alpha  occ. eigenvalues --   -0.20060
 Alpha virt. eigenvalues --   -0.07001  -0.04034  -0.00030   0.02140   0.03631
 Alpha virt. eigenvalues --    0.04062   0.04330   0.04903   0.04964   0.05411
 Alpha virt. eigenvalues --    0.06203   0.09153   0.09396   0.09402   0.09706

 Mulliken charges:
               1
     1  Mg   0.817777
     2  C    0.069160
     3  C   -0.220777
     4  C   -0.156247
     5  C   -0.161222
     6  N   -0.600375
     7  C    0.264141
     8  C   -0.151622
     9  C   -0.141339
    10  C    0.341721
    11  C   -0.304910
    12  C   -0.169082
    13  C   -0.250009
    14  C    0.603302
    15  O   -0.469120
    16  O   -0.468577
    17  N   -0.685688
    18  C    0.322522
    19  C    0.022706
    20  C    0.034748
    21  C    0.299545
    22  C   -0.370338
    23  C   -0.051339
    24  C   -0.249508
    25  N   -0.737304
    26  C    0.308625
    27  C    0.022755
    28  C    0.014891
    29  C    0.298991
    30  C   -0.384097
    31  C   -0.248293
    32  C   -0.308845
    33  N   -0.729567
    34  C    0.277408
    35  C    0.028065
    36  C   -0.022607
    37  C    0.334142
    38  C   -0.391474
    39  C    0.348999
    40  O   -0.425072
    41  C   -0.344365
    42  C    0.636114
    43  O   -0.477590
    44  O   -0.465491
    45  C   -0.091788
    46  C    0.030360
    47  C   -0.158216
    48  C    0.181880
    49  C   -0.380832
    50  C   -0.222196
    51  C   -0.196490
    52  C   -0.171508
    53  C   -0.027349
    54  C   -0.307042
    55  C   -0.159998
    56  C   -0.158107
    57  C   -0.163427
    58  C   -0.059124
    59  C   -0.302599
    60  C   -0.164300
    61  C   -0.178485
    62  C   -0.159379
    63  C   -0.062497
    64  C   -0.301155
    65  C   -0.296923
    66  H    0.064247
    67  H    0.078236
    68  H    0.093995
    69  H    0.119106
    70  H    0.105358
    71  H    0.111778
    72  H    0.098368
    73  H    0.115076
    74  H    0.119865
    75  H    0.101229
    76  H    0.122402
    77  H    0.142302
    78  H    0.115799
    79  H    0.135557
    80  H    0.118194
    81  H    0.095114
    82  H    0.093773
    83  H    0.096903
    84  H    0.104972
    85  H    0.118422
    86  H    0.126418
    87  H    0.112135
    88  H    0.070701
    89  H    0.110955
    90  H    0.117109
    91  H    0.116490
    92  H    0.105536
    93  H    0.151508
    94  H    0.119444
    95  H    0.145274
    96  H    0.135983
    97  H    0.132017
    98  H    0.126092
    99  H    0.132651
   100  H    0.122094
   101  H    0.076575
   102  H    0.100238
   103  H    0.091617
   104  H    0.117314
   105  H    0.106813
   106  H    0.098797
   107  H    0.085978
   108  H    0.109554
   109  H    0.076364
   110  H    0.101268
   111  H    0.056713
   112  H    0.103829
   113  H    0.101597
   114  H    0.066792
   115  H    0.077597
   116  H    0.081478
   117  H    0.070066
   118  H    0.098798
   119  H    0.047338
   120  H    0.102254
   121  H    0.081253
   122  H    0.071587
   123  H    0.113858
   124  H    0.106965
   125  H    0.103168
   126  H    0.076645
   127  H    0.063450
   128  H    0.098117
   129  H    0.084783
   130  H    0.074747
   131  H    0.044939
   132  H    0.086548
   133  H    0.111947
   134  H    0.105371
   135  H    0.092318
   136  H    0.109036
   137  H    0.117605
 Sum of Mulliken charges =  -0.00000

 Dipole moment (field-independent basis, Debye):
    X=              2.6127    Y=              5.4321    Z=              0.6548  Tot=              6.0632
 Quadrupole moment (field-independent basis, Debye-Ang):
   XX=           -350.5097   YY=           -393.8920   ZZ=           -397.9847
   XY=            -18.4035   XZ=             11.3433   YZ=             -2.1769

 Normal termination of Gaussian 16 at Fri Sep  6 07:51:20 2019.
