 Gaussian 16, Revision A.03,
 Gaussian 16:  ES64L-G16RevA.03 25-Dec-2016

 -------------------------------------
 # td=(NStates=1) CAM-B3LYP/6-31G(d,p)
 -------------------------------------

 --
 TD
 --
 Symbolic Z-matrix:
 Charge =  0 Multiplicity = 1

                         Standard orientation:
 ---------------------------------------------------------------------
 Center     Atomic      Atomic             Coordinates (Angstroms)
 Number     Number       Type             X           Y           Z
 ---------------------------------------------------------------------
      1         12           0       -7.199434    0.554413    0.243032
      2          6           0       -4.850044   -1.911028    0.587471
      3          6           0       -4.820668    2.912995    1.181781
      4          6           0       -9.533005    3.013418   -0.318930
      5          6           0       -9.552874   -1.749432   -1.036568
      6          7           0       -5.169140    0.432212    0.711213
      7          6           0       -4.316923   -0.710380    0.794921
      8          6           0       -2.878433   -0.371526    1.211534
      9          6           0       -3.028559    1.138262    1.658719
     10          6           0       -4.500405    1.554777    1.136897
     11          6           0       -2.924642    1.273662    3.156224
     12          6           0       -1.895379   -0.711087    0.099972
     13          6           0       -0.373352   -0.317812    0.470053
     14          6           0        0.539171   -0.499128   -0.621370
     15          8           0        0.261744   -1.017070   -1.710982
     16          8           0        1.816929   -0.276996   -0.360177
     17          7           0       -7.175404    2.598069    0.327808
     18          6           0       -6.085387    3.347146    0.796923
     19          6           0       -6.442540    4.770625    0.777974
     20          6           0       -7.728609    4.829688    0.342575
     21          6           0       -8.219665    3.421602    0.071530
     22          6           0       -5.616450    5.876711    1.029478
     23          6           0       -8.651460    5.932132    0.075076
     24          6           0       -8.640656    7.060720    0.728057
     25          7           0       -9.212947    0.607621   -0.437746
     26          6           0       -9.962104    1.684976   -0.631537
     27          6           0      -11.295189    1.407006   -1.075984
     28          6           0      -11.292564    0.046676   -1.264329
     29          6           0       -9.960147   -0.469639   -0.836622
     30          6           0      -12.449251    2.388132   -1.311224
     31          6           0      -12.369070   -0.876407   -1.758924
     32          6           0      -12.413957   -1.061139   -3.341099
     33          7           0       -7.314299   -1.386321   -0.107063
     34          6           0       -8.264668   -2.200182   -0.500944
     35          6           0       -7.907047   -3.592782   -0.436491
     36          6           0       -6.509633   -3.566894    0.043510
     37          6           0       -6.183726   -2.121131    0.124729
     38          6           0       -8.619192   -4.862000   -0.733431
     39          6           0       -5.350127   -4.384307    0.163113
     40          8           0       -5.066814   -5.559553    0.167279
     41          6           0       -4.150932   -3.331996    0.657124
     42          6           0       -3.586083   -3.671647    2.003368
     43          8           0       -3.761918   -2.999105    2.928462
     44          8           0       -2.602170   -4.589345    1.865444
     45          6           0       -2.080061   -5.150950    3.000022
     46          6           0        2.916627   -0.766784   -1.240949
     47          6           0        4.217008   -0.500633   -0.588787
     48          6           0        5.150343    0.311584   -1.075830
     49          6           0        5.120243    1.073587   -2.318112
     50          6           0        6.462801    0.511844   -0.319751
     51          6           0        7.662326   -0.124442   -1.156441
     52          6           0        8.873029   -0.033980   -0.291724
     53          6           0       10.158733   -0.455607   -1.018025
     54          6           0       10.183359   -1.979776   -1.314761
     55          6           0       11.370514   -0.025041   -0.139466
     56          6           0       12.860801   -0.376333   -0.736019
     57          6           0       14.032910    0.006756    0.203635
     58          6           0       15.356438   -0.129212   -0.479634
     59          6           0       15.621764   -1.594342   -0.850796
     60          6           0       16.505027    0.328444    0.381773
     61          6           0       17.911964    0.400930   -0.220340
     62          6           0       18.862086    1.195364    0.787942
     63          6           0       20.337740    1.247057    0.404652
     64          6           0       20.582727    2.101996   -0.933569
     65          6           0       21.105621    1.874349    1.591797
     66          1           0       -4.104603    3.633167    1.578848
     67          1           0      -10.244011    3.680700   -0.557658
     68          1           0      -10.272269   -2.411681   -1.322699
     69          1           0       -2.451387   -0.916617    2.189220
     70          1           0       -2.175360    1.784972    1.103052
     71          1           0       -1.725317    1.022780    3.595576
     72          1           0       -3.095335    2.451782    3.309986
     73          1           0       -3.719060    0.571624    3.539760
     74          1           0       -1.870960   -1.636136   -0.205274
     75          1           0       -2.007796   -0.127514   -0.812359
     76          1           0       -0.362427    0.750026    0.814304
     77          1           0        0.114537   -0.952603    1.236590
     78          1           0       -5.894761    6.841119    0.674411
     79          1           0       -5.267004    6.132117    2.183169
     80          1           0       -4.496639    5.750484    0.686941
     81          1           0       -9.372210    5.822583   -0.823403
     82          1           0       -9.302097    7.897877    0.366159
     83          1           0       -8.012607    7.218915    1.667066
     84          1           0      -12.301926    3.100757   -2.044575
     85          1           0      -13.319980    1.505545   -1.592412
     86          1           0      -12.596230    2.871556   -0.286280
     87          1           0      -12.412130   -1.811710   -1.262978
     88          1           0      -13.279108   -0.541915   -1.484864
     89          1           0      -13.149279   -1.815660   -3.551938
     90          1           0      -12.405454   -0.113981   -3.926684
     91          1           0      -11.507503   -1.543445   -3.731140
     92          1           0       -9.018287   -4.901728   -1.700062
     93          1           0       -7.967444   -5.684212   -0.628106
     94          1           0       -9.566644   -4.861652   -0.113399
     95          1           0       -3.212495   -3.345022   -0.017608
     96          1           0       -1.301889   -4.429008    3.627648
     97          1           0       -2.823009   -5.410727    3.698515
     98          1           0       -1.554371   -6.078395    2.774713
     99          1           0        2.774722   -1.942816   -1.459987
    100          1           0        2.600189   -0.274838   -2.258738
    101          1           0        4.313681   -1.198034    0.233038
    102          1           0        4.225406    1.045076   -2.868537
    103          1           0        5.353176    2.302992   -2.307665
    104          1           0        5.886128    1.080975   -2.977313
    105          1           0        6.454518    1.647040   -0.192818
    106          1           0        6.431247   -0.100667    0.535835
    107          1           0        7.235965   -1.291609   -1.195402
    108          1           0        7.858170    0.288697   -2.092587
    109          1           0        9.086319    0.952820   -0.118181
    110          1           0        8.833411   -0.449405    0.758731
    111          1           0       10.289240    0.102561   -1.865217
    112          1           0        9.373789   -2.273652   -2.010992
    113          1           0       10.981911   -2.263436   -1.783330
    114          1           0       10.062298   -2.450305   -0.424371
    115          1           0       11.519364    1.034120    0.219985
    116          1           0       11.252348   -0.558222    0.659752
    117          1           0       12.944019   -1.364728   -1.118174
    118          1           0       12.966388    0.352616   -1.602916
    119          1           0       13.697498    0.907471    0.655769
    120          1           0       13.790995   -0.783499    1.067996
    121          1           0       15.192420    0.390117   -1.401642
    122          1           0       15.908347   -2.330308    0.030690
    123          1           0       14.835750   -2.279037   -1.484912
    124          1           0       16.622147   -1.844853   -1.536593
    125          1           0       16.286365    1.440695    0.609655
    126          1           0       16.593840   -0.340507    1.230603
    127          1           0       18.284120   -0.649507   -0.423839
    128          1           0       18.261019    0.879452   -1.220504
    129          1           0       18.440886    2.381443    0.848812
    130          1           0       18.929375    0.562540    1.846877
    131          1           0       20.767868    0.308809    0.194710
    132          1           0       20.331888    3.319138   -0.823910
    133          1           0       21.529401    1.852966   -1.439726
    134          1           0       19.812011    1.532520   -1.725560
    135          1           0       21.266384    0.742367    2.049413
    136          1           0       22.135248    2.165131    1.226848
    137          1           0       20.590199    2.785470    2.108424
 ---------------------------------------------------------------------

 SCF Done:  E(RCAM-B3LYP) =  -2932.62492178     A.U. after   17 cycles

 Excitation energies and oscillator strengths:

 Excited State   1:      Singlet-A      2.0795 eV  596.21 nm  f=0.2801  <S**2>=0.000
     240 -> 242       -0.12138
     240 -> 243        0.19128
     241 -> 242        0.66139
 This state for optimization and/or second-order correction.
 Total Energy, E(TD-HF/TD-DFT) =  -2932.54850047
 Copying the excited state density for this state as the 1-particle RhoCI density.

 The electronic state is 1-A.
 Alpha  occ. eigenvalues --  -46.84443 -19.25269 -19.24353 -19.20465 -19.19100
 Alpha  occ. eigenvalues --  -19.18289 -14.42524 -14.40226 -14.39607 -14.39262
 Alpha  occ. eigenvalues --  -10.37917 -10.37412 -10.34208 -10.32908 -10.32324
 Alpha  occ. eigenvalues --  -10.31370 -10.30933 -10.30806 -10.29691 -10.29461
 Alpha  occ. eigenvalues --  -10.28990 -10.28777 -10.28738 -10.28548 -10.28280
 Alpha  occ. eigenvalues --  -10.28225 -10.28103 -10.27992 -10.27755 -10.27738
 Alpha  occ. eigenvalues --  -10.27729 -10.27703 -10.27559 -10.27455 -10.27432
 Alpha  occ. eigenvalues --  -10.27347 -10.27272 -10.27230 -10.27065 -10.26974
 Alpha  occ. eigenvalues --  -10.26844 -10.26819 -10.26806 -10.26586 -10.26586
 Alpha  occ. eigenvalues --  -10.26408 -10.26316 -10.26252 -10.26171 -10.26129
 Alpha  occ. eigenvalues --  -10.25997 -10.25979 -10.25928 -10.25860 -10.25820
 Alpha  occ. eigenvalues --  -10.25786 -10.25320 -10.25240 -10.25041 -10.24909
 Alpha  occ. eigenvalues --  -10.24845 -10.24832 -10.24302 -10.24188 -10.22394
 Alpha  occ. eigenvalues --   -3.13540  -1.88239  -1.87772  -1.87734  -1.19433
 Alpha  occ. eigenvalues --   -1.16571  -1.11489  -1.10056  -1.05655  -1.04657
 Alpha  occ. eigenvalues --   -1.03642  -1.03334  -1.01680  -0.91877  -0.91108
 Alpha  occ. eigenvalues --   -0.90797  -0.90335  -0.89768  -0.89144  -0.88938
 Alpha  occ. eigenvalues --   -0.88448  -0.88084  -0.87652  -0.86447  -0.85747
 Alpha  occ. eigenvalues --   -0.85000  -0.84465  -0.83317  -0.83113  -0.82752
 Alpha  occ. eigenvalues --   -0.81686  -0.81428  -0.80685  -0.79373  -0.78372
 Alpha  occ. eigenvalues --   -0.77831  -0.77199  -0.77012  -0.75472  -0.75234
 Alpha  occ. eigenvalues --   -0.75014  -0.73737  -0.73175  -0.72945  -0.72446
 Alpha  occ. eigenvalues --   -0.71990  -0.70445  -0.69869  -0.68768  -0.68099
 Alpha  occ. eigenvalues --   -0.66823  -0.66571  -0.64887  -0.64728  -0.64608
 Alpha  occ. eigenvalues --   -0.64385  -0.63434  -0.63063  -0.62341  -0.61656
 Alpha  occ. eigenvalues --   -0.61368  -0.61079  -0.60584  -0.59554  -0.59490
 Alpha  occ. eigenvalues --   -0.58576  -0.58248  -0.57547  -0.56534  -0.56358
 Alpha  occ. eigenvalues --   -0.55884  -0.55541  -0.55385  -0.55086  -0.54923
 Alpha  occ. eigenvalues --   -0.54163  -0.54095  -0.53709  -0.52906  -0.52688
 Alpha  occ. eigenvalues --   -0.52551  -0.52439  -0.52382  -0.51947  -0.51694
 Alpha  occ. eigenvalues --   -0.51500  -0.51335  -0.50915  -0.50388  -0.50280
 Alpha  occ. eigenvalues --   -0.49978  -0.49896  -0.49768  -0.49511  -0.49418
 Alpha  occ. eigenvalues --   -0.49231  -0.49114  -0.49011  -0.48865  -0.48245
 Alpha  occ. eigenvalues --   -0.47714  -0.47481  -0.47363  -0.47189  -0.46990
 Alpha  occ. eigenvalues --   -0.46749  -0.46521  -0.46230  -0.46091  -0.45980
 Alpha  occ. eigenvalues --   -0.45832  -0.45537  -0.45308  -0.45111  -0.44905
 Alpha  occ. eigenvalues --   -0.44799  -0.44565  -0.44378  -0.44230  -0.44158
 Alpha  occ. eigenvalues --   -0.43994  -0.43894  -0.43639  -0.43491  -0.43266
 Alpha  occ. eigenvalues --   -0.43120  -0.42604  -0.42359  -0.42207  -0.41978
 Alpha  occ. eigenvalues --   -0.41901  -0.41310  -0.41266  -0.41198  -0.40884
 Alpha  occ. eigenvalues --   -0.40739  -0.40573  -0.40549  -0.40301  -0.39980
 Alpha  occ. eigenvalues --   -0.39687  -0.39505  -0.39434  -0.39193  -0.38911
 Alpha  occ. eigenvalues --   -0.38816  -0.38387  -0.38323  -0.38048  -0.37601
 Alpha  occ. eigenvalues --   -0.37503  -0.37390  -0.37182  -0.36724  -0.36520
 Alpha  occ. eigenvalues --   -0.36358  -0.35782  -0.35509  -0.35423  -0.35267
 Alpha  occ. eigenvalues --   -0.34771  -0.34220  -0.33975  -0.33297  -0.32958
 Alpha  occ. eigenvalues --   -0.32798  -0.32198  -0.31749  -0.31385  -0.29659
 Alpha  occ. eigenvalues --   -0.29134  -0.28429  -0.28338  -0.28150  -0.23561
 Alpha  occ. eigenvalues --   -0.21285
 Alpha virt. eigenvalues --   -0.06746  -0.02528   0.01416   0.04145   0.05033
 Alpha virt. eigenvalues --    0.05256   0.06977   0.07086   0.07407   0.07684
 Alpha virt. eigenvalues --    0.08547   0.10238   0.10612   0.11096   0.11600

 Mulliken charges:
               1
     1  Mg   0.831858
     2  C    0.073005
     3  C   -0.180750
     4  C   -0.159642
     5  C   -0.111657
     6  N   -0.654721
     7  C    0.275008
     8  C   -0.134615
     9  C   -0.153021
    10  C    0.343827
    11  C   -0.269256
    12  C   -0.161576
    13  C   -0.280796
    14  C    0.597891
    15  O   -0.508093
    16  O   -0.485802
    17  N   -0.729899
    18  C    0.318031
    19  C    0.106508
    20  C   -0.011154
    21  C    0.320552
    22  C   -0.424506
    23  C   -0.068844
    24  C   -0.248623
    25  N   -0.674124
    26  C    0.301077
    27  C    0.018271
    28  C    0.007893
    29  C    0.278179
    30  C   -0.342229
    31  C   -0.257011
    32  C   -0.322404
    33  N   -0.710418
    34  C    0.257998
    35  C    0.014694
    36  C   -0.029877
    37  C    0.262754
    38  C   -0.376653
    39  C    0.356821
    40  O   -0.466286
    41  C   -0.353352
    42  C    0.623782
    43  O   -0.417995
    44  O   -0.433760
    45  C   -0.077069
    46  C    0.007095
    47  C   -0.141171
    48  C    0.162844
    49  C   -0.367312
    50  C   -0.224909
    51  C   -0.169002
    52  C   -0.165210
    53  C   -0.087108
    54  C   -0.306126
    55  C   -0.188854
    56  C   -0.206507
    57  C   -0.162471
    58  C   -0.039345
    59  C   -0.312061
    60  C   -0.153340
    61  C   -0.188706
    62  C   -0.129524
    63  C   -0.066354
    64  C   -0.296971
    65  C   -0.284924
    66  H    0.101344
    67  H    0.062239
    68  H    0.087408
    69  H    0.117445
    70  H    0.083028
    71  H    0.079701
    72  H    0.089193
    73  H    0.136910
    74  H    0.132631
    75  H    0.123835
    76  H    0.128031
    77  H    0.138695
    78  H    0.138505
    79  H    0.094641
    80  H    0.106738
    81  H    0.102008
    82  H    0.100012
    83  H    0.109551
    84  H    0.137199
    85  H    0.091683
    86  H    0.123109
    87  H    0.110570
    88  H    0.114118
    89  H    0.111228
    90  H    0.115006
    91  H    0.111077
    92  H    0.126099
    93  H    0.151622
    94  H    0.114542
    95  H    0.150119
    96  H    0.076697
    97  H    0.126328
    98  H    0.124443
    99  H    0.108479
   100  H    0.123792
   101  H    0.102257
   102  H    0.122685
   103  H    0.071100
   104  H    0.139851
   105  H    0.102626
   106  H    0.107884
   107  H    0.076708
   108  H    0.104941
   109  H    0.105126
   110  H    0.084112
   111  H    0.088221
   112  H    0.095326
   113  H    0.112052
   114  H    0.107392
   115  H    0.079573
   116  H    0.101710
   117  H    0.104132
   118  H    0.070675
   119  H    0.095434
   120  H    0.067383
   121  H    0.102255
   122  H    0.090403
   123  H    0.086087
   124  H    0.076589
   125  H    0.083256
   126  H    0.109100
   127  H    0.084510
   128  H    0.086731
   129  H    0.066630
   130  H    0.064266
   131  H    0.099986
   132  H    0.083969
   133  H    0.107720
   134  H    0.061415
   135  H    0.082301
   136  H    0.096310
   137  H    0.107201
 Sum of Mulliken charges =  -0.00000

 Dipole moment (field-independent basis, Debye):
    X=              0.6313    Y=              5.8280    Z=              0.1570  Tot=              5.8642
 Quadrupole moment (field-independent basis, Debye-Ang):
   XX=           -315.0571   YY=           -390.0211   ZZ=           -399.8050
   XY=            -30.0190   XZ=              6.0191   YZ=             -3.0018

 Normal termination of Gaussian 16 at Thu Jun 27 09:10:08 2019.
