 Gaussian 09, Revision D.01,
 Gaussian 09:  ES64L-G09RevD.01 24-Apr-2013

 -------------------------------------
 # td=(NStates=1) CAM-B3LYP/6-31G(d,p)
 -------------------------------------

 --
 TD
 --
 Symbolic Z-matrix:
 Charge =  0 Multiplicity = 1

                         Standard orientation:
 ---------------------------------------------------------------------
 Center     Atomic      Atomic             Coordinates (Angstroms)
 Number     Number       Type             X           Y           Z
 ---------------------------------------------------------------------
      1         12           0       -7.115383    0.615541   -0.048958
      2          6           0       -4.859733   -1.914576    0.552869
      3          6           0       -4.752430    2.873444    1.180049
      4          6           0       -9.433684    3.104650   -0.363156
      5          6           0       -9.464103   -1.739696   -0.910979
      6          7           0       -5.043484    0.491074    0.783916
      7          6           0       -4.380954   -0.759469    0.924241
      8          6           0       -2.914134   -0.372144    1.261184
      9          6           0       -3.079118    1.092630    1.763727
     10          6           0       -4.369030    1.488334    1.249544
     11          6           0       -2.895278    1.292648    3.296085
     12          6           0       -1.964029   -0.643607    0.104935
     13          6           0       -0.398430   -0.402480    0.542097
     14          6           0        0.490297   -0.669914   -0.637177
     15          8           0        0.237568   -1.108976   -1.742086
     16          8           0        1.793450   -0.464260   -0.229905
     17          7           0       -7.005413    2.564395    0.322505
     18          6           0       -5.944623    3.322937    0.709123
     19          6           0       -6.430935    4.705239    0.762045
     20          6           0       -7.657964    4.743415    0.323900
     21          6           0       -8.117175    3.411476   -0.001048
     22          6           0       -5.479863    5.773195    1.183171
     23          6           0       -8.431444    5.918907    0.140840
     24          6           0       -8.434767    7.051997    0.818369
     25          7           0       -9.134759    0.676426   -0.610085
     26          6           0       -9.951095    1.807612   -0.691050
     27          6           0      -11.219104    1.550374   -1.074504
     28          6           0      -11.222929    0.047677   -1.200298
     29          6           0       -9.934817   -0.341533   -0.960085
     30          6           0      -12.370222    2.529315   -1.445352
     31          6           0      -12.372199   -0.774447   -1.644508
     32          6           0      -12.307677   -1.156245   -3.169225
     33          7           0       -7.130520   -1.348137   -0.305833
     34          6           0       -8.180131   -2.208911   -0.641301
     35          6           0       -7.791639   -3.581902   -0.546415
     36          6           0       -6.431848   -3.497340   -0.231392
     37          6           0       -6.131823   -2.143142    0.073941
     38          6           0       -8.588180   -4.800665   -0.829192
     39          6           0       -5.382440   -4.400166    0.255621
     40          8           0       -5.231739   -5.548665    0.308826
     41          6           0       -4.163257   -3.263173    0.622944
     42          6           0       -3.561804   -3.616858    1.932604
     43          8           0       -3.823851   -3.139003    3.005845
     44          8           0       -2.663071   -4.736489    1.736161
     45          6           0       -1.934256   -5.097240    2.976267
     46          6           0        2.866878   -0.769422   -1.107724
     47          6           0        4.129669   -0.470305   -0.514954
     48          6           0        5.083033    0.455236   -0.920423
     49          6           0        4.893768    1.282515   -2.271870
     50          6           0        6.374396    0.446606   -0.153569
     51          6           0        7.605021    0.058924   -1.069240
     52          6           0        8.893174   -0.199474   -0.227531
     53          6           0       10.035487   -0.586405   -0.902174
     54          6           0        9.978736   -2.004533   -1.518529
     55          6           0       11.391207   -0.320393   -0.028166
     56          6           0       12.830096   -0.560393   -0.723765
     57          6           0       13.975774   -0.117245    0.325695
     58          6           0       15.386437   -0.173939   -0.470171
     59          6           0       15.721112   -1.620642   -0.871284
     60          6           0       16.421570    0.300707    0.568523
     61          6           0       17.802129    0.495820   -0.058025
     62          6           0       18.752687    1.264276    0.733341
     63          6           0       20.124595    1.407423    0.163452
     64          6           0       20.215227    2.103145   -1.133431
     65          6           0       21.107043    2.023292    1.217192
     66          1           0       -3.908456    3.416537    1.374150
     67          1           0      -10.137367    3.869367   -0.705698
     68          1           0      -10.409934   -2.484739   -0.828258
     69          1           0       -2.603030   -0.867838    2.259736
     70          1           0       -2.305994    1.670846    1.393064
     71          1           0       -1.825973    1.016592    3.473494
     72          1           0       -3.007650    2.309676    3.499453
     73          1           0       -3.563812    0.684999    3.968096
     74          1           0       -2.076881   -1.788956    0.020582
     75          1           0       -2.140123    0.077284   -0.694482
     76          1           0       -0.196102    0.477684    1.076319
     77          1           0       -0.044693   -1.086021    1.235306
     78          1           0       -5.683528    6.722711    0.639184
     79          1           0       -5.522810    5.945659    2.242495
     80          1           0       -4.386148    5.374705    1.135504
     81          1           0       -9.254794    5.812979   -0.598566
     82          1           0       -9.070137    7.872470    0.780295
     83          1           0       -7.739891    7.217877    1.558801
     84          1           0      -12.312647    2.938626   -2.696007
     85          1           0      -13.446208    1.954513   -1.449390
     86          1           0      -12.247570    3.367721   -0.718511
     87          1           0      -12.475191   -1.896763   -1.098664
     88          1           0      -13.357016   -0.207885   -1.392045
     89          1           0      -13.172238   -1.567378   -3.389728
     90          1           0      -12.248060   -0.124327   -3.762590
     91          1           0      -11.491239   -1.711011   -3.566109
     92          1           0       -8.872841   -4.455097   -1.905397
     93          1           0       -7.944181   -5.656068   -1.073938
     94          1           0       -9.447733   -4.966510   -0.207921
     95          1           0       -3.244616   -3.408527    0.028600
     96          1           0       -1.512880   -4.208659    3.459506
     97          1           0       -2.630969   -5.702793    3.606059
     98          1           0       -0.911120   -5.819996    2.704452
     99          1           0        2.897388   -1.914577   -1.427759
    100          1           0        2.514957   -0.400376   -2.085631
    101          1           0        4.392421   -0.744366    0.670243
    102          1           0        3.811623    1.638254   -2.517842
    103          1           0        5.427583    2.130096   -2.098713
    104          1           0        5.530229    0.960294   -3.265203
    105          1           0        6.506445    1.539851    0.233258
    106          1           0        6.286898   -0.165333    0.703710
    107          1           0        7.237632   -0.854954   -1.603631
    108          1           0        7.498230    0.698543   -2.085431
    109          1           0        9.255661    0.827407    0.189871
    110          1           0        8.423023   -0.754946    0.561082
    111          1           0       10.310803    0.150196   -1.658434
    112          1           0        8.844466   -2.354007   -2.091250
    113          1           0       10.718690   -2.355674   -2.247405
    114          1           0        9.877453   -2.581791   -0.655915
    115          1           0       11.201585    0.648655    0.303268
    116          1           0       11.367818   -1.026392    0.703663
    117          1           0       12.892135   -1.628465   -0.920267
    118          1           0       12.925957    0.038392   -1.634436
    119          1           0       13.664481    0.844306    0.573533
    120          1           0       14.010527   -0.537294    1.142193
    121          1           0       15.493725    0.430224   -1.195227
    122          1           0       16.005717   -2.232530    0.053856
    123          1           0       14.984692   -2.183214   -1.482342
    124          1           0       16.803383   -1.654204   -1.329033
    125          1           0       16.061266    1.290780    0.791681
    126          1           0       16.444977   -0.305838    1.519915
    127          1           0       18.126391   -0.432751   -0.320173
    128          1           0       17.677271    1.136318   -0.977646
    129          1           0       18.382224    2.408872    0.839939
    130          1           0       18.819825    0.844578    1.719058
    131          1           0       20.442308    0.517163   -0.140024
    132          1           0       19.621625    2.925644   -1.316487
    133          1           0       21.236828    2.457775   -1.545411
    134          1           0       19.626468    1.474008   -1.897302
    135          1           0       20.743739    1.489417    2.152434
    136          1           0       22.180024    1.805490    0.980298
    137          1           0       20.867010    2.925905    1.421693
 ---------------------------------------------------------------------

 SCF Done:  E(RCAM-B3LYP) =  -2932.59957589     A.U. after   16 cycles

 Excitation energies and oscillator strengths:

 Excited State   1:      Singlet-A      2.2605 eV  548.48 nm  f=0.1731  <S**2>=0.000
     240 -> 242       -0.19958
     240 -> 243        0.22130
     241 -> 242        0.60513
     241 -> 243        0.18803
 This state for optimization and/or second-order correction.
 Total Energy, E(TD-HF/TD-KS) =  -2932.51650360
 Copying the excited state density for this state as the 1-particle RhoCI density.

 The electronic state is 1-A.
 Alpha  occ. eigenvalues --  -46.83853 -19.25261 -19.25058 -19.22426 -19.21550
 Alpha  occ. eigenvalues --  -19.21532 -14.41068 -14.40512 -14.38814 -14.37602
 Alpha  occ. eigenvalues --  -10.39647 -10.39044 -10.36534 -10.32656 -10.31820
 Alpha  occ. eigenvalues --  -10.30651 -10.30536 -10.30389 -10.29845 -10.29810
 Alpha  occ. eigenvalues --  -10.29744 -10.29585 -10.29577 -10.29564 -10.28748
 Alpha  occ. eigenvalues --  -10.28444 -10.28441 -10.28201 -10.27970 -10.27684
 Alpha  occ. eigenvalues --  -10.27668 -10.27520 -10.27362 -10.27350 -10.26999
 Alpha  occ. eigenvalues --  -10.26972 -10.26836 -10.26642 -10.26605 -10.26555
 Alpha  occ. eigenvalues --  -10.26349 -10.26339 -10.26160 -10.25914 -10.25909
 Alpha  occ. eigenvalues --  -10.25821 -10.25781 -10.25695 -10.25661 -10.25614
 Alpha  occ. eigenvalues --  -10.25613 -10.25568 -10.25394 -10.24905 -10.24865
 Alpha  occ. eigenvalues --  -10.24552 -10.24538 -10.24435 -10.24415 -10.24405
 Alpha  occ. eigenvalues --  -10.23982 -10.23940 -10.23862 -10.23546 -10.23398
 Alpha  occ. eigenvalues --   -3.12927  -1.87633  -1.87184  -1.87088  -1.17463
 Alpha  occ. eigenvalues --   -1.15852  -1.15190  -1.09114  -1.07849  -1.05654
 Alpha  occ. eigenvalues --   -1.04532  -1.02706  -1.01970  -0.93398  -0.91629
 Alpha  occ. eigenvalues --   -0.91371  -0.90230  -0.89837  -0.89461  -0.89202
 Alpha  occ. eigenvalues --   -0.88977  -0.88039  -0.87640  -0.86533  -0.86408
 Alpha  occ. eigenvalues --   -0.84756  -0.84344  -0.83400  -0.83180  -0.82344
 Alpha  occ. eigenvalues --   -0.81381  -0.80953  -0.80467  -0.79947  -0.78806
 Alpha  occ. eigenvalues --   -0.78100  -0.76659  -0.76517  -0.76194  -0.75463
 Alpha  occ. eigenvalues --   -0.75432  -0.74659  -0.74255  -0.73600  -0.72712
 Alpha  occ. eigenvalues --   -0.72452  -0.71165  -0.69453  -0.69220  -0.68733
 Alpha  occ. eigenvalues --   -0.67770  -0.67617  -0.66133  -0.65771  -0.64795
 Alpha  occ. eigenvalues --   -0.64650  -0.64155  -0.64077  -0.63331  -0.63205
 Alpha  occ. eigenvalues --   -0.60897  -0.60774  -0.59987  -0.59692  -0.59454
 Alpha  occ. eigenvalues --   -0.58747  -0.58115  -0.57371  -0.56810  -0.56459
 Alpha  occ. eigenvalues --   -0.56077  -0.55713  -0.55339  -0.55200  -0.55063
 Alpha  occ. eigenvalues --   -0.54422  -0.54160  -0.53637  -0.53411  -0.53057
 Alpha  occ. eigenvalues --   -0.53041  -0.52682  -0.52376  -0.51957  -0.51876
 Alpha  occ. eigenvalues --   -0.51738  -0.51585  -0.51301  -0.51031  -0.50774
 Alpha  occ. eigenvalues --   -0.50569  -0.50213  -0.49938  -0.49839  -0.49518
 Alpha  occ. eigenvalues --   -0.49427  -0.49252  -0.48932  -0.48718  -0.48412
 Alpha  occ. eigenvalues --   -0.48140  -0.47834  -0.47569  -0.47382  -0.47207
 Alpha  occ. eigenvalues --   -0.47037  -0.47004  -0.46750  -0.46455  -0.46313
 Alpha  occ. eigenvalues --   -0.46256  -0.45974  -0.45770  -0.45665  -0.45480
 Alpha  occ. eigenvalues --   -0.45262  -0.45039  -0.44920  -0.44600  -0.44385
 Alpha  occ. eigenvalues --   -0.44057  -0.43891  -0.43538  -0.43463  -0.43295
 Alpha  occ. eigenvalues --   -0.42985  -0.42803  -0.42643  -0.42512  -0.42256
 Alpha  occ. eigenvalues --   -0.42021  -0.41678  -0.41536  -0.41453  -0.41376
 Alpha  occ. eigenvalues --   -0.41308  -0.41121  -0.40704  -0.40672  -0.40340
 Alpha  occ. eigenvalues --   -0.40108  -0.39885  -0.39572  -0.39502  -0.39413
 Alpha  occ. eigenvalues --   -0.39192  -0.39122  -0.38984  -0.38434  -0.38200
 Alpha  occ. eigenvalues --   -0.38015  -0.37552  -0.37296  -0.36839  -0.36726
 Alpha  occ. eigenvalues --   -0.36643  -0.36011  -0.35715  -0.35687  -0.35563
 Alpha  occ. eigenvalues --   -0.35299  -0.35208  -0.34338  -0.33935  -0.33806
 Alpha  occ. eigenvalues --   -0.32791  -0.32448  -0.32062  -0.31426  -0.30556
 Alpha  occ. eigenvalues --   -0.30268  -0.28601  -0.27708  -0.26102  -0.24125
 Alpha  occ. eigenvalues --   -0.21685
 Alpha virt. eigenvalues --   -0.06057  -0.03522   0.01448   0.04933   0.05063
 Alpha virt. eigenvalues --    0.05567   0.05924   0.06163   0.06880   0.07350
 Alpha virt. eigenvalues --    0.08280   0.10256   0.10740   0.11188   0.11440

 Mulliken charges:
               1
     1  Mg   0.819435
     2  C    0.142520
     3  C   -0.202118
     4  C   -0.182397
     5  C   -0.164341
     6  N   -0.639541
     7  C    0.259587
     8  C   -0.173588
     9  C   -0.182144
    10  C    0.397301
    11  C   -0.313610
    12  C   -0.149889
    13  C   -0.286950
    14  C    0.612320
    15  O   -0.472503
    16  O   -0.491148
    17  N   -0.754024
    18  C    0.360126
    19  C    0.022964
    20  C    0.035409
    21  C    0.317893
    22  C   -0.379615
    23  C   -0.084727
    24  C   -0.248621
    25  N   -0.697243
    26  C    0.286112
    27  C    0.007598
    28  C    0.015756
    29  C    0.298348
    30  C   -0.337027
    31  C   -0.251191
    32  C   -0.294436
    33  N   -0.729890
    34  C    0.276842
    35  C    0.048581
    36  C   -0.068302
    37  C    0.303872
    38  C   -0.375655
    39  C    0.407493
    40  O   -0.394635
    41  C   -0.373944
    42  C    0.615432
    43  O   -0.457826
    44  O   -0.503064
    45  C   -0.067396
    46  C    0.020919
    47  C   -0.124142
    48  C    0.104315
    49  C   -0.362375
    50  C   -0.214813
    51  C   -0.189627
    52  C   -0.136317
    53  C   -0.076748
    54  C   -0.302464
    55  C   -0.197460
    56  C   -0.204130
    57  C   -0.160822
    58  C   -0.034316
    59  C   -0.317417
    60  C   -0.191221
    61  C   -0.178317
    62  C   -0.161926
    63  C   -0.043517
    64  C   -0.322540
    65  C   -0.304730
    66  H    0.069345
    67  H    0.092107
    68  H    0.106278
    69  H    0.114272
    70  H    0.107195
    71  H    0.101666
    72  H    0.119857
    73  H    0.127789
    74  H    0.121078
    75  H    0.131202
    76  H    0.140492
    77  H    0.153405
    78  H    0.121793
    79  H    0.131094
    80  H    0.099470
    81  H    0.081331
    82  H    0.108582
    83  H    0.095554
    84  H    0.082136
    85  H    0.102667
    86  H    0.123102
    87  H    0.065007
    88  H    0.097227
    89  H    0.116807
    90  H    0.084759
    91  H    0.117197
    92  H    0.125422
    93  H    0.152983
    94  H    0.143338
    95  H    0.162947
    96  H    0.129721
    97  H    0.136675
    98  H    0.090241
    99  H    0.100447
   100  H    0.129847
   101  H    0.075007
   102  H    0.115709
   103  H    0.131136
   104  H    0.098909
   105  H    0.083996
   106  H    0.102222
   107  H    0.104098
   108  H    0.074851
   109  H    0.078991
   110  H    0.099774
   111  H    0.094373
   112  H    0.048471
   113  H    0.111244
   114  H    0.112146
   115  H    0.091692
   116  H    0.100786
   117  H    0.103428
   118  H    0.093990
   119  H    0.094230
   120  H    0.095263
   121  H    0.089013
   122  H    0.091733
   123  H    0.104885
   124  H    0.086201
   125  H    0.090564
   126  H    0.082975
   127  H    0.101524
   128  H    0.083600
   129  H    0.061005
   130  H    0.088555
   131  H    0.101205
   132  H    0.102718
   133  H    0.093060
   134  H    0.079294
   135  H    0.080346
   136  H    0.099044
   137  H    0.116810
 Sum of Mulliken charges =   0.00000

 Dipole moment (field-independent basis, Debye):
    X=              2.2016    Y=              3.1431    Z=              0.8295  Tot=              3.9261
 Quadrupole moment (field-independent basis, Debye-Ang):
   XX=           -357.3257   YY=           -394.7086   ZZ=           -398.1498
   XY=             -4.3287   XZ=             13.7590   YZ=              0.4017

 Normal termination of Gaussian 09 at Fri Jul  5 00:02:33 2019.
