 Gaussian 16, Revision A.03,
 Gaussian 16:  ES64L-G16RevA.03 25-Dec-2016

 ----------------------------------------------------------------------
 # td=(NStates=1) iop(3/107=0140000000,3/108=0140000000) CAM-B3LYP/6-31
 G(d,p)
 ----------------------------------------------------------------------

 --
 TD
 --
 Symbolic Z-matrix:
 Charge =  0 Multiplicity = 1

                         Standard orientation:
 ---------------------------------------------------------------------
 Center     Atomic      Atomic             Coordinates (Angstroms)
 Number     Number       Type             X           Y           Z
 ---------------------------------------------------------------------
      1         12           0       -7.185273    0.577619    0.088676
      2          6           0       -4.881403   -2.021094    0.385532
      3          6           0       -4.868849    2.794522    1.182507
      4          6           0       -9.432165    3.150607   -0.359920
      5          6           0       -9.612190   -1.679342   -1.019199
      6          7           0       -5.157768    0.420311    0.708516
      7          6           0       -4.363639   -0.744230    0.695006
      8          6           0       -2.892815   -0.431229    1.121270
      9          6           0       -3.017780    0.974310    1.687168
     10          6           0       -4.403108    1.448888    1.137878
     11          6           0       -3.013340    1.131244    3.135311
     12          6           0       -1.942662   -0.678349    0.096909
     13          6           0       -0.504078   -0.520797    0.597332
     14          6           0        0.557521   -0.626508   -0.508681
     15          8           0        0.274008   -0.913040   -1.632703
     16          8           0        1.805484   -0.503057   -0.023882
     17          7           0       -7.169637    2.573245    0.302988
     18          6           0       -6.049197    3.394659    0.770621
     19          6           0       -6.340987    4.747868    0.715070
     20          6           0       -7.712201    4.915772    0.320357
     21          6           0       -8.191405    3.476160    0.103237
     22          6           0       -5.383931    5.948356    0.977641
     23          6           0       -8.494496    6.058565    0.219632
     24          6           0       -8.202183    7.273343    0.761408
     25          7           0       -9.073556    0.718719   -0.668328
     26          6           0       -9.865804    1.867160   -0.686981
     27          6           0      -11.243003    1.610165   -1.181750
     28          6           0      -11.337605    0.170338   -1.237632
     29          6           0       -9.962221   -0.246904   -0.988431
     30          6           0      -12.403411    2.511866   -1.296439
     31          6           0      -12.495640   -0.748599   -1.561609
     32          6           0      -12.245269   -1.429223   -3.084831
     33          7           0       -7.283157   -1.386843   -0.204871
     34          6           0       -8.353416   -2.244202   -0.597735
     35          6           0       -7.939241   -3.619366   -0.483689
     36          6           0       -6.588760   -3.632439   -0.109398
     37          6           0       -6.265213   -2.260095    0.028169
     38          6           0       -8.867242   -4.716231   -0.815002
     39          6           0       -5.465837   -4.383327    0.230195
     40          8           0       -5.380817   -5.638197    0.192579
     41          6           0       -4.289409   -3.442221    0.398509
     42          6           0       -3.587507   -3.649635    1.760905
     43          8           0       -3.776505   -3.051367    2.787763
     44          8           0       -2.820032   -4.765225    1.657377
     45          6           0       -2.260865   -5.251172    2.882349
     46          6           0        2.850558   -0.525120   -1.025594
     47          6           0        4.149305   -0.337190   -0.425519
     48          6           0        5.198673    0.371441   -0.931698
     49          6           0        5.133142    1.171840   -2.137185
     50          6           0        6.482098    0.435044   -0.144616
     51          6           0        7.702775    0.128179   -0.822971
     52          6           0        8.924507   -0.088328   -0.044942
     53          6           0       10.187451   -0.424484   -0.744288
     54          6           0       10.190355   -1.919742   -1.193521
     55          6           0       11.532914   -0.133680    0.112278
     56          6           0       12.791684   -0.267403   -0.637089
     57          6           0       14.063765    0.073326    0.178282
     58          6           0       15.421529   -0.220058   -0.505731
     59          6           0       15.577537   -1.623557   -0.908054
     60          6           0       16.516001    0.370757    0.398781
     61          6           0       17.931487    0.353789   -0.124434
     62          6           0       18.960962    1.138435    0.709131
     63          6           0       20.403228    1.080711    0.110913
     64          6           0       20.573471    1.763525   -1.248232
     65          6           0       21.333965    1.857242    1.171802
     66          1           0       -4.052195    3.545190    1.632961
     67          1           0      -10.040474    3.989822   -0.477452
     68          1           0      -10.406250   -2.533373   -1.330706
     69          1           0       -2.695292   -1.038078    2.211896
     70          1           0       -2.261376    1.715608    1.147931
     71          1           0       -2.002789    0.925203    3.662463
     72          1           0       -3.270730    2.046716    3.368856
     73          1           0       -3.894819    0.405361    3.702615
     74          1           0       -2.051593   -1.692146   -0.429961
     75          1           0       -2.133610    0.076071   -0.558622
     76          1           0       -0.181660    0.509023    1.065690
     77          1           0       -0.327708   -1.250453    1.228790
     78          1           0       -5.664323    6.879542    0.461369
     79          1           0       -5.320913    6.111043    2.036918
     80          1           0       -4.429930    5.592888    0.547245
     81          1           0       -9.309166    5.940985   -0.390379
     82          1           0       -8.898142    8.058622    0.755372
     83          1           0       -7.412054    7.570576    1.516590
     84          1           0      -12.186855    3.043537   -2.185080
     85          1           0      -13.326782    1.956068   -1.458117
     86          1           0      -12.509227    3.088867   -0.391611
     87          1           0      -12.560729   -1.598848   -0.662771
     88          1           0      -13.496515   -0.261010   -1.545107
     89          1           0      -13.378741   -2.140064   -3.148411
     90          1           0      -12.463704   -0.565167   -3.849325
     91          1           0      -11.213852   -1.901313   -3.136885
     92          1           0       -9.247727   -4.511104   -1.868921
     93          1           0       -8.417957   -5.615934   -0.850759
     94          1           0       -9.712556   -4.721294   -0.328431
     95          1           0       -3.598007   -3.532716   -0.349426
     96          1           0       -1.658862   -4.471166    3.347415
     97          1           0       -2.973063   -5.579461    3.698406
     98          1           0       -1.342831   -5.906304    2.435329
     99          1           0        2.707252   -1.554362   -1.700431
    100          1           0        2.706356    0.156946   -1.967855
    101          1           0        4.440909   -0.751754    0.453355
    102          1           0        4.091049    1.525879   -2.325447
    103          1           0        5.631459    2.176341   -1.907328
    104          1           0        5.571522    0.732604   -2.968704
    105          1           0        6.599443    1.446953    0.244989
    106          1           0        6.414231   -0.281657    0.775673
    107          1           0        7.440506   -0.916097   -1.463596
    108          1           0        8.028781    0.915364   -1.610037
    109          1           0        9.154191    0.942617    0.467860
    110          1           0        8.857075   -0.776957    1.061954
    111          1           0       10.184671    0.126264   -1.774863
    112          1           0        9.152347   -2.105014   -1.466335
    113          1           0       11.011890   -2.117306   -1.938432
    114          1           0       10.384036   -2.468461   -0.460225
    115          1           0       11.476122    0.991837    0.736486
    116          1           0       11.453209   -0.824078    0.875169
    117          1           0       12.993580   -1.233104   -1.078674
    118          1           0       12.818669    0.459811   -1.401118
    119          1           0       13.990843    1.196065    0.367885
    120          1           0       13.859327   -0.415438    1.127205
    121          1           0       15.370494    0.409088   -1.611031
    122          1           0       15.673225   -2.302057    0.063484
    123          1           0       14.801900   -1.876659   -1.628610
    124          1           0       16.490678   -1.821608   -1.359694
    125          1           0       16.179336    1.461734    0.751631
    126          1           0       16.473850   -0.392105    1.228883
    127          1           0       18.357023   -0.543975   -0.352679
    128          1           0       17.832059    0.917445   -1.141977
    129          1           0       18.792572    2.182120    0.979149
    130          1           0       19.011542    0.582916    1.752649
    131          1           0       20.781910    0.046709   -0.033826
    132          1           0       19.980879    2.672381   -1.306666
    133          1           0       21.439544    1.802298   -1.614604
    134          1           0       19.854330    1.196964   -1.984523
    135          1           0       21.171120    1.251759    2.206316
    136          1           0       22.458255    1.711800    0.679530
    137          1           0       20.962913    2.974184    1.207130
 ---------------------------------------------------------------------

 SCF Done:  E(RCAM-B3LYP) =  -2933.47697247     A.U. after   16 cycles

 Excitation energies and oscillator strengths:

 Excited State   1:      Singlet-A      1.9181 eV  646.38 nm  f=0.2309  <S**2>=0.000
     240 -> 243        0.23705
     241 -> 242        0.66165
 This state for optimization and/or second-order correction.
 Total Energy, E(TD-HF/TD-DFT) =  -2933.40648230
 Copying the excited state density for this state as the 1-particle RhoCI density.

 The electronic state is 1-A.
 Alpha  occ. eigenvalues --  -46.79250 -19.22755 -19.21935 -19.17146 -19.16609
 Alpha  occ. eigenvalues --  -19.14768 -14.38001 -14.35538 -14.35152 -14.35100
 Alpha  occ. eigenvalues --  -10.34488 -10.34133 -10.29409 -10.29100 -10.27759
 Alpha  occ. eigenvalues --  -10.26769 -10.26699 -10.25414 -10.25343 -10.25342
 Alpha  occ. eigenvalues --  -10.25129 -10.24948 -10.24876 -10.24821 -10.24801
 Alpha  occ. eigenvalues --  -10.24383 -10.24022 -10.23906 -10.23677 -10.23459
 Alpha  occ. eigenvalues --  -10.23329 -10.23116 -10.23069 -10.23062 -10.22987
 Alpha  occ. eigenvalues --  -10.22897 -10.22896 -10.22849 -10.22797 -10.22660
 Alpha  occ. eigenvalues --  -10.22599 -10.22554 -10.22552 -10.22427 -10.22181
 Alpha  occ. eigenvalues --  -10.22078 -10.22017 -10.22000 -10.21985 -10.21972
 Alpha  occ. eigenvalues --  -10.21953 -10.21698 -10.21602 -10.21397 -10.21382
 Alpha  occ. eigenvalues --  -10.21124 -10.20749 -10.20736 -10.20707 -10.20598
 Alpha  occ. eigenvalues --  -10.20501 -10.19730 -10.19567 -10.19020 -10.18628
 Alpha  occ. eigenvalues --   -3.07991  -1.82914  -1.82473  -1.82412  -1.13747
 Alpha  occ. eigenvalues --   -1.13059  -1.05314  -1.04840  -1.03084  -0.98484
 Alpha  occ. eigenvalues --   -0.97802  -0.97128  -0.95554  -0.87635  -0.87525
 Alpha  occ. eigenvalues --   -0.86548  -0.85730  -0.84671  -0.84190  -0.83755
 Alpha  occ. eigenvalues --   -0.83123  -0.82903  -0.82617  -0.82112  -0.81448
 Alpha  occ. eigenvalues --   -0.80521  -0.79441  -0.78629  -0.78368  -0.77422
 Alpha  occ. eigenvalues --   -0.77116  -0.76524  -0.75686  -0.75371  -0.74542
 Alpha  occ. eigenvalues --   -0.72659  -0.72391  -0.71895  -0.71553  -0.71388
 Alpha  occ. eigenvalues --   -0.70654  -0.70572  -0.69506  -0.68601  -0.68318
 Alpha  occ. eigenvalues --   -0.66814  -0.66320  -0.64942  -0.64313  -0.64158
 Alpha  occ. eigenvalues --   -0.62703  -0.61837  -0.60608  -0.60114  -0.59670
 Alpha  occ. eigenvalues --   -0.59364  -0.59104  -0.58330  -0.57774  -0.57662
 Alpha  occ. eigenvalues --   -0.56776  -0.56474  -0.56088  -0.55656  -0.55074
 Alpha  occ. eigenvalues --   -0.54456  -0.54025  -0.53929  -0.53374  -0.52875
 Alpha  occ. eigenvalues --   -0.51918  -0.51514  -0.51299  -0.51083  -0.50966
 Alpha  occ. eigenvalues --   -0.50613  -0.50413  -0.50132  -0.49903  -0.49766
 Alpha  occ. eigenvalues --   -0.49611  -0.49165  -0.48747  -0.48275  -0.48262
 Alpha  occ. eigenvalues --   -0.47950  -0.47672  -0.47656  -0.47482  -0.46849
 Alpha  occ. eigenvalues --   -0.46663  -0.46509  -0.46317  -0.45970  -0.45833
 Alpha  occ. eigenvalues --   -0.45667  -0.45488  -0.45246  -0.44948  -0.44696
 Alpha  occ. eigenvalues --   -0.44552  -0.44349  -0.44208  -0.44120  -0.44029
 Alpha  occ. eigenvalues --   -0.43768  -0.43370  -0.43134  -0.42847  -0.42773
 Alpha  occ. eigenvalues --   -0.42466  -0.42229  -0.42023  -0.41871  -0.41778
 Alpha  occ. eigenvalues --   -0.41629  -0.41248  -0.41006  -0.40863  -0.40473
 Alpha  occ. eigenvalues --   -0.40409  -0.40344  -0.39920  -0.39872  -0.39547
 Alpha  occ. eigenvalues --   -0.39433  -0.39226  -0.39024  -0.38882  -0.38526
 Alpha  occ. eigenvalues --   -0.38500  -0.38442  -0.38313  -0.38112  -0.38063
 Alpha  occ. eigenvalues --   -0.37937  -0.37766  -0.37631  -0.37514  -0.37248
 Alpha  occ. eigenvalues --   -0.36971  -0.36878  -0.36587  -0.36291  -0.35820
 Alpha  occ. eigenvalues --   -0.35461  -0.35177  -0.34864  -0.34807  -0.34797
 Alpha  occ. eigenvalues --   -0.34688  -0.34117  -0.34091  -0.33737  -0.33571
 Alpha  occ. eigenvalues --   -0.33539  -0.33146  -0.33036  -0.32888  -0.32586
 Alpha  occ. eigenvalues --   -0.32340  -0.32170  -0.31168  -0.31145  -0.30530
 Alpha  occ. eigenvalues --   -0.30416  -0.30051  -0.29621  -0.28066  -0.26696
 Alpha  occ. eigenvalues --   -0.26633  -0.26346  -0.25349  -0.24338  -0.21380
 Alpha  occ. eigenvalues --   -0.19694
 Alpha virt. eigenvalues --   -0.07308  -0.04399  -0.00683   0.01750   0.03238
 Alpha virt. eigenvalues --    0.03828   0.04915   0.05160   0.05329   0.05871
 Alpha virt. eigenvalues --    0.06389   0.08090   0.09344   0.09749   0.09773

 Mulliken charges:
               1
     1  Mg   0.805871
     2  C    0.051869
     3  C   -0.233140
     4  C   -0.169063
     5  C   -0.201562
     6  N   -0.608116
     7  C    0.271235
     8  C   -0.141717
     9  C   -0.123585
    10  C    0.328425
    11  C   -0.289169
    12  C   -0.146926
    13  C   -0.259571
    14  C    0.595973
    15  O   -0.457576
    16  O   -0.462238
    17  N   -0.715627
    18  C    0.318404
    19  C    0.015201
    20  C    0.029909
    21  C    0.316303
    22  C   -0.369185
    23  C   -0.082781
    24  C   -0.252477
    25  N   -0.666459
    26  C    0.293045
    27  C   -0.008073
    28  C    0.057871
    29  C    0.299088
    30  C   -0.369774
    31  C   -0.248565
    32  C   -0.285087
    33  N   -0.722810
    34  C    0.272646
    35  C   -0.011303
    36  C    0.116380
    37  C    0.262870
    38  C   -0.367911
    39  C    0.324748
    40  O   -0.492650
    41  C   -0.296304
    42  C    0.606617
    43  O   -0.455394
    44  O   -0.434208
    45  C   -0.092389
    46  C    0.004650
    47  C   -0.096182
    48  C    0.133404
    49  C   -0.379540
    50  C   -0.222319
    51  C   -0.146235
    52  C   -0.142951
    53  C   -0.062235
    54  C   -0.303200
    55  C   -0.158256
    56  C   -0.178817
    57  C   -0.170956
    58  C   -0.039503
    59  C   -0.300476
    60  C   -0.154072
    61  C   -0.165512
    62  C   -0.160387
    63  C   -0.066022
    64  C   -0.291373
    65  C   -0.282508
    66  H    0.066965
    67  H    0.067930
    68  H    0.088423
    69  H    0.105442
    70  H    0.086928
    71  H    0.099860
    72  H    0.124142
    73  H    0.097770
    74  H    0.115156
    75  H    0.121476
    76  H    0.115968
    77  H    0.143599
    78  H    0.127296
    79  H    0.130024
    80  H    0.112923
    81  H    0.093416
    82  H    0.101452
    83  H    0.104604
    84  H    0.132049
    85  H    0.113341
    86  H    0.128260
    87  H    0.090746
    88  H    0.104761
    89  H    0.063313
    90  H    0.114284
    91  H    0.128236
    92  H    0.109812
    93  H    0.144738
    94  H    0.137440
    95  H    0.164726
    96  H    0.123070
    97  H    0.141063
    98  H    0.111434
    99  H    0.107470
   100  H    0.113860
   101  H    0.076937
   102  H    0.113407
   103  H    0.101163
   104  H    0.139903
   105  H    0.105357
   106  H    0.088556
   107  H    0.058024
   108  H    0.093478
   109  H    0.077504
   110  H    0.041234
   111  H    0.067446
   112  H    0.098401
   113  H    0.095167
   114  H    0.114932
   115  H    0.043405
   116  H    0.103103
   117  H    0.093287
   118  H    0.102141
   119  H    0.079438
   120  H    0.088308
   121  H    0.032984
   122  H    0.077345
   123  H    0.110816
   124  H    0.113699
   125  H    0.080963
   126  H    0.082267
   127  H    0.104391
   128  H    0.074779
   129  H    0.091756
   130  H    0.068365
   131  H    0.083675
   132  H    0.100293
   133  H    0.109781
   134  H    0.076050
   135  H    0.086920
   136  H    0.075317
   137  H    0.097132
 Sum of Mulliken charges =  -0.00000

 Dipole moment (field-independent basis, Debye):
    X=              1.3569    Y=              5.0419    Z=              0.4855  Tot=              5.2438
 Quadrupole moment (field-independent basis, Debye-Ang):
   XX=           -337.3630   YY=           -399.1328   ZZ=           -398.8899
   XY=            -32.9807   XZ=              0.8640   YZ=             -1.3497

 Normal termination of Gaussian 16 at Tue Sep 10 20:43:17 2019.
