 Gaussian 16, Revision A.03,
 Gaussian 16:  ES64L-G16RevA.03 25-Dec-2016

 -------------------------------------
 # td=(NStates=1) CAM-B3LYP/6-31G(d,p)
 -------------------------------------

 --
 TD
 --
 Symbolic Z-matrix:
 Charge =  0 Multiplicity = 1

                         Standard orientation:
 ---------------------------------------------------------------------
 Center     Atomic      Atomic             Coordinates (Angstroms)
 Number     Number       Type             X           Y           Z
 ---------------------------------------------------------------------
      1         12           0       -7.186332    0.642204    0.235237
      2          6           0       -4.774034   -1.968417    0.533412
      3          6           0       -4.855946    2.866836    1.166369
      4          6           0       -9.431822    3.180066   -0.450893
      5          6           0       -9.540161   -1.698617   -0.813362
      6          7           0       -5.115705    0.414316    0.785069
      7          6           0       -4.369137   -0.717126    0.853956
      8          6           0       -2.907107   -0.360982    1.198348
      9          6           0       -3.012738    1.178180    1.622528
     10          6           0       -4.399964    1.544191    1.153915
     11          6           0       -2.822107    1.377872    3.194103
     12          6           0       -1.902054   -0.616437    0.044817
     13          6           0       -0.421195   -0.395419    0.546825
     14          6           0        0.485690   -0.783169   -0.513559
     15          8           0        0.247810   -1.234051   -1.642651
     16          8           0        1.743277   -0.479655   -0.108507
     17          7           0       -7.112430    2.589447    0.330190
     18          6           0       -6.067620    3.419049    0.762585
     19          6           0       -6.472448    4.825454    0.785896
     20          6           0       -7.735404    4.869861    0.323813
     21          6           0       -8.183154    3.476318   -0.006598
     22          6           0       -5.511663    5.917564    1.224248
     23          6           0       -8.625535    6.018718    0.067897
     24          6           0       -8.636582    7.183323    0.778988
     25          7           0       -9.136930    0.607475   -0.520878
     26          6           0       -9.954677    1.812549   -0.656413
     27          6           0      -11.170572    1.311266   -1.266755
     28          6           0      -11.281361    0.031857   -1.241200
     29          6           0       -9.983882   -0.409535   -0.839845
     30          6           0      -12.292339    2.307079   -1.577714
     31          6           0      -12.322568   -0.910780   -1.790642
     32          6           0      -12.170261   -0.870128   -3.366092
     33          7           0       -7.218699   -1.316437   -0.006250
     34          6           0       -8.292829   -2.196002   -0.417663
     35          6           0       -7.843034   -3.604792   -0.319921
     36          6           0       -6.412063   -3.515230   -0.049814
     37          6           0       -6.109447   -2.145472    0.148541
     38          6           0       -8.644214   -4.758804   -0.846712
     39          6           0       -5.221168   -4.393145    0.237209
     40          8           0       -5.166663   -5.561131    0.230085
     41          6           0       -4.158217   -3.329671    0.526779
     42          6           0       -3.545389   -3.718174    1.876848
     43          8           0       -3.836290   -3.188883    2.948349
     44          8           0       -2.591745   -4.699452    1.728948
     45          6           0       -1.934820   -5.178507    2.908571
     46          6           0        2.787622   -0.873940   -1.082415
     47          6           0        4.095513   -0.396551   -0.534032
     48          6           0        5.125049    0.270650   -1.157201
     49          6           0        5.004147    0.812531   -2.486640
     50          6           0        6.421813    0.398376   -0.379363
     51          6           0        7.696385   -0.345593   -0.977894
     52          6           0        8.894077   -0.014755   -0.240243
     53          6           0       10.293489   -0.505787   -0.792051
     54          6           0       10.067377   -2.045442   -1.225406
     55          6           0       11.424091   -0.202865    0.153450
     56          6           0       12.801302   -0.501656   -0.526658
     57          6           0       13.960339   -0.270133    0.415403
     58          6           0       15.263390   -0.350422   -0.444182
     59          6           0       15.700841   -1.691343   -0.940609
     60          6           0       16.308045    0.446583    0.387991
     61          6           0       17.722782    0.743712   -0.271390
     62          6           0       18.830798    1.387382    0.671909
     63          6           0       20.236427    1.380627    0.217815
     64          6           0       20.396843    2.241066   -1.132230
     65          6           0       21.125407    2.146462    1.232439
     66          1           0       -4.119496    3.524994    1.594322
     67          1           0      -10.203041    3.865651   -0.615067
     68          1           0      -10.181241   -2.385518   -1.129070
     69          1           0       -2.664244   -0.924029    2.108743
     70          1           0       -2.116002    1.688370    1.045647
     71          1           0       -1.957060    1.039913    3.628155
     72          1           0       -2.722077    2.500212    3.553380
     73          1           0       -3.576336    0.640507    3.587950
     74          1           0       -1.775324   -1.555689   -0.239811
     75          1           0       -1.929911    0.009355   -0.877227
     76          1           0       -0.352884    0.833598    0.849789
     77          1           0       -0.248382   -1.010919    1.417822
     78          1           0       -5.935060    6.879648    0.866152
     79          1           0       -5.526898    6.061263    2.295288
     80          1           0       -4.430884    5.900600    0.924130
     81          1           0       -9.371054    6.112209   -0.805311
     82          1           0       -9.150529    8.063528    0.459075
     83          1           0       -8.162147    7.486881    1.642208
     84          1           0      -12.052485    2.750553   -2.691806
     85          1           0      -13.339588    1.838352   -1.570318
     86          1           0      -12.414207    3.302717   -0.881648
     87          1           0      -12.167578   -1.972010   -1.259580
     88          1           0      -13.351911   -0.492435   -1.594959
     89          1           0      -12.937685   -1.429063   -3.966675
     90          1           0      -12.313712    0.152267   -3.696289
     91          1           0      -11.359660   -1.305529   -3.758063
     92          1           0       -9.336816   -4.689511   -1.937201
     93          1           0       -7.996811   -5.679591   -0.865322
     94          1           0       -9.402646   -5.086184    0.086458
     95          1           0       -3.383400   -3.633148   -0.304798
     96          1           0       -1.348148   -4.358541    3.275148
     97          1           0       -2.500817   -5.379600    3.685095
     98          1           0       -1.394801   -5.963672    2.528071
     99          1           0        2.828248   -1.892911   -1.158975
    100          1           0        2.643529   -0.325614   -1.996577
    101          1           0        4.328558   -0.851058    0.545517
    102          1           0        4.028976    0.600690   -3.010121
    103          1           0        4.940383    1.817230   -2.303018
    104          1           0        5.809071    0.394592   -3.055923
    105          1           0        6.665382    1.608667   -0.422892
    106          1           0        6.356017   -0.103864    0.603066
    107          1           0        7.364687   -1.282509   -1.026710
    108          1           0        7.919435    0.176446   -1.946840
    109          1           0        9.110823    1.174820   -0.113363
    110          1           0        8.568657   -0.582564    0.722589
    111          1           0       10.454748   -0.139468   -1.789007
    112          1           0        9.263183   -1.886534   -2.062863
    113          1           0       11.047195   -2.465249   -1.768988
    114          1           0        9.737170   -2.657487   -0.318155
    115          1           0       11.370998    0.874004    0.353246
    116          1           0       11.263397   -0.930475    1.037604
    117          1           0       12.741190   -1.651142   -1.019261
    118          1           0       12.881297    0.291198   -1.403866
    119          1           0       13.906430    0.734745    1.007483
    120          1           0       14.013015   -1.048445    1.099557
    121          1           0       14.953796    0.330041   -1.403023
    122          1           0       16.120959   -2.200862    0.070292
    123          1           0       14.903470   -2.158198   -1.178184
    124          1           0       16.657410   -1.779108   -1.729271
    125          1           0       15.978080    1.351649    0.601840
    126          1           0       16.565432   -0.167192    1.435914
    127          1           0       18.044689   -0.242079   -0.819201
    128          1           0       17.502206    1.400063   -1.243828
    129          1           0       18.386283    2.487008    0.858142
    130          1           0       18.790678    0.862900    1.512417
    131          1           0       20.244353    0.317061    0.010505
    132          1           0       20.291091    3.369853   -0.715227
    133          1           0       21.588957    2.291034   -1.436564
    134          1           0       19.780167    1.839155   -2.014592
    135          1           0       21.205980    1.457009    2.099919
    136          1           0       22.084940    2.405147    0.766428
    137          1           0       20.717667    3.059496    1.545139
 ---------------------------------------------------------------------

 SCF Done:  E(RCAM-B3LYP) =  -2932.62039712     A.U. after   18 cycles

 Excitation energies and oscillator strengths:

 Excited State   1:      Singlet-A      2.0524 eV  604.10 nm  f=0.2241  <S**2>=0.000
     240 -> 243       -0.26470
     241 -> 242        0.64282
 This state for optimization and/or second-order correction.
 Total Energy, E(TD-HF/TD-DFT) =  -2932.54497397
 Copying the excited state density for this state as the 1-particle RhoCI density.

 The electronic state is 1-A.
 Alpha  occ. eigenvalues --  -46.82720 -19.26093 -19.25706 -19.21133 -19.20931
 Alpha  occ. eigenvalues --  -19.20824 -14.41468 -14.39976 -14.38907 -14.38780
 Alpha  occ. eigenvalues --  -10.39664 -10.38959 -10.34991 -10.31518 -10.30839
 Alpha  occ. eigenvalues --  -10.30783 -10.30139 -10.30044 -10.29436 -10.29290
 Alpha  occ. eigenvalues --  -10.29239 -10.28956 -10.28875 -10.28804 -10.28786
 Alpha  occ. eigenvalues --  -10.28716 -10.28455 -10.28374 -10.28373 -10.28313
 Alpha  occ. eigenvalues --  -10.28173 -10.27877 -10.27765 -10.27546 -10.27544
 Alpha  occ. eigenvalues --  -10.27491 -10.27354 -10.27300 -10.27105 -10.27012
 Alpha  occ. eigenvalues --  -10.26953 -10.26938 -10.26747 -10.26716 -10.26541
 Alpha  occ. eigenvalues --  -10.26355 -10.26275 -10.26186 -10.26048 -10.25919
 Alpha  occ. eigenvalues --  -10.25914 -10.25835 -10.25779 -10.25691 -10.25679
 Alpha  occ. eigenvalues --  -10.25549 -10.25527 -10.25376 -10.25187 -10.25064
 Alpha  occ. eigenvalues --  -10.24853 -10.24821 -10.24793 -10.24592 -10.24549
 Alpha  occ. eigenvalues --   -3.11986  -1.86670  -1.86228  -1.86190  -1.17084
 Alpha  occ. eigenvalues --   -1.16977  -1.13950  -1.08637  -1.07779  -1.03361
 Alpha  occ. eigenvalues --   -1.02074  -1.01557  -0.99996  -0.92652  -0.91872
 Alpha  occ. eigenvalues --   -0.90539  -0.89786  -0.89375  -0.89137  -0.88773
 Alpha  occ. eigenvalues --   -0.88748  -0.88107  -0.86984  -0.86142  -0.85728
 Alpha  occ. eigenvalues --   -0.84930  -0.84123  -0.83269  -0.82745  -0.82186
 Alpha  occ. eigenvalues --   -0.81811  -0.81586  -0.80344  -0.79955  -0.78145
 Alpha  occ. eigenvalues --   -0.77795  -0.77307  -0.76460  -0.76056  -0.75915
 Alpha  occ. eigenvalues --   -0.74674  -0.74131  -0.73366  -0.72749  -0.71734
 Alpha  occ. eigenvalues --   -0.71197  -0.70544  -0.70031  -0.68604  -0.68302
 Alpha  occ. eigenvalues --   -0.67085  -0.66163  -0.65178  -0.64920  -0.64182
 Alpha  occ. eigenvalues --   -0.63563  -0.62437  -0.62308  -0.62247  -0.61920
 Alpha  occ. eigenvalues --   -0.61210  -0.60545  -0.59968  -0.59217  -0.58763
 Alpha  occ. eigenvalues --   -0.58352  -0.57950  -0.57825  -0.57398  -0.57059
 Alpha  occ. eigenvalues --   -0.56375  -0.55725  -0.55357  -0.54919  -0.54558
 Alpha  occ. eigenvalues --   -0.54438  -0.54175  -0.53632  -0.53361  -0.53038
 Alpha  occ. eigenvalues --   -0.52886  -0.52735  -0.52619  -0.52323  -0.51708
 Alpha  occ. eigenvalues --   -0.51372  -0.51258  -0.50928  -0.50904  -0.50546
 Alpha  occ. eigenvalues --   -0.50280  -0.50114  -0.49847  -0.49709  -0.49540
 Alpha  occ. eigenvalues --   -0.49347  -0.49096  -0.48735  -0.48618  -0.48455
 Alpha  occ. eigenvalues --   -0.48118  -0.47531  -0.47405  -0.47266  -0.46936
 Alpha  occ. eigenvalues --   -0.46712  -0.46572  -0.46236  -0.45926  -0.45785
 Alpha  occ. eigenvalues --   -0.45413  -0.45159  -0.45048  -0.45017  -0.44703
 Alpha  occ. eigenvalues --   -0.44540  -0.44284  -0.44273  -0.43752  -0.43689
 Alpha  occ. eigenvalues --   -0.43671  -0.43416  -0.43160  -0.43030  -0.42933
 Alpha  occ. eigenvalues --   -0.42926  -0.42606  -0.42499  -0.42450  -0.42377
 Alpha  occ. eigenvalues --   -0.41859  -0.41775  -0.41546  -0.41499  -0.40927
 Alpha  occ. eigenvalues --   -0.40821  -0.40677  -0.40620  -0.40541  -0.40492
 Alpha  occ. eigenvalues --   -0.40137  -0.40016  -0.39401  -0.39115  -0.39087
 Alpha  occ. eigenvalues --   -0.38715  -0.38528  -0.38218  -0.38191  -0.37560
 Alpha  occ. eigenvalues --   -0.37400  -0.37368  -0.37078  -0.36562  -0.36153
 Alpha  occ. eigenvalues --   -0.36120  -0.35950  -0.35744  -0.35446  -0.35387
 Alpha  occ. eigenvalues --   -0.35335  -0.34876  -0.34700  -0.33911  -0.33735
 Alpha  occ. eigenvalues --   -0.33409  -0.32934  -0.32273  -0.30732  -0.29877
 Alpha  occ. eigenvalues --   -0.28989  -0.28812  -0.28391  -0.27797  -0.23327
 Alpha  occ. eigenvalues --   -0.20946
 Alpha virt. eigenvalues --   -0.06075  -0.03374   0.02013   0.03913   0.04800
 Alpha virt. eigenvalues --    0.05887   0.06040   0.06487   0.07314   0.07744
 Alpha virt. eigenvalues --    0.08642   0.10670   0.10776   0.10901   0.11652

 Mulliken charges:
               1
     1  Mg   0.814068
     2  C    0.124034
     3  C   -0.216785
     4  C   -0.164687
     5  C   -0.150790
     6  N   -0.649232
     7  C    0.295424
     8  C   -0.170202
     9  C   -0.161208
    10  C    0.365892
    11  C   -0.314093
    12  C   -0.166689
    13  C   -0.276270
    14  C    0.627414
    15  O   -0.498354
    16  O   -0.490264
    17  N   -0.737005
    18  C    0.323520
    19  C    0.055099
    20  C    0.013302
    21  C    0.329825
    22  C   -0.383558
    23  C   -0.110880
    24  C   -0.237332
    25  N   -0.673715
    26  C    0.223169
    27  C    0.020556
    28  C    0.072511
    29  C    0.324405
    30  C   -0.371595
    31  C   -0.238059
    32  C   -0.311542
    33  N   -0.727715
    34  C    0.253514
    35  C    0.037714
    36  C   -0.063578
    37  C    0.309768
    38  C   -0.368139
    39  C    0.392952
    40  O   -0.420757
    41  C   -0.346316
    42  C    0.630661
    43  O   -0.484996
    44  O   -0.473660
    45  C   -0.071711
    46  C    0.038940
    47  C   -0.160085
    48  C    0.124298
    49  C   -0.363950
    50  C   -0.219334
    51  C   -0.181107
    52  C   -0.141209
    53  C   -0.074257
    54  C   -0.310675
    55  C   -0.151133
    56  C   -0.175213
    57  C   -0.166495
    58  C   -0.054085
    59  C   -0.273544
    60  C   -0.149028
    61  C   -0.204431
    62  C   -0.139110
    63  C   -0.055747
    64  C   -0.292450
    65  C   -0.316076
    66  H    0.077483
    67  H    0.092886
    68  H    0.063955
    69  H    0.121596
    70  H    0.088801
    71  H    0.123627
    72  H    0.098487
    73  H    0.126512
    74  H    0.132085
    75  H    0.123544
    76  H    0.114424
    77  H    0.144100
    78  H    0.119103
    79  H    0.131657
    80  H    0.123117
    81  H    0.109814
    82  H    0.100462
    83  H    0.107432
    84  H    0.096792
    85  H    0.106902
    86  H    0.098519
    87  H    0.096901
    88  H    0.105943
    89  H    0.088796
    90  H    0.117069
    91  H    0.127057
    92  H    0.102809
    93  H    0.146579
    94  H    0.098540
    95  H    0.167544
    96  H    0.114616
    97  H    0.142497
    98  H    0.132185
    99  H    0.137843
   100  H    0.119055
   101  H    0.066840
   102  H    0.108266
   103  H    0.136747
   104  H    0.128597
   105  H    0.071105
   106  H    0.102522
   107  H    0.120243
   108  H    0.082307
   109  H    0.072127
   110  H    0.068029
   111  H    0.089419
   112  H    0.101360
   113  H    0.083244
   114  H    0.097316
   115  H    0.095122
   116  H    0.086172
   117  H    0.074200
   118  H    0.079464
   119  H    0.093199
   120  H    0.106345
   121  H    0.055494
   122  H    0.073176
   123  H    0.111403
   124  H    0.094988
   125  H    0.106011
   126  H    0.050325
   127  H    0.066611
   128  H    0.071863
   129  H    0.061455
   130  H    0.102527
   131  H    0.094560
   132  H    0.084587
   133  H    0.069651
   134  H    0.104405
   135  H    0.099031
   136  H    0.103987
   137  H    0.118562
 Sum of Mulliken charges =  -0.00000

 Dipole moment (field-independent basis, Debye):
    X=              2.1151    Y=              4.5958    Z=              0.6629  Tot=              5.1024
 Quadrupole moment (field-independent basis, Debye-Ang):
   XX=           -371.7802   YY=           -384.7955   ZZ=           -396.4160
   XY=            -30.5285   XZ=             16.2450   YZ=              0.4302

 Normal termination of Gaussian 16 at Thu Jun 27 14:31:43 2019.
