 Gaussian 09, Revision D.01,
 Gaussian 09:  ES64L-G09RevD.01 24-Apr-2013

 -------------------------------------
 # td=(NStates=1) CAM-B3LYP/6-31G(d,p)
 -------------------------------------

 --
 TD
 --
 Symbolic Z-matrix:
 Charge =  0 Multiplicity = 1

                         Standard orientation:
 ---------------------------------------------------------------------
 Center     Atomic      Atomic             Coordinates (Angstroms)
 Number     Number       Type             X           Y           Z
 ---------------------------------------------------------------------
      1         12           0       -7.074052    0.628651    0.022008
      2          6           0       -4.923611   -2.013717    0.517539
      3          6           0       -4.774669    2.784412    1.183250
      4          6           0       -9.324008    3.089186   -0.416699
      5          6           0       -9.448160   -1.727553   -1.025388
      6          7           0       -5.158708    0.420777    0.785177
      7          6           0       -4.338045   -0.691040    0.783805
      8          6           0       -2.932571   -0.439784    1.187184
      9          6           0       -3.105937    1.042842    1.767336
     10          6           0       -4.438235    1.464534    1.205638
     11          6           0       -3.072135    1.210576    3.289121
     12          6           0       -2.012452   -0.590867   -0.010087
     13          6           0       -0.533136   -0.528813    0.518417
     14          6           0        0.463599   -0.673452   -0.545444
     15          8           0        0.243667   -1.031100   -1.652428
     16          8           0        1.773944   -0.406143   -0.022991
     17          7           0       -7.061600    2.612142    0.301441
     18          6           0       -6.028413    3.412456    0.732615
     19          6           0       -6.379514    4.766708    0.777280
     20          6           0       -7.659710    4.835660    0.411062
     21          6           0       -8.053086    3.478578    0.095361
     22          6           0       -5.366864    5.814564    1.122678
     23          6           0       -8.598624    5.969372    0.117898
     24          6           0       -8.524203    7.141513    0.789697
     25          7           0       -9.058316    0.665068   -0.533628
     26          6           0       -9.778426    1.854829   -0.668404
     27          6           0      -11.182060    1.531972   -1.121946
     28          6           0      -11.197634    0.215399   -1.277359
     29          6           0       -9.881113   -0.292373   -0.895503
     30          6           0      -12.299275    2.578109   -1.341630
     31          6           0      -12.413097   -0.589692   -1.836976
     32          6           0      -12.217668   -1.007327   -3.444031
     33          7           0       -7.162254   -1.329066   -0.254036
     34          6           0       -8.265945   -2.251303   -0.627502
     35          6           0       -7.825530   -3.673216   -0.583012
     36          6           0       -6.558115   -3.560158   -0.078260
     37          6           0       -6.202693   -2.229336    0.034136
     38          6           0       -8.783371   -4.712769   -0.843848
     39          6           0       -5.388297   -4.371619    0.184424
     40          8           0       -5.160585   -5.534329    0.116349
     41          6           0       -4.199063   -3.336898    0.512415
     42          6           0       -3.669671   -3.798477    1.847511
     43          8           0       -3.747470   -3.076753    2.895461
     44          8           0       -2.965198   -4.945904    1.744819
     45          6           0       -2.258348   -5.309400    2.944863
     46          6           0        2.796827   -0.664728   -1.142671
     47          6           0        4.185726   -0.501644   -0.495639
     48          6           0        5.135261    0.352015   -0.802121
     49          6           0        5.144219    1.250198   -1.974963
     50          6           0        6.352295    0.363711    0.063997
     51          6           0        7.610230   -0.192019   -0.748953
     52          6           0        8.952769   -0.150368    0.010490
     53          6           0       10.204681   -0.674430   -0.744652
     54          6           0       10.123126   -2.136944   -1.098758
     55          6           0       11.490635   -0.301490   -0.033228
     56          6           0       12.756595   -0.410498   -0.700626
     57          6           0       13.970157    0.007044    0.169291
     58          6           0       15.409668   -0.052848   -0.647107
     59          6           0       15.704631   -1.522636   -1.090424
     60          6           0       16.413516    0.590428    0.305116
     61          6           0       17.885906    0.611234   -0.331735
     62          6           0       18.851008    1.337095    0.573699
     63          6           0       20.228911    1.373649    0.125809
     64          6           0       20.540936    2.150745   -1.111935
     65          6           0       21.221874    1.714307    1.313880
     66          1           0       -3.833823    3.429920    1.482562
     67          1           0      -10.137071    3.928829   -0.644749
     68          1           0      -10.356498   -2.485445   -1.207062
     69          1           0       -2.606845   -1.152530    2.034791
     70          1           0       -2.281766    1.632946    1.378199
     71          1           0       -2.202117    0.977113    3.853970
     72          1           0       -3.175393    2.153358    3.747965
     73          1           0       -3.783449    0.442913    3.716704
     74          1           0       -2.125373   -1.622062   -0.307679
     75          1           0       -2.112850    0.218472   -0.903880
     76          1           0       -0.148868    0.376977    0.902517
     77          1           0       -0.443269   -1.412909    1.385011
     78          1           0       -5.787952    6.673997    0.331265
     79          1           0       -5.598347    6.243998    2.174758
     80          1           0       -4.225260    5.616968    1.147790
     81          1           0       -9.651765    5.785589   -0.336788
     82          1           0       -9.123427    7.892575    0.764379
     83          1           0       -7.633576    7.365183    1.584758
     84          1           0      -12.204208    2.998657   -2.240391
     85          1           0      -13.357135    2.076310   -1.673994
     86          1           0      -12.394830    3.409751   -0.450542
     87          1           0      -12.481413   -1.467979   -1.154744
     88          1           0      -13.273030    0.084508   -1.720433
     89          1           0      -13.454982   -1.305733   -3.390017
     90          1           0      -12.066289   -0.085813   -4.109524
     91          1           0      -11.495108   -1.735906   -3.785057
     92          1           0       -9.071399   -4.702018   -1.951656
     93          1           0       -8.231327   -5.740320   -0.904837
     94          1           0       -9.685993   -4.591747   -0.180089
     95          1           0       -3.336998   -3.469011   -0.219241
     96          1           0       -1.685512   -4.463562    3.469826
     97          1           0       -2.982605   -5.686602    3.826212
     98          1           0       -1.834750   -6.346673    2.553527
     99          1           0        2.801832   -1.604309   -1.505080
    100          1           0        2.569773    0.006896   -1.920495
    101          1           0        4.288564   -1.100074    0.457241
    102          1           0        4.122207    1.342022   -2.530323
    103          1           0        5.629228    2.109492   -1.651593
    104          1           0        5.906324    0.916053   -2.741273
    105          1           0        6.460362    1.361129    0.517857
    106          1           0        6.242150   -0.285805    0.948771
    107          1           0        7.267179   -1.371026   -0.964056
    108          1           0        7.815182    0.240029   -1.848082
    109          1           0        9.106953    0.804522    0.280602
    110          1           0        8.646041   -0.573067    0.995905
    111          1           0       10.106918   -0.105056   -1.573297
    112          1           0        9.227881   -2.543076   -1.718935
    113          1           0       10.929450   -2.572993   -1.876970
    114          1           0       10.315002   -2.691127   -0.241909
    115          1           0       11.222728    0.645639    0.391901
    116          1           0       11.429748   -0.929564    0.760922
    117          1           0       12.886235   -1.386209   -0.942256
    118          1           0       12.602253    0.054316   -1.747926
    119          1           0       13.983906    1.027694    0.529820
    120          1           0       13.782396   -0.682837    1.028834
    121          1           0       15.234938    0.717089   -1.577653
    122          1           0       15.917308   -2.147225   -0.303896
    123          1           0       15.081224   -2.066341   -1.702588
    124          1           0       16.617556   -1.511620   -1.919066
    125          1           0       16.113563    1.634175    0.530902
    126          1           0       16.541895   -0.031732    1.102888
    127          1           0       18.276826   -0.461886   -0.410153
    128          1           0       17.705472    1.099056   -1.268323
    129          1           0       18.454786    2.321241    0.759346
    130          1           0       18.848388    0.830816    1.607096
    131          1           0       20.683347    0.235759    0.053032
    132          1           0       20.273889    3.285670   -0.674861
    133          1           0       21.499934    1.979663   -1.679200
    134          1           0       19.788689    1.864900   -1.897708
    135          1           0       21.226580    0.928177    2.238773
    136          1           0       22.241350    1.675537    0.968738
    137          1           0       20.901735    2.557437    1.669344
 ---------------------------------------------------------------------

 SCF Done:  E(RCAM-B3LYP) =  -2932.62650847     A.U. after   18 cycles

 Excitation energies and oscillator strengths:

 Excited State   1:      Singlet-A      2.0312 eV  610.39 nm  f=0.2786  <S**2>=0.000
     240 -> 242       -0.10894
     240 -> 243       -0.20828
     241 -> 242        0.65340
     241 -> 243       -0.10662
 This state for optimization and/or second-order correction.
 Total Energy, E(TD-HF/TD-KS) =  -2932.55186227
 Copying the excited state density for this state as the 1-particle RhoCI density.

 The electronic state is 1-A.
 Alpha  occ. eigenvalues --  -46.83464 -19.27593 -19.24989 -19.21663 -19.21501
 Alpha  occ. eigenvalues --  -19.20730 -14.41496 -14.39819 -14.39280 -14.38867
 Alpha  occ. eigenvalues --  -10.39602 -10.38640 -10.35671 -10.33657 -10.31657
 Alpha  occ. eigenvalues --  -10.30416 -10.30000 -10.29925 -10.29761 -10.28818
 Alpha  occ. eigenvalues --  -10.28814 -10.28616 -10.28352 -10.28343 -10.28293
 Alpha  occ. eigenvalues --  -10.28261 -10.28193 -10.28187 -10.28092 -10.28069
 Alpha  occ. eigenvalues --  -10.28068 -10.28055 -10.28015 -10.27842 -10.27836
 Alpha  occ. eigenvalues --  -10.27720 -10.27681 -10.27410 -10.27161 -10.26591
 Alpha  occ. eigenvalues --  -10.26535 -10.26467 -10.26417 -10.26336 -10.26333
 Alpha  occ. eigenvalues --  -10.26199 -10.26047 -10.25931 -10.25790 -10.25567
 Alpha  occ. eigenvalues --  -10.25478 -10.25435 -10.25323 -10.25181 -10.25152
 Alpha  occ. eigenvalues --  -10.24917 -10.24830 -10.24802 -10.24574 -10.24552
 Alpha  occ. eigenvalues --  -10.24459 -10.24432 -10.23850 -10.23786 -10.22722
 Alpha  occ. eigenvalues --   -3.12742  -1.87426  -1.86991  -1.86943  -1.17871
 Alpha  occ. eigenvalues --   -1.16507  -1.13655  -1.07780  -1.06930  -1.04667
 Alpha  occ. eigenvalues --   -1.03934  -1.03554  -1.02629  -0.92372  -0.91669
 Alpha  occ. eigenvalues --   -0.90848  -0.90275  -0.89930  -0.89267  -0.88453
 Alpha  occ. eigenvalues --   -0.87891  -0.87798  -0.87656  -0.86580  -0.85493
 Alpha  occ. eigenvalues --   -0.84967  -0.84036  -0.83264  -0.82376  -0.81495
 Alpha  occ. eigenvalues --   -0.81019  -0.80731  -0.80193  -0.79978  -0.78952
 Alpha  occ. eigenvalues --   -0.77341  -0.76833  -0.76638  -0.76055  -0.75535
 Alpha  occ. eigenvalues --   -0.75164  -0.74836  -0.74613  -0.73224  -0.72165
 Alpha  occ. eigenvalues --   -0.71683  -0.70556  -0.69588  -0.69416  -0.68054
 Alpha  occ. eigenvalues --   -0.66443  -0.66374  -0.64844  -0.64742  -0.64488
 Alpha  occ. eigenvalues --   -0.64171  -0.63513  -0.62547  -0.61268  -0.61141
 Alpha  occ. eigenvalues --   -0.60906  -0.60209  -0.59741  -0.59172  -0.58729
 Alpha  occ. eigenvalues --   -0.58354  -0.57819  -0.57269  -0.56981  -0.56459
 Alpha  occ. eigenvalues --   -0.55538  -0.55400  -0.55257  -0.54915  -0.54779
 Alpha  occ. eigenvalues --   -0.54414  -0.54008  -0.53731  -0.53482  -0.53019
 Alpha  occ. eigenvalues --   -0.52851  -0.52366  -0.52112  -0.51789  -0.51665
 Alpha  occ. eigenvalues --   -0.51407  -0.51098  -0.50616  -0.50469  -0.50363
 Alpha  occ. eigenvalues --   -0.50140  -0.49900  -0.49745  -0.49648  -0.49053
 Alpha  occ. eigenvalues --   -0.48960  -0.48783  -0.48725  -0.48230  -0.48088
 Alpha  occ. eigenvalues --   -0.47845  -0.47589  -0.47419  -0.47122  -0.47011
 Alpha  occ. eigenvalues --   -0.46713  -0.46457  -0.46354  -0.46078  -0.45881
 Alpha  occ. eigenvalues --   -0.45661  -0.45269  -0.45197  -0.45146  -0.44698
 Alpha  occ. eigenvalues --   -0.44501  -0.44320  -0.44275  -0.44070  -0.43860
 Alpha  occ. eigenvalues --   -0.43777  -0.43694  -0.43373  -0.43072  -0.42925
 Alpha  occ. eigenvalues --   -0.42750  -0.42588  -0.42426  -0.42359  -0.42028
 Alpha  occ. eigenvalues --   -0.41920  -0.41801  -0.41599  -0.41363  -0.41345
 Alpha  occ. eigenvalues --   -0.41068  -0.41011  -0.40885  -0.40734  -0.40177
 Alpha  occ. eigenvalues --   -0.40015  -0.39934  -0.39718  -0.39181  -0.38987
 Alpha  occ. eigenvalues --   -0.38806  -0.38590  -0.38055  -0.37867  -0.37622
 Alpha  occ. eigenvalues --   -0.37283  -0.37222  -0.36826  -0.36776  -0.36637
 Alpha  occ. eigenvalues --   -0.36415  -0.36207  -0.36061  -0.36039  -0.35980
 Alpha  occ. eigenvalues --   -0.35515  -0.35215  -0.34219  -0.33713  -0.33540
 Alpha  occ. eigenvalues --   -0.33293  -0.32246  -0.32175  -0.31345  -0.30296
 Alpha  occ. eigenvalues --   -0.29751  -0.29701  -0.29170  -0.27255  -0.22991
 Alpha  occ. eigenvalues --   -0.20257
 Alpha virt. eigenvalues --   -0.06164  -0.02589   0.01512   0.04425   0.05181
 Alpha virt. eigenvalues --    0.05660   0.06168   0.07187   0.07362   0.08030
 Alpha virt. eigenvalues --    0.08597   0.10108   0.10910   0.11463   0.12016

 Mulliken charges:
               1
     1  Mg   0.811229
     2  C    0.064134
     3  C   -0.199404
     4  C   -0.174985
     5  C   -0.221393
     6  N   -0.632320
     7  C    0.292850
     8  C   -0.169013
     9  C   -0.146721
    10  C    0.363368
    11  C   -0.318940
    12  C   -0.161510
    13  C   -0.261205
    14  C    0.613574
    15  O   -0.448238
    16  O   -0.534346
    17  N   -0.690452
    18  C    0.259479
    19  C    0.048583
    20  C    0.023581
    21  C    0.278909
    22  C   -0.367621
    23  C   -0.086466
    24  C   -0.225739
    25  N   -0.661747
    26  C    0.266499
    27  C    0.062872
    28  C   -0.012097
    29  C    0.286640
    30  C   -0.370347
    31  C   -0.235377
    32  C   -0.297029
    33  N   -0.718854
    34  C    0.258268
    35  C    0.092887
    36  C    0.030808
    37  C    0.332050
    38  C   -0.404829
    39  C    0.349095
    40  O   -0.424835
    41  C   -0.362247
    42  C    0.624456
    43  O   -0.505061
    44  O   -0.426506
    45  C   -0.090883
    46  C    0.023547
    47  C   -0.170601
    48  C    0.162693
    49  C   -0.360460
    50  C   -0.242060
    51  C   -0.171708
    52  C   -0.180550
    53  C   -0.058525
    54  C   -0.310139
    55  C   -0.169852
    56  C   -0.170941
    57  C   -0.176465
    58  C   -0.055681
    59  C   -0.313635
    60  C   -0.174664
    61  C   -0.185786
    62  C   -0.154697
    63  C   -0.052048
    64  C   -0.287582
    65  C   -0.299534
    66  H    0.072646
    67  H    0.085000
    68  H    0.079673
    69  H    0.138896
    70  H    0.097887
    71  H    0.105321
    72  H    0.117450
    73  H    0.119676
    74  H    0.127089
    75  H    0.115458
    76  H    0.143240
    77  H    0.121343
    78  H    0.101754
    79  H    0.112281
    80  H    0.115598
    81  H    0.091773
    82  H    0.100715
    83  H    0.082514
    84  H    0.147842
    85  H    0.088736
    86  H    0.112693
    87  H    0.109188
    88  H    0.109471
    89  H    0.081698
    90  H    0.108482
    91  H    0.126615
    92  H    0.132396
    93  H    0.137174
    94  H    0.145254
    95  H    0.160490
    96  H    0.141805
    97  H    0.113344
    98  H    0.126973
    99  H    0.138707
   100  H    0.120206
   101  H    0.087140
   102  H    0.105851
   103  H    0.121380
   104  H    0.119080
   105  H    0.099319
   106  H    0.107025
   107  H    0.073682
   108  H    0.072274
   109  H    0.103185
   110  H    0.078798
   111  H    0.090986
   112  H    0.097247
   113  H    0.073485
   114  H    0.111516
   115  H    0.083614
   116  H    0.091571
   117  H    0.107567
   118  H    0.067016
   119  H    0.088796
   120  H    0.085804
   121  H    0.065724
   122  H    0.114388
   123  H    0.119560
   124  H    0.069499
   125  H    0.093532
   126  H    0.104940
   127  H    0.092878
   128  H    0.096603
   129  H    0.084182
   130  H    0.084488
   131  H    0.052072
   132  H    0.069708
   133  H    0.109145
   134  H    0.103245
   135  H    0.070137
   136  H    0.103910
   137  H    0.108836
 Sum of Mulliken charges =   0.00000

 Dipole moment (field-independent basis, Debye):
    X=              0.7145    Y=              1.4594    Z=             -0.3789  Tot=              1.6685
 Quadrupole moment (field-independent basis, Debye-Ang):
   XX=           -343.4844   YY=           -392.9456   ZZ=           -396.7010
   XY=             -9.6346   XZ=             15.4293   YZ=             -1.4544

 Normal termination of Gaussian 09 at Fri Jul  5 00:08:46 2019.
