 Gaussian 09, Revision D.01,
 Gaussian 09:  ES64L-G09RevD.01 24-Apr-2013

 -------------------------------------
 # td=(NStates=1) CAM-B3LYP/6-31G(d,p)
 -------------------------------------

 --
 TD
 --
 Symbolic Z-matrix:
 Charge =  0 Multiplicity = 1

                         Standard orientation:
 ---------------------------------------------------------------------
 Center     Atomic      Atomic             Coordinates (Angstroms)
 Number     Number       Type             X           Y           Z
 ---------------------------------------------------------------------
      1         12           0       -7.086781    0.633318    0.056417
      2          6           0       -4.881079   -1.972692    0.531784
      3          6           0       -4.852179    2.903288    1.131322
      4          6           0       -9.417503    3.050393   -0.477144
      5          6           0       -9.511732   -1.757601   -0.840704
      6          7           0       -5.024397    0.499360    0.677373
      7          6           0       -4.308019   -0.712631    0.802853
      8          6           0       -2.897545   -0.435337    1.283172
      9          6           0       -3.065223    1.061828    1.686946
     10          6           0       -4.350402    1.560143    1.050775
     11          6           0       -3.021852    1.115068    3.220837
     12          6           0       -2.017284   -0.578054    0.127500
     13          6           0       -0.530579   -0.335785    0.434760
     14          6           0        0.490979   -0.638977   -0.662411
     15          8           0        0.233099   -0.994134   -1.770643
     16          8           0        1.733270   -0.356069   -0.255723
     17          7           0       -7.087651    2.604877    0.279104
     18          6           0       -6.086057    3.349077    0.791642
     19          6           0       -6.485626    4.693288    0.840855
     20          6           0       -7.829800    4.807442    0.324543
     21          6           0       -8.191632    3.448837    0.010012
     22          6           0       -5.707683    5.865445    1.281614
     23          6           0       -8.642567    5.990531    0.167356
     24          6           0       -8.555887    7.117361    0.940897
     25          7           0       -9.094788    0.613555   -0.631486
     26          6           0       -9.848314    1.783562   -0.813710
     27          6           0      -11.070882    1.359667   -1.177233
     28          6           0      -11.194801   -0.012617   -1.334993
     29          6           0       -9.857797   -0.423329   -0.988391
     30          6           0      -12.203776    2.348423   -1.416841
     31          6           0      -12.332062   -0.837791   -1.812673
     32          6           0      -12.205808   -1.051939   -3.381169
     33          7           0       -7.164763   -1.360490   -0.051626
     34          6           0       -8.193025   -2.228376   -0.498471
     35          6           0       -7.780641   -3.576821   -0.546571
     36          6           0       -6.500864   -3.625260   -0.055721
     37          6           0       -6.110423   -2.211574    0.112080
     38          6           0       -8.543149   -4.895740   -0.840885
     39          6           0       -5.262965   -4.416216    0.351623
     40          8           0       -5.068102   -5.593163    0.338112
     41          6           0       -4.209452   -3.264784    0.584070
     42          6           0       -3.573715   -3.557823    1.885009
     43          8           0       -3.723446   -2.974914    2.971638
     44          8           0       -2.702951   -4.584609    1.876023
     45          6           0       -2.160402   -4.974934    3.214161
     46          6           0        2.796796   -0.657973   -1.209450
     47          6           0        4.121501   -0.331041   -0.691174
     48          6           0        5.070922    0.437802   -1.058568
     49          6           0        5.090456    1.236743   -2.260438
     50          6           0        6.439765    0.384610   -0.262328
     51          6           0        7.599811   -0.191646   -0.981017
     52          6           0        8.843862   -0.184316   -0.093208
     53          6           0       10.185123   -0.571108   -0.889786
     54          6           0       10.125943   -2.087997   -1.359741
     55          6           0       11.393744   -0.318392    0.038701
     56          6           0       12.792656   -0.570455   -0.725181
     57          6           0       13.910269   -0.124124    0.289839
     58          6           0       15.262603   -0.153636   -0.454441
     59          6           0       15.696655   -1.533462   -0.901837
     60          6           0       16.381993    0.450691    0.439215
     61          6           0       17.792138    0.611339   -0.254298
     62          6           0       18.816033    1.354994    0.622877
     63          6           0       20.258855    1.316442    0.179822
     64          6           0       20.433542    2.109124   -1.086731
     65          6           0       21.154238    1.930716    1.360880
     66          1           0       -4.116535    3.581945    1.685456
     67          1           0      -10.148015    3.839386   -0.533968
     68          1           0      -10.333581   -2.506001   -1.095792
     69          1           0       -2.443240   -0.977192    2.094525
     70          1           0       -2.143336    1.735676    1.445314
     71          1           0       -2.005100    0.850062    3.637074
     72          1           0       -3.321964    2.074032    3.486993
     73          1           0       -3.744112    0.351433    3.688032
     74          1           0       -2.166100   -1.641198   -0.103589
     75          1           0       -2.271331    0.158084   -0.804109
     76          1           0       -0.458240    0.775507    0.784177
     77          1           0       -0.253355   -1.154220    1.351886
     78          1           0       -5.939462    6.670930    0.364679
     79          1           0       -5.694545    6.292507    2.298986
     80          1           0       -4.613525    5.543549    1.218493
     81          1           0       -9.514326    5.925092   -0.453849
     82          1           0       -9.407445    7.907308    0.909201
     83          1           0       -7.840824    7.168148    1.639211
     84          1           0      -11.863472    3.079756   -2.108902
     85          1           0      -13.101655    1.931061   -1.767216
     86          1           0      -12.299285    2.878205   -0.438301
     87          1           0      -12.298807   -2.016825   -1.456925
     88          1           0      -13.316804   -0.326638   -1.592276
     89          1           0      -12.987857   -1.591746   -3.891281
     90          1           0      -12.322333   -0.147600   -4.061413
     91          1           0      -11.177040   -1.501693   -3.504493
     92          1           0       -8.715440   -5.245359   -1.885374
     93          1           0       -7.959124   -5.832689   -0.458922
     94          1           0       -9.716081   -4.975860   -0.354111
     95          1           0       -3.495364   -3.588525   -0.214955
     96          1           0       -1.469581   -4.160813    3.632611
     97          1           0       -2.778332   -4.990528    4.029947
     98          1           0       -1.672921   -5.874750    3.000971
     99          1           0        2.484627   -1.745086   -1.370913
    100          1           0        2.702456   -0.106320   -2.364148
    101          1           0        4.371051   -0.864436    0.286650
    102          1           0        3.937611    1.457858   -2.582534
    103          1           0        5.745529    2.142628   -2.022327
    104          1           0        5.514642    0.726227   -3.236486
    105          1           0        6.503493    1.433515   -0.006058
    106          1           0        6.364081   -0.057289    0.737828
    107          1           0        7.304637   -1.210359   -1.325462
    108          1           0        7.869514    0.311312   -1.862516
    109          1           0        9.001660    0.823626    0.184619
    110          1           0        8.653527   -0.972883    0.823419
    111          1           0       10.485535    0.184576   -1.666933
    112          1           0        9.250024   -2.292489   -2.105411
    113          1           0       11.078971   -2.274747   -1.874003
    114          1           0       10.155471   -2.694287   -0.516973
    115          1           0       11.307225    0.668572    0.537422
    116          1           0       11.312027   -1.126061    0.862631
    117          1           0       12.946222   -1.679965   -0.863419
    118          1           0       12.791379   -0.081801   -1.650313
    119          1           0       13.739491    0.844894    0.674444
    120          1           0       14.050230   -0.548924    1.315661
    121          1           0       15.173667    0.458622   -1.264897
    122          1           0       15.861227   -2.162975    0.087550
    123          1           0       15.155898   -2.114069   -1.500030
    124          1           0       16.886547   -1.499141   -1.361099
    125          1           0       15.780205    1.410405    0.781285
    126          1           0       16.404220   -0.414799    1.398197
    127          1           0       18.170868   -0.502747   -0.272113
    128          1           0       17.867503    0.955204   -1.136637
    129          1           0       18.320727    2.283532    0.769007
    130          1           0       18.812148    0.897986    1.667376
    131          1           0       20.510509    0.256245   -0.071068
    132          1           0       19.886808    3.058815   -0.941188
    133          1           0       21.436006    2.225463   -1.223123
    134          1           0       20.149730    1.447708   -2.086085
    135          1           0       21.064588    1.275653    2.345850
    136          1           0       22.161329    1.930675    1.037373
    137          1           0       20.702399    2.919687    1.606345
 ---------------------------------------------------------------------

 SCF Done:  E(RCAM-B3LYP) =  -2932.70809816     A.U. after   18 cycles

 Excitation energies and oscillator strengths:

 Excited State   1:      Singlet-A      2.0685 eV  599.38 nm  f=0.1898  <S**2>=0.000
     240 -> 243       -0.30082
     241 -> 242        0.63638
 This state for optimization and/or second-order correction.
 Total Energy, E(TD-HF/TD-KS) =  -2932.63208122
 Copying the excited state density for this state as the 1-particle RhoCI density.

 The electronic state is 1-A.
 Alpha  occ. eigenvalues --  -46.83812 -19.26081 -19.25866 -19.21949 -19.20541
 Alpha  occ. eigenvalues --  -19.19913 -14.42255 -14.39781 -14.38987 -14.38235
 Alpha  occ. eigenvalues --  -10.38943 -10.38813 -10.36705 -10.33506 -10.31806
 Alpha  occ. eigenvalues --  -10.31397 -10.30730 -10.29741 -10.29540 -10.29498
 Alpha  occ. eigenvalues --  -10.29249 -10.29191 -10.28828 -10.28760 -10.28625
 Alpha  occ. eigenvalues --  -10.28525 -10.28212 -10.27951 -10.27811 -10.27787
 Alpha  occ. eigenvalues --  -10.27669 -10.27622 -10.27510 -10.27398 -10.27236
 Alpha  occ. eigenvalues --  -10.27109 -10.26922 -10.26874 -10.26792 -10.26774
 Alpha  occ. eigenvalues --  -10.26762 -10.26726 -10.26642 -10.26589 -10.26418
 Alpha  occ. eigenvalues --  -10.26133 -10.26061 -10.25938 -10.25896 -10.25783
 Alpha  occ. eigenvalues --  -10.25703 -10.25655 -10.25544 -10.25540 -10.25143
 Alpha  occ. eigenvalues --  -10.25137 -10.25126 -10.25022 -10.24965 -10.24895
 Alpha  occ. eigenvalues --  -10.24762 -10.24682 -10.24616 -10.24583 -10.24000
 Alpha  occ. eigenvalues --   -3.12900  -1.87606  -1.87129  -1.87092  -1.18585
 Alpha  occ. eigenvalues --   -1.17202  -1.13484  -1.09487  -1.06525  -1.04881
 Alpha  occ. eigenvalues --   -1.03687  -1.03228  -1.02480  -0.94346  -0.92006
 Alpha  occ. eigenvalues --   -0.91017  -0.90228  -0.89757  -0.89171  -0.88777
 Alpha  occ. eigenvalues --   -0.88284  -0.87847  -0.87477  -0.86936  -0.85687
 Alpha  occ. eigenvalues --   -0.85156  -0.84107  -0.83523  -0.82751  -0.82495
 Alpha  occ. eigenvalues --   -0.81623  -0.81527  -0.80341  -0.79571  -0.78020
 Alpha  occ. eigenvalues --   -0.77766  -0.76935  -0.76331  -0.75610  -0.75261
 Alpha  occ. eigenvalues --   -0.74969  -0.74742  -0.73888  -0.73115  -0.72666
 Alpha  occ. eigenvalues --   -0.72428  -0.70310  -0.69694  -0.69225  -0.68349
 Alpha  occ. eigenvalues --   -0.67490  -0.66978  -0.66000  -0.65638  -0.64729
 Alpha  occ. eigenvalues --   -0.64228  -0.63213  -0.62615  -0.62050  -0.61979
 Alpha  occ. eigenvalues --   -0.61719  -0.60961  -0.60650  -0.59946  -0.59106
 Alpha  occ. eigenvalues --   -0.58546  -0.58318  -0.58231  -0.57499  -0.56640
 Alpha  occ. eigenvalues --   -0.56116  -0.55311  -0.55228  -0.54816  -0.54371
 Alpha  occ. eigenvalues --   -0.54188  -0.54013  -0.53737  -0.53344  -0.53154
 Alpha  occ. eigenvalues --   -0.53099  -0.52689  -0.52310  -0.51953  -0.51749
 Alpha  occ. eigenvalues --   -0.51378  -0.50875  -0.50687  -0.50540  -0.50332
 Alpha  occ. eigenvalues --   -0.50144  -0.50078  -0.49806  -0.49471  -0.49389
 Alpha  occ. eigenvalues --   -0.49288  -0.49098  -0.49035  -0.48618  -0.48333
 Alpha  occ. eigenvalues --   -0.48277  -0.47979  -0.47801  -0.47674  -0.47192
 Alpha  occ. eigenvalues --   -0.47118  -0.46417  -0.46221  -0.45841  -0.45751
 Alpha  occ. eigenvalues --   -0.45616  -0.45451  -0.45244  -0.45107  -0.44997
 Alpha  occ. eigenvalues --   -0.44697  -0.44611  -0.44377  -0.44261  -0.43957
 Alpha  occ. eigenvalues --   -0.43886  -0.43749  -0.43574  -0.43503  -0.43271
 Alpha  occ. eigenvalues --   -0.43026  -0.42996  -0.42577  -0.42392  -0.42246
 Alpha  occ. eigenvalues --   -0.42141  -0.41925  -0.41741  -0.41423  -0.41257
 Alpha  occ. eigenvalues --   -0.41166  -0.40758  -0.40597  -0.40481  -0.40267
 Alpha  occ. eigenvalues --   -0.39702  -0.39441  -0.39337  -0.39183  -0.38936
 Alpha  occ. eigenvalues --   -0.38651  -0.38449  -0.38371  -0.38035  -0.37906
 Alpha  occ. eigenvalues --   -0.37373  -0.37316  -0.37235  -0.37101  -0.36903
 Alpha  occ. eigenvalues --   -0.36736  -0.36364  -0.35881  -0.35577  -0.35568
 Alpha  occ. eigenvalues --   -0.35327  -0.34893  -0.34632  -0.33662  -0.33408
 Alpha  occ. eigenvalues --   -0.33118  -0.32670  -0.32647  -0.31607  -0.30830
 Alpha  occ. eigenvalues --   -0.30722  -0.29976  -0.27437  -0.26660  -0.23170
 Alpha  occ. eigenvalues --   -0.21581
 Alpha virt. eigenvalues --   -0.06554  -0.03866   0.00464   0.03753   0.05523
 Alpha virt. eigenvalues --    0.05761   0.06376   0.06795   0.06906   0.07238
 Alpha virt. eigenvalues --    0.07998   0.10625   0.11114   0.11447   0.11535

 Mulliken charges:
               1
     1  Mg   0.812391
     2  C    0.156481
     3  C   -0.228747
     4  C   -0.185918
     5  C   -0.167252
     6  N   -0.635968
     7  C    0.291531
     8  C   -0.138002
     9  C   -0.172106
    10  C    0.366448
    11  C   -0.306402
    12  C   -0.144782
    13  C   -0.259430
    14  C    0.608898
    15  O   -0.460401
    16  O   -0.473345
    17  N   -0.772398
    18  C    0.416349
    19  C   -0.004623
    20  C    0.040533
    21  C    0.302812
    22  C   -0.388334
    23  C   -0.096134
    24  C   -0.229808
    25  N   -0.704452
    26  C    0.346441
    27  C   -0.030260
    28  C    0.072242
    29  C    0.297019
    30  C   -0.365468
    31  C   -0.256127
    32  C   -0.305848
    33  N   -0.705398
    34  C    0.264161
    35  C    0.006891
    36  C    0.031390
    37  C    0.223986
    38  C   -0.378576
    39  C    0.383594
    40  O   -0.422554
    41  C   -0.380914
    42  C    0.636412
    43  O   -0.511739
    44  O   -0.469565
    45  C   -0.079393
    46  C    0.026490
    47  C   -0.104907
    48  C    0.130978
    49  C   -0.362451
    50  C   -0.227470
    51  C   -0.163179
    52  C   -0.161381
    53  C   -0.077117
    54  C   -0.310577
    55  C   -0.180743
    56  C   -0.189043
    57  C   -0.184212
    58  C   -0.052060
    59  C   -0.286395
    60  C   -0.161362
    61  C   -0.168638
    62  C   -0.169128
    63  C   -0.067145
    64  C   -0.289333
    65  C   -0.306085
    66  H    0.088342
    67  H    0.089570
    68  H    0.097594
    69  H    0.134162
    70  H    0.084733
    71  H    0.106458
    72  H    0.107638
    73  H    0.122898
    74  H    0.107772
    75  H    0.104424
    76  H    0.126648
    77  H    0.097384
    78  H    0.111074
    79  H    0.128792
    80  H    0.096955
    81  H    0.092919
    82  H    0.103103
    83  H    0.112035
    84  H    0.121726
    85  H    0.108328
    86  H    0.113592
    87  H    0.093378
    88  H    0.107132
    89  H    0.105765
    90  H    0.097749
    91  H    0.108867
    92  H    0.130004
    93  H    0.139547
    94  H    0.087373
    95  H    0.184761
    96  H    0.110389
    97  H    0.152905
    98  H    0.131910
    99  H    0.125771
   100  H    0.081121
   101  H    0.075197
   102  H    0.100698
   103  H    0.106570
   104  H    0.118712
   105  H    0.096076
   106  H    0.097656
   107  H    0.098133
   108  H    0.100778
   109  H    0.097698
   110  H    0.071609
   111  H    0.077363
   112  H    0.096080
   113  H    0.101480
   114  H    0.115289
   115  H    0.090356
   116  H    0.077600
   117  H    0.106761
   118  H    0.105972
   119  H    0.091785
   120  H    0.089093
   121  H    0.094555
   122  H    0.074672
   123  H    0.108493
   124  H    0.064978
   125  H    0.070110
   126  H    0.052974
   127  H    0.083003
   128  H    0.105711
   129  H    0.090710
   130  H    0.076230
   131  H    0.084380
   132  H    0.102027
   133  H    0.108884
   134  H    0.074569
   135  H    0.088679
   136  H    0.106807
   137  H    0.105618
 Sum of Mulliken charges =   0.00000

 Dipole moment (field-independent basis, Debye):
    X=              1.8989    Y=              3.8073    Z=              0.2319  Tot=              4.2609
 Quadrupole moment (field-independent basis, Debye-Ang):
   XX=           -338.7351   YY=           -392.5797   ZZ=           -396.5696
   XY=            -14.4091   XZ=              6.0210   YZ=              1.3644

 Normal termination of Gaussian 09 at Wed Jul  3 01:37:29 2019.
