 Gaussian 09, Revision D.01,
 Gaussian 09:  ES64L-G09RevD.01 24-Apr-2013

 -------------------------------------
 # td=(NStates=1) CAM-B3LYP/6-31G(d,p)
 -------------------------------------

 --
 TD
 --
 Symbolic Z-matrix:
 Charge =  0 Multiplicity = 1

                         Standard orientation:
 ---------------------------------------------------------------------
 Center     Atomic      Atomic             Coordinates (Angstroms)
 Number     Number       Type             X           Y           Z
 ---------------------------------------------------------------------
      1         12           0       -7.134682    0.679058    0.016121
      2          6           0       -4.829475   -1.907281    0.501614
      3          6           0       -4.767738    2.825763    1.225118
      4          6           0       -9.417742    3.137813   -0.340962
      5          6           0       -9.522354   -1.673157   -1.103005
      6          7           0       -5.156485    0.483350    0.758626
      7          6           0       -4.383780   -0.660008    0.876039
      8          6           0       -3.014132   -0.350069    1.297111
      9          6           0       -2.950999    1.095042    1.731879
     10          6           0       -4.368156    1.521933    1.233419
     11          6           0       -2.819006    1.235678    3.165313
     12          6           0       -1.950644   -0.703957    0.112560
     13          6           0       -0.435174   -0.647363    0.633837
     14          6           0        0.581903   -0.900779   -0.482644
     15          8           0        0.164585   -1.186176   -1.623086
     16          8           0        1.834727   -0.622100   -0.024323
     17          7           0       -7.074333    2.640377    0.391839
     18          6           0       -6.034769    3.408929    0.859977
     19          6           0       -6.355183    4.763693    0.823238
     20          6           0       -7.690883    4.865879    0.248198
     21          6           0       -8.141634    3.494012    0.013557
     22          6           0       -5.421061    5.794600    1.043499
     23          6           0       -8.590052    6.042097    0.134721
     24          6           0       -8.219435    7.168748    0.840133
     25          7           0       -9.132569    0.679524   -0.617883
     26          6           0       -9.840763    1.815594   -0.645626
     27          6           0      -11.207537    1.549392   -1.048832
     28          6           0      -11.277186    0.241123   -1.287287
     29          6           0       -9.915794   -0.389932   -0.950020
     30          6           0      -12.360352    2.453376   -1.402796
     31          6           0      -12.328977   -0.747290   -1.812607
     32          6           0      -12.191147   -1.141752   -3.345802
     33          7           0       -7.209493   -1.332098   -0.231228
     34          6           0       -8.215652   -2.162509   -0.588381
     35          6           0       -7.881053   -3.567367   -0.433462
     36          6           0       -6.537878   -3.559956   -0.078971
     37          6           0       -6.125225   -2.167678    0.088537
     38          6           0       -8.578718   -4.755198   -0.928936
     39          6           0       -5.436498   -4.392977    0.180356
     40          8           0       -5.248595   -5.617151    0.187311
     41          6           0       -4.210308   -3.238235    0.516504
     42          6           0       -3.636076   -3.658890    1.888529
     43          8           0       -3.910306   -3.147149    2.961630
     44          8           0       -2.772887   -4.682805    1.609554
     45          6           0       -2.371320   -5.378415    2.977122
     46          6           0        2.741988   -0.828661   -1.111854
     47          6           0        4.110599   -0.484666   -0.490305
     48          6           0        5.057398    0.326902   -0.886092
     49          6           0        4.891537    1.246343   -2.164060
     50          6           0        6.408408    0.348540   -0.047970
     51          6           0        7.668924   -0.172431   -0.921088
     52          6           0        8.977253    0.086621   -0.118193
     53          6           0       10.188225   -0.413827   -0.886231
     54          6           0       10.054910   -1.821914   -1.268988
     55          6           0       11.396840   -0.210766   -0.023944
     56          6           0       12.757908   -0.652385   -0.591376
     57          6           0       13.985709   -0.030277    0.184124
     58          6           0       15.324338   -0.277096   -0.515580
     59          6           0       15.680506   -1.712105   -0.725732
     60          6           0       16.411341    0.587409    0.417062
     61          6           0       17.766628    0.643323   -0.298609
     62          6           0       18.891614    1.241055    0.710518
     63          6           0       20.366391    1.217824    0.157878
     64          6           0       20.441226    1.836566   -1.268092
     65          6           0       21.223993    2.072119    1.091663
     66          1           0       -4.182760    3.628063    1.440621
     67          1           0      -10.122610    3.924051   -0.444317
     68          1           0      -10.325265   -2.530330   -1.050258
     69          1           0       -2.776948   -0.859578    2.278826
     70          1           0       -2.310471    1.611475    1.063396
     71          1           0       -1.789570    0.854485    3.524171
     72          1           0       -2.939565    2.353149    3.669461
     73          1           0       -3.386122    0.459511    3.791421
     74          1           0       -2.273908   -1.604890   -0.470016
     75          1           0       -2.163520    0.252281   -0.586594
     76          1           0       -0.366843    0.408866    1.204469
     77          1           0       -0.101362   -1.372537    1.255579
     78          1           0       -5.621952    6.890242    0.434519
     79          1           0       -5.353353    6.128677    2.108165
     80          1           0       -4.304272    5.763601    1.015817
     81          1           0       -9.290297    6.084541   -0.565783
     82          1           0       -8.749337    8.305055    0.603734
     83          1           0       -7.232298    7.183034    1.468455
     84          1           0      -12.152566    2.996534   -2.412543
     85          1           0      -13.273477    1.815367   -1.614499
     86          1           0      -12.633823    3.241021   -0.647963
     87          1           0      -12.268771   -1.688580   -1.188135
     88          1           0      -13.275284   -0.165384   -1.669036
     89          1           0      -12.980012   -1.706029   -3.743957
     90          1           0      -12.373552   -0.192824   -3.852373
     91          1           0      -11.312934   -1.661979   -3.625670
     92          1           0       -9.186690   -4.746416   -1.877179
     93          1           0       -7.849487   -5.486279   -0.995194
     94          1           0       -9.307019   -4.942919    0.001150
     95          1           0       -3.317790   -3.575584   -0.087439
     96          1           0       -1.582462   -4.666614    3.426877
     97          1           0       -3.194442   -5.671444    3.454168
     98          1           0       -1.746282   -6.226003    2.745621
     99          1           0        2.703355   -1.873066   -1.243798
    100          1           0        2.620749   -0.206398   -2.034684
    101          1           0        4.299066   -1.354150    0.195765
    102          1           0        3.797720    1.513423   -2.456551
    103          1           0        5.121087    2.329676   -2.193136
    104          1           0        5.220179    1.015657   -2.957403
    105          1           0        6.470854    1.327364    0.048803
    106          1           0        6.346478   -0.327898    0.701809
    107          1           0        7.285096   -1.089560   -0.992620
    108          1           0        7.639855    0.374568   -1.842225
    109          1           0        9.024730    1.135848    0.149676
    110          1           0        9.015357   -0.358601    1.028651
    111          1           0       10.131185    0.213565   -1.724127
    112          1           0        9.240383   -2.231751   -1.981890
    113          1           0       11.111511   -2.072118   -1.903153
    114          1           0       10.290986   -2.393222   -0.385116
    115          1           0       11.458507    0.883466    0.145014
    116          1           0       11.324059   -0.715101    0.931568
    117          1           0       12.951389   -1.668839   -0.734181
    118          1           0       12.836500   -0.234646   -1.678520
    119          1           0       13.772085    0.859174    0.584601
    120          1           0       14.145097   -0.425469    1.320988
    121          1           0       15.144832    0.237238   -1.481131
    122          1           0       15.627351   -2.357815    0.137203
    123          1           0       14.926058   -1.992855   -1.474939
    124          1           0       16.597378   -1.821632   -1.047937
    125          1           0       16.087030    1.546359    0.519410
    126          1           0       16.660446   -0.114804    1.493543
    127          1           0       17.952410   -0.366384   -0.801042
    128          1           0       17.750633    1.464687   -0.938451
    129          1           0       18.466392    2.313763    0.886424
    130          1           0       19.113096    0.766719    1.609015
    131          1           0       20.851676    0.267186    0.161597
    132          1           0       19.958046    2.832738   -1.101055
    133          1           0       21.372516    1.829532   -1.824659
    134          1           0       19.691658    1.279237   -2.146303
    135          1           0       21.173414    1.584276    2.047715
    136          1           0       22.200445    1.903184    0.827003
    137          1           0       21.045938    3.239760    1.196655
 ---------------------------------------------------------------------

 SCF Done:  E(RCAM-B3LYP) =  -2932.55748012     A.U. after   18 cycles

 Excitation energies and oscillator strengths:

 Excited State   1:      Singlet-A      1.8023 eV  687.92 nm  f=0.3781  <S**2>=0.000
     240 -> 243        0.18565
     241 -> 242        0.67432
 This state for optimization and/or second-order correction.
 Total Energy, E(TD-HF/TD-KS) =  -2932.49124701
 Copying the excited state density for this state as the 1-particle RhoCI density.

 The electronic state is 1-A.
 Alpha  occ. eigenvalues --  -46.83843 -19.27652 -19.25802 -19.21380 -19.20148
 Alpha  occ. eigenvalues --  -19.20090 -14.41892 -14.39713 -14.39450 -14.38921
 Alpha  occ. eigenvalues --  -10.39749 -10.38029 -10.34911 -10.31550 -10.31356
 Alpha  occ. eigenvalues --  -10.30540 -10.30344 -10.29718 -10.29461 -10.29457
 Alpha  occ. eigenvalues --  -10.29355 -10.28922 -10.28845 -10.28802 -10.28639
 Alpha  occ. eigenvalues --  -10.28430 -10.28022 -10.27977 -10.27976 -10.27795
 Alpha  occ. eigenvalues --  -10.27671 -10.27643 -10.27594 -10.27439 -10.27397
 Alpha  occ. eigenvalues --  -10.27259 -10.27160 -10.27019 -10.27007 -10.26920
 Alpha  occ. eigenvalues --  -10.26258 -10.26239 -10.26220 -10.26204 -10.26189
 Alpha  occ. eigenvalues --  -10.26168 -10.26064 -10.25989 -10.25829 -10.25748
 Alpha  occ. eigenvalues --  -10.25718 -10.25490 -10.25482 -10.25262 -10.25000
 Alpha  occ. eigenvalues --  -10.24924 -10.24837 -10.24826 -10.24814 -10.24793
 Alpha  occ. eigenvalues --  -10.24698 -10.24563 -10.24523 -10.24049 -10.23133
 Alpha  occ. eigenvalues --   -3.12922  -1.87629  -1.87188  -1.87076  -1.18404
 Alpha  occ. eigenvalues --   -1.14957  -1.09105  -1.08866  -1.07203  -1.04069
 Alpha  occ. eigenvalues --   -1.03514  -1.02468  -1.01654  -0.92130  -0.91674
 Alpha  occ. eigenvalues --   -0.90132  -0.89858  -0.89217  -0.89117  -0.88563
 Alpha  occ. eigenvalues --   -0.88245  -0.88089  -0.87801  -0.86970  -0.86012
 Alpha  occ. eigenvalues --   -0.84822  -0.84030  -0.82875  -0.82778  -0.82500
 Alpha  occ. eigenvalues --   -0.81405  -0.80792  -0.80667  -0.80337  -0.78450
 Alpha  occ. eigenvalues --   -0.77208  -0.76944  -0.76304  -0.75865  -0.75628
 Alpha  occ. eigenvalues --   -0.74991  -0.74846  -0.74157  -0.73357  -0.72540
 Alpha  occ. eigenvalues --   -0.71857  -0.70617  -0.70210  -0.69268  -0.68209
 Alpha  occ. eigenvalues --   -0.66948  -0.66232  -0.65709  -0.65098  -0.65070
 Alpha  occ. eigenvalues --   -0.63860  -0.63596  -0.63515  -0.62775  -0.61985
 Alpha  occ. eigenvalues --   -0.61216  -0.60742  -0.60206  -0.59701  -0.58928
 Alpha  occ. eigenvalues --   -0.58475  -0.57810  -0.57587  -0.57465  -0.56638
 Alpha  occ. eigenvalues --   -0.55688  -0.55272  -0.54900  -0.54815  -0.54662
 Alpha  occ. eigenvalues --   -0.54513  -0.54345  -0.53798  -0.53270  -0.52863
 Alpha  occ. eigenvalues --   -0.52739  -0.52421  -0.52069  -0.51807  -0.51791
 Alpha  occ. eigenvalues --   -0.51519  -0.51330  -0.50824  -0.50600  -0.50206
 Alpha  occ. eigenvalues --   -0.49890  -0.49670  -0.49535  -0.49086  -0.49009
 Alpha  occ. eigenvalues --   -0.48714  -0.48479  -0.48293  -0.48107  -0.48066
 Alpha  occ. eigenvalues --   -0.47834  -0.47628  -0.47521  -0.47381  -0.46809
 Alpha  occ. eigenvalues --   -0.46575  -0.46450  -0.46200  -0.45955  -0.45885
 Alpha  occ. eigenvalues --   -0.45691  -0.45610  -0.45343  -0.45128  -0.45056
 Alpha  occ. eigenvalues --   -0.44913  -0.44740  -0.44535  -0.44401  -0.44195
 Alpha  occ. eigenvalues --   -0.44045  -0.43941  -0.43799  -0.43440  -0.43194
 Alpha  occ. eigenvalues --   -0.43120  -0.42984  -0.42873  -0.42396  -0.42327
 Alpha  occ. eigenvalues --   -0.42025  -0.41781  -0.41506  -0.41300  -0.41175
 Alpha  occ. eigenvalues --   -0.40900  -0.40706  -0.40645  -0.40426  -0.39672
 Alpha  occ. eigenvalues --   -0.39416  -0.39162  -0.39064  -0.38992  -0.38890
 Alpha  occ. eigenvalues --   -0.38765  -0.38743  -0.38435  -0.38329  -0.37673
 Alpha  occ. eigenvalues --   -0.37450  -0.37375  -0.36995  -0.36955  -0.36652
 Alpha  occ. eigenvalues --   -0.36569  -0.36479  -0.35787  -0.35649  -0.35462
 Alpha  occ. eigenvalues --   -0.34958  -0.34865  -0.34623  -0.33497  -0.33003
 Alpha  occ. eigenvalues --   -0.32788  -0.31874  -0.31529  -0.30705  -0.30483
 Alpha  occ. eigenvalues --   -0.29267  -0.29140  -0.28972  -0.26487  -0.23429
 Alpha  occ. eigenvalues --   -0.20564
 Alpha virt. eigenvalues --   -0.07542  -0.02535   0.01097   0.03837   0.05226
 Alpha virt. eigenvalues --    0.05957   0.06733   0.06858   0.07454   0.07691
 Alpha virt. eigenvalues --    0.08563   0.10747   0.11617   0.11921   0.12001

 Mulliken charges:
               1
     1  Mg   0.814088
     2  C    0.134056
     3  C   -0.167772
     4  C   -0.146427
     5  C   -0.181543
     6  N   -0.626635
     7  C    0.349068
     8  C   -0.193710
     9  C   -0.087915
    10  C    0.319820
    11  C   -0.321414
    12  C   -0.167581
    13  C   -0.246545
    14  C    0.604239
    15  O   -0.478275
    16  O   -0.459481
    17  N   -0.741077
    18  C    0.308410
    19  C    0.079471
    20  C   -0.025893
    21  C    0.305319
    22  C   -0.448579
    23  C   -0.045505
    24  C   -0.241552
    25  N   -0.688844
    26  C    0.311502
    27  C    0.032960
    28  C    0.022875
    29  C    0.301933
    30  C   -0.376279
    31  C   -0.241750
    32  C   -0.313912
    33  N   -0.697716
    34  C    0.245597
    35  C    0.013398
    36  C    0.057348
    37  C    0.218214
    38  C   -0.361531
    39  C    0.349164
    40  O   -0.480858
    41  C   -0.397692
    42  C    0.639089
    43  O   -0.490371
    44  O   -0.486651
    45  C   -0.093432
    46  C    0.007100
    47  C   -0.133497
    48  C    0.086274
    49  C   -0.377410
    50  C   -0.215379
    51  C   -0.193832
    52  C   -0.166106
    53  C   -0.039322
    54  C   -0.296324
    55  C   -0.181951
    56  C   -0.193729
    57  C   -0.159020
    58  C   -0.074259
    59  C   -0.297056
    60  C   -0.156627
    61  C   -0.181909
    62  C   -0.167350
    63  C   -0.073565
    64  C   -0.288354
    65  C   -0.303514
    66  H    0.052450
    67  H    0.094346
    68  H    0.097341
    69  H    0.126055
    70  H    0.119588
    71  H    0.098645
    72  H    0.095484
    73  H    0.133882
    74  H    0.132152
    75  H    0.093083
    76  H    0.119644
    77  H    0.140876
    78  H    0.104995
    79  H    0.122201
    80  H    0.125993
    81  H    0.098989
    82  H    0.079704
    83  H    0.111773
    84  H    0.114705
    85  H    0.112149
    86  H    0.115348
    87  H    0.103908
    88  H    0.091376
    89  H    0.111049
    90  H    0.106972
    91  H    0.122180
    92  H    0.125403
    93  H    0.155239
    94  H    0.110150
    95  H    0.157619
    96  H    0.129264
    97  H    0.160535
    98  H    0.131545
    99  H    0.130483
   100  H    0.126679
   101  H    0.084785
   102  H    0.097198
   103  H    0.104403
   104  H    0.136961
   105  H    0.113258
   106  H    0.112958
   107  H    0.115727
   108  H    0.098903
   109  H    0.095763
   110  H    0.053793
   111  H    0.091650
   112  H    0.105736
   113  H    0.061281
   114  H    0.108901
   115  H    0.090390
   116  H    0.100665
   117  H    0.111311
   118  H    0.069333
   119  H    0.096692
   120  H    0.045214
   121  H    0.084898
   122  H    0.105829
   123  H    0.101901
   124  H    0.109758
   125  H    0.098818
   126  H    0.050750
   127  H    0.084853
   128  H    0.109863
   129  H    0.076522
   130  H    0.094801
   131  H    0.095694
   132  H    0.097560
   133  H    0.103287
   134  H    0.053606
   135  H    0.097211
   136  H    0.106927
   137  H    0.089211
 Sum of Mulliken charges =   0.00000

 Dipole moment (field-independent basis, Debye):
    X=              2.5517    Y=              4.3998    Z=             -0.1634  Tot=              5.0888
 Quadrupole moment (field-independent basis, Debye-Ang):
   XX=           -340.7065   YY=           -388.9881   ZZ=           -396.6244
   XY=            -22.6973   XZ=             16.8298   YZ=             -7.2738

 Normal termination of Gaussian 09 at Fri Jul  5 03:16:59 2019.
