 Gaussian 16, Revision A.03,
 Gaussian 16:  ES64L-G16RevA.03 25-Dec-2016

 ----------------------------------------------------------------------
 # td=(NStates=1) iop(3/107=0140000000,3/108=0140000000) CAM-B3LYP/6-31
 G(d,p)
 ----------------------------------------------------------------------

 --
 TD
 --
 Symbolic Z-matrix:
 Charge =  0 Multiplicity = 1

                         Standard orientation:
 ---------------------------------------------------------------------
 Center     Atomic      Atomic             Coordinates (Angstroms)
 Number     Number       Type             X           Y           Z
 ---------------------------------------------------------------------
      1         12           0       -7.176164    0.637018    0.093189
      2          6           0       -4.850574   -1.880580    0.563385
      3          6           0       -4.702239    2.873924    1.233409
      4          6           0       -9.306505    3.061223   -0.386766
      5          6           0       -9.501058   -1.759508   -0.859238
      6          7           0       -5.130598    0.463052    0.827787
      7          6           0       -4.343466   -0.629117    0.912333
      8          6           0       -2.849236   -0.470922    1.306947
      9          6           0       -2.961915    0.989440    1.721091
     10          6           0       -4.360299    1.513643    1.218787
     11          6           0       -2.922748    1.127256    3.330225
     12          6           0       -1.933838   -0.498877    0.150715
     13          6           0       -0.498815   -0.392136    0.435564
     14          6           0        0.406289   -0.722692   -0.631090
     15          8           0        0.183246   -0.980476   -1.819396
     16          8           0        1.745214   -0.488171   -0.242056
     17          7           0       -7.075259    2.703305    0.198060
     18          6           0       -5.967361    3.382404    0.724500
     19          6           0       -6.296582    4.785009    0.758627
     20          6           0       -7.641316    4.975681    0.237085
     21          6           0       -8.158099    3.502146    0.008897
     22          6           0       -5.414873    5.920952    1.190478
     23          6           0       -8.537600    6.053195    0.113484
     24          6           0       -8.376575    7.290040    0.747813
     25          7           0       -9.102643    0.646658   -0.450186
     26          6           0       -9.786837    1.748857   -0.635436
     27          6           0      -11.217577    1.447278   -0.971156
     28          6           0      -11.194499    0.102728   -1.284769
     29          6           0       -9.927426   -0.408363   -0.761941
     30          6           0      -12.182807    2.421713   -1.429377
     31          6           0      -12.317227   -0.774130   -1.728642
     32          6           0      -12.227520   -1.195919   -3.120575
     33          7           0       -7.183405   -1.362224   -0.209125
     34          6           0       -8.234009   -2.255404   -0.607039
     35          6           0       -7.742568   -3.524371   -0.515321
     36          6           0       -6.508288   -3.565872   -0.121265
     37          6           0       -6.173030   -2.138667    0.075863
     38          6           0       -8.541648   -4.826713   -0.785061
     39          6           0       -5.247811   -4.283564    0.144161
     40          8           0       -5.129738   -5.533263    0.065808
     41          6           0       -4.156716   -3.261859    0.590816
     42          6           0       -3.500986   -3.709798    1.844053
     43          8           0       -3.678481   -3.152396    2.957083
     44          8           0       -2.799724   -4.856231    1.738864
     45          6           0       -2.250538   -5.415513    3.040342
     46          6           0        2.777407   -0.729558   -1.238598
     47          6           0        4.079567   -0.473690   -0.713918
     48          6           0        5.015080    0.378887   -1.077278
     49          6           0        4.977847    1.351960   -2.246717
     50          6           0        6.370512    0.477768   -0.346940
     51          6           0        7.500905   -0.119072   -1.104933
     52          6           0        8.780295   -0.202707   -0.320504
     53          6           0       10.203602   -0.592494   -0.984433
     54          6           0       10.228965   -1.941552   -1.440309
     55          6           0       11.384226   -0.315896    0.092747
     56          6           0       12.778257   -0.504628   -0.643186
     57          6           0       14.009821   -0.101493    0.158786
     58          6           0       15.396514   -0.251070   -0.459447
     59          6           0       15.575432   -1.723295   -0.921834
     60          6           0       16.427014    0.305907    0.406055
     61          6           0       17.705362    0.688101   -0.232773
     62          6           0       18.626477    1.401322    0.808327
     63          6           0       20.099113    1.314044    0.332436
     64          6           0       20.270096    2.249469   -0.847239
     65          6           0       21.033392    1.748977    1.399270
     66          1           0       -4.036033    3.369275    1.490205
     67          1           0      -10.313143    3.843846   -0.354472
     68          1           0      -10.085172   -2.462700   -1.086895
     69          1           0       -2.516275   -1.187301    1.994347
     70          1           0       -2.218773    1.700584    1.208737
     71          1           0       -2.014007    0.842206    3.582292
     72          1           0       -2.849331    2.284207    3.489723
     73          1           0       -3.502711    0.458691    3.754638
     74          1           0       -1.970913   -1.473812   -0.361578
     75          1           0       -2.297865    0.077951   -0.649471
     76          1           0       -0.310640    0.754581    0.816099
     77          1           0       -0.163240   -0.972985    1.255695
     78          1           0       -5.241977    6.854908    0.744025
     79          1           0       -5.346740    6.023912    2.283320
     80          1           0       -4.424730    5.506006    1.156437
     81          1           0       -9.496533    5.812302   -0.527346
     82          1           0       -9.003010    8.080400    0.585521
     83          1           0       -7.601772    7.628503    1.492385
     84          1           0      -11.905188    3.294417   -2.187753
     85          1           0      -13.138942    1.814528   -1.780912
     86          1           0      -12.341836    3.199182   -0.587944
     87          1           0      -12.216749   -1.747959   -0.851260
     88          1           0      -13.181897   -0.093864   -1.513039
     89          1           0      -12.957788   -2.070684   -3.284132
     90          1           0      -12.280710   -0.432368   -3.943846
     91          1           0      -11.152926   -1.560882   -3.216223
     92          1           0       -9.063597   -5.078915   -1.783354
     93          1           0       -8.041737   -5.825280   -0.627372
     94          1           0       -9.548703   -4.797428   -0.227455
     95          1           0       -3.276197   -3.189103   -0.089585
     96          1           0       -1.566471   -4.647858    3.412122
     97          1           0       -3.055713   -5.462579    3.702379
     98          1           0       -1.893797   -6.517191    2.801985
     99          1           0        2.472278   -1.766284   -1.626147
    100          1           0        2.629654   -0.118172   -2.069689
    101          1           0        4.221889   -1.049357    0.216820
    102          1           0        3.988717    1.319782   -2.629081
    103          1           0        5.500688    2.320049   -2.146792
    104          1           0        5.656215    1.191260   -3.000953
    105          1           0        6.503385    1.536598   -0.130610
    106          1           0        6.409076   -0.029215    0.629632
    107          1           0        7.119144   -1.215752   -1.329657
    108          1           0        7.647046    0.453146   -1.950540
    109          1           0        9.025160    0.777403    0.138994
    110          1           0        8.386310   -0.785574    0.529331
    111          1           0       10.454695    0.158658   -1.878611
    112          1           0        9.248159   -2.265050   -2.004188
    113          1           0       11.109250   -2.133717   -1.884666
    114          1           0       10.251301   -2.739849   -0.719540
    115          1           0       11.245119    0.659311    0.524461
    116          1           0       11.395754   -1.135589    0.889071
    117          1           0       12.754564   -1.546604   -0.836727
    118          1           0       12.796191    0.132689   -1.390219
    119          1           0       13.856729    0.955249    0.553768
    120          1           0       13.801229   -0.618968    1.207831
    121          1           0       15.327919    0.570320   -1.238627
    122          1           0       15.289218   -2.464684    0.112535
    123          1           0       14.930354   -1.970614   -1.868577
    124          1           0       16.607445   -1.839084   -1.393618
    125          1           0       16.185294    1.150569    1.021936
    126          1           0       16.628749   -0.538432    1.296153
    127          1           0       18.207900   -0.255311   -0.721415
    128          1           0       17.633831    1.275455   -1.237042
    129          1           0       18.427832    2.555028    0.923317
    130          1           0       18.564640    0.769464    1.762317
    131          1           0       20.521951    0.313810    0.104877
    132          1           0       19.923632    3.214580   -0.470892
    133          1           0       21.176653    2.543247   -1.267450
    134          1           0       19.706850    1.797448   -1.768286
    135          1           0       20.806268    1.153749    2.290838
    136          1           0       21.924813    1.464038    1.175038
    137          1           0       20.790848    2.765564    1.420239
 ---------------------------------------------------------------------

 SCF Done:  E(RCAM-B3LYP) =  -2933.39301890     A.U. after   16 cycles

 Excitation energies and oscillator strengths:

 Excited State   1:      Singlet-A      2.0765 eV  597.07 nm  f=0.2693  <S**2>=0.000
     240 -> 242       -0.15194
     240 -> 243       -0.22783
     241 -> 242        0.63902
 This state for optimization and/or second-order correction.
 Total Energy, E(TD-HF/TD-DFT) =  -2933.31670786
 Copying the excited state density for this state as the 1-particle RhoCI density.

 The electronic state is 1-A.
 Alpha  occ. eigenvalues --  -46.80279 -19.22036 -19.20372 -19.17120 -19.15824
 Alpha  occ. eigenvalues --  -19.15703 -14.37959 -14.35727 -14.35504 -14.34991
 Alpha  occ. eigenvalues --  -10.34756 -10.34521 -10.30985 -10.27931 -10.27122
 Alpha  occ. eigenvalues --  -10.26719 -10.26425 -10.26045 -10.24989 -10.24959
 Alpha  occ. eigenvalues --  -10.24918 -10.24492 -10.24300 -10.24277 -10.24225
 Alpha  occ. eigenvalues --  -10.24200 -10.23858 -10.23848 -10.23820 -10.23817
 Alpha  occ. eigenvalues --  -10.23662 -10.23601 -10.23409 -10.23287 -10.23096
 Alpha  occ. eigenvalues --  -10.22962 -10.22907 -10.22490 -10.22394 -10.22285
 Alpha  occ. eigenvalues --  -10.22226 -10.21985 -10.21955 -10.21953 -10.21734
 Alpha  occ. eigenvalues --  -10.21728 -10.21665 -10.21642 -10.21423 -10.21279
 Alpha  occ. eigenvalues --  -10.21106 -10.21073 -10.20907 -10.20884 -10.20844
 Alpha  occ. eigenvalues --  -10.20836 -10.20810 -10.20641 -10.20586 -10.20538
 Alpha  occ. eigenvalues --  -10.20419 -10.19841 -10.19230 -10.18985 -10.17353
 Alpha  occ. eigenvalues --   -3.08888  -1.83827  -1.83383  -1.83272  -1.11255
 Alpha  occ. eigenvalues --   -1.10688  -1.03501  -1.02606  -1.01541  -1.00019
 Alpha  occ. eigenvalues --   -0.99395  -0.98838  -0.97027  -0.87794  -0.86788
 Alpha  occ. eigenvalues --   -0.86478  -0.86072  -0.84934  -0.84787  -0.84110
 Alpha  occ. eigenvalues --   -0.83921  -0.83295  -0.82951  -0.82749  -0.82265
 Alpha  occ. eigenvalues --   -0.81074  -0.80050  -0.79338  -0.79136  -0.78276
 Alpha  occ. eigenvalues --   -0.77340  -0.76762  -0.76002  -0.75739  -0.74240
 Alpha  occ. eigenvalues --   -0.73108  -0.72303  -0.72096  -0.71758  -0.71741
 Alpha  occ. eigenvalues --   -0.70595  -0.70078  -0.69681  -0.69265  -0.68784
 Alpha  occ. eigenvalues --   -0.67654  -0.66730  -0.64913  -0.64786  -0.64496
 Alpha  occ. eigenvalues --   -0.63669  -0.62118  -0.61788  -0.61599  -0.60526
 Alpha  occ. eigenvalues --   -0.59885  -0.58831  -0.58746  -0.58538  -0.57900
 Alpha  occ. eigenvalues --   -0.57499  -0.57253  -0.56586  -0.56008  -0.55740
 Alpha  occ. eigenvalues --   -0.55508  -0.54048  -0.53633  -0.52820  -0.52755
 Alpha  occ. eigenvalues --   -0.52587  -0.51956  -0.51813  -0.51777  -0.51460
 Alpha  occ. eigenvalues --   -0.51245  -0.51136  -0.50637  -0.49816  -0.49698
 Alpha  occ. eigenvalues --   -0.49243  -0.49144  -0.48685  -0.48403  -0.48282
 Alpha  occ. eigenvalues --   -0.47863  -0.47693  -0.47578  -0.47443  -0.47329
 Alpha  occ. eigenvalues --   -0.47024  -0.46919  -0.46759  -0.46425  -0.46221
 Alpha  occ. eigenvalues --   -0.46188  -0.45448  -0.45318  -0.45229  -0.45189
 Alpha  occ. eigenvalues --   -0.44856  -0.44605  -0.44521  -0.44210  -0.43960
 Alpha  occ. eigenvalues --   -0.43481  -0.43245  -0.43132  -0.42946  -0.42735
 Alpha  occ. eigenvalues --   -0.42602  -0.42397  -0.41892  -0.41802  -0.41712
 Alpha  occ. eigenvalues --   -0.41576  -0.41388  -0.41271  -0.40995  -0.40910
 Alpha  occ. eigenvalues --   -0.40389  -0.40194  -0.39864  -0.39678  -0.39561
 Alpha  occ. eigenvalues --   -0.39426  -0.39326  -0.39093  -0.39058  -0.38773
 Alpha  occ. eigenvalues --   -0.38642  -0.38396  -0.38284  -0.38161  -0.37772
 Alpha  occ. eigenvalues --   -0.37720  -0.37505  -0.37418  -0.37026  -0.36859
 Alpha  occ. eigenvalues --   -0.36733  -0.36569  -0.36358  -0.36264  -0.35497
 Alpha  occ. eigenvalues --   -0.35464  -0.35194  -0.34913  -0.34613  -0.34425
 Alpha  occ. eigenvalues --   -0.34324  -0.34177  -0.33980  -0.33880  -0.33613
 Alpha  occ. eigenvalues --   -0.33469  -0.32929  -0.32514  -0.32283  -0.32165
 Alpha  occ. eigenvalues --   -0.32068  -0.31943  -0.31515  -0.30582  -0.30476
 Alpha  occ. eigenvalues --   -0.30320  -0.30145  -0.29271  -0.28676  -0.27534
 Alpha  occ. eigenvalues --   -0.27465  -0.26539  -0.25817  -0.23950  -0.21837
 Alpha  occ. eigenvalues --   -0.20097
 Alpha virt. eigenvalues --   -0.07046  -0.04404  -0.00349   0.01421   0.02055
 Alpha virt. eigenvalues --    0.03696   0.03975   0.04502   0.04643   0.05390
 Alpha virt. eigenvalues --    0.05925   0.07309   0.08737   0.09493   0.09592

 Mulliken charges:
               1
     1  Mg   0.819890
     2  C    0.073103
     3  C   -0.067437
     4  C   -0.192660
     5  C   -0.114578
     6  N   -0.630044
     7  C    0.303300
     8  C   -0.108221
     9  C   -0.182605
    10  C    0.326508
    11  C   -0.292810
    12  C   -0.183549
    13  C   -0.244252
    14  C    0.607539
    15  O   -0.477925
    16  O   -0.509955
    17  N   -0.731698
    18  C    0.337378
    19  C   -0.013727
    20  C    0.066828
    21  C    0.337871
    22  C   -0.392559
    23  C   -0.115004
    24  C   -0.241841
    25  N   -0.684448
    26  C    0.325514
    27  C    0.029094
    28  C    0.028979
    29  C    0.270680
    30  C   -0.373079
    31  C   -0.216331
    32  C   -0.297739
    33  N   -0.747015
    34  C    0.267996
    35  C   -0.010525
    36  C    0.115041
    37  C    0.269058
    38  C   -0.398081
    39  C    0.363571
    40  O   -0.479116
    41  C   -0.317248
    42  C    0.610962
    43  O   -0.508270
    44  O   -0.452622
    45  C   -0.087197
    46  C    0.032144
    47  C   -0.133913
    48  C    0.147175
    49  C   -0.378010
    50  C   -0.232922
    51  C   -0.157703
    52  C   -0.173571
    53  C   -0.041454
    54  C   -0.302553
    55  C   -0.196271
    56  C   -0.165170
    57  C   -0.188816
    58  C   -0.034370
    59  C   -0.291759
    60  C   -0.149553
    61  C   -0.165898
    62  C   -0.156488
    63  C   -0.087172
    64  C   -0.300678
    65  C   -0.270431
    66  H   -0.011907
    67  H    0.062207
    68  H    0.044317
    69  H    0.116208
    70  H    0.090115
    71  H    0.121095
    72  H    0.095909
    73  H    0.139003
    74  H    0.105654
    75  H    0.128622
    76  H    0.127122
    77  H    0.145195
    78  H    0.137838
    79  H    0.121906
    80  H    0.109207
    81  H    0.091591
    82  H    0.105288
    83  H    0.107988
    84  H    0.114783
    85  H    0.098325
    86  H    0.105714
    87  H    0.074561
    88  H    0.096102
    89  H    0.102108
    90  H    0.116884
    91  H    0.106456
    92  H    0.109696
    93  H    0.146359
    94  H    0.105062
    95  H    0.163339
    96  H    0.137783
    97  H    0.155996
    98  H    0.131650
    99  H    0.112715
   100  H    0.108917
   101  H    0.081753
   102  H    0.117925
   103  H    0.111312
   104  H    0.132780
   105  H    0.097888
   106  H    0.087491
   107  H    0.083213
   108  H    0.092002
   109  H    0.077361
   110  H    0.085903
   111  H    0.067187
   112  H    0.086904
   113  H    0.110611
   114  H    0.102158
   115  H    0.090326
   116  H    0.086135
   117  H    0.104772
   118  H    0.098930
   119  H    0.073621
   120  H    0.054676
   121  H    0.081985
   122  H    0.082002
   123  H    0.102429
   124  H    0.099697
   125  H    0.102306
   126  H    0.051748
   127  H    0.078384
   128  H    0.084591
   129  H    0.084023
   130  H    0.091056
   131  H    0.078530
   132  H    0.090474
   133  H    0.105540
   134  H    0.085243
   135  H    0.084392
   136  H    0.106586
   137  H    0.088898
 Sum of Mulliken charges =  -0.00000

 Dipole moment (field-independent basis, Debye):
    X=              2.6464    Y=              4.4832    Z=              0.7759  Tot=              5.2635
 Quadrupole moment (field-independent basis, Debye-Ang):
   XX=           -346.1358   YY=           -389.5968   ZZ=           -398.2443
   XY=            -17.1835   XZ=              1.6714   YZ=             -5.7369

 Normal termination of Gaussian 16 at Tue Sep 24 05:25:40 2019.
