 Gaussian 09, Revision D.01,
 Gaussian 09:  ES64L-G09RevD.01 24-Apr-2013

 -------------------------------------
 # td=(NStates=1) CAM-B3LYP/6-31G(d,p)
 -------------------------------------

 --
 TD
 --
 Symbolic Z-matrix:
 Charge =  0 Multiplicity = 1

                         Standard orientation:
 ---------------------------------------------------------------------
 Center     Atomic      Atomic             Coordinates (Angstroms)
 Number     Number       Type             X           Y           Z
 ---------------------------------------------------------------------
      1         12           0       -7.013992    0.608703   -0.046028
      2          6           0       -4.972084   -1.953229    0.564278
      3          6           0       -4.661900    2.851349    1.105547
      4          6           0       -9.316933    3.129492   -0.351027
      5          6           0       -9.618812   -1.657982   -0.822510
      6          7           0       -5.051306    0.400371    0.622564
      7          6           0       -4.308261   -0.712140    0.754673
      8          6           0       -2.899632   -0.468372    1.225656
      9          6           0       -3.003696    1.019033    1.669223
     10          6           0       -4.329642    1.515710    1.080509
     11          6           0       -2.890322    1.110479    3.173984
     12          6           0       -1.874346   -0.807924   -0.029468
     13          6           0       -0.491368   -0.512301    0.458208
     14          6           0        0.502286   -0.714287   -0.645311
     15          8           0        0.201489   -1.044250   -1.847887
     16          8           0        1.746892   -0.441731   -0.249763
     17          7           0       -7.069803    2.583803    0.378411
     18          6           0       -5.986472    3.302934    0.714051
     19          6           0       -6.381040    4.751008    0.807393
     20          6           0       -7.697167    4.835275    0.340352
     21          6           0       -8.078337    3.501171    0.022490
     22          6           0       -5.337392    5.871442    1.034715
     23          6           0       -8.567945    6.053385    0.182880
     24          6           0       -8.330544    7.179991    0.875244
     25          7           0       -9.059053    0.745712   -0.558867
     26          6           0       -9.858535    1.826407   -0.669203
     27          6           0      -11.242768    1.573467   -1.030017
     28          6           0      -11.312503    0.228302   -1.104117
     29          6           0       -9.974530   -0.320743   -0.804211
     30          6           0      -12.273119    2.656543   -1.205787
     31          6           0      -12.517345   -0.606243   -1.525030
     32          6           0      -12.361348   -1.048906   -2.978254
     33          7           0       -7.251600   -1.344964   -0.237253
     34          6           0       -8.320254   -2.226008   -0.623211
     35          6           0       -7.940111   -3.561502   -0.562544
     36          6           0       -6.623341   -3.513235   -0.112311
     37          6           0       -6.276255   -2.160038    0.135013
     38          6           0       -8.730511   -4.724126   -0.709180
     39          6           0       -5.494041   -4.385321    0.212328
     40          8           0       -5.360329   -5.601311    0.162728
     41          6           0       -4.306621   -3.341918    0.585632
     42          6           0       -3.485352   -3.785350    1.888930
     43          8           0       -3.544488   -3.169275    2.915550
     44          8           0       -2.737889   -4.796172    1.679478
     45          6           0       -2.086451   -5.259798    2.869431
     46          6           0        2.736511   -0.833325   -1.398845
     47          6           0        4.092852   -0.546433   -0.595438
     48          6           0        5.049116    0.193166   -1.126909
     49          6           0        5.006812    0.940656   -2.436045
     50          6           0        6.328778    0.450557   -0.263037
     51          6           0        7.703353   -0.039803   -0.982014
     52          6           0        8.932152   -0.139705   -0.028475
     53          6           0       10.204026   -0.505345   -0.813527
     54          6           0       10.091001   -1.919456   -1.319814
     55          6           0       11.461349   -0.243420    0.034594
     56          6           0       12.802649   -0.485702   -0.699496
     57          6           0       13.995042   -0.062390    0.130207
     58          6           0       15.366620   -0.062323   -0.466636
     59          6           0       15.653151   -1.455400   -0.865903
     60          6           0       16.374886    0.503042    0.462031
     61          6           0       17.881997    0.576853   -0.080710
     62          6           0       18.827357    1.373451    0.796270
     63          6           0       20.260213    1.289500    0.344402
     64          6           0       20.394273    1.996656   -1.041872
     65          6           0       21.222066    1.892668    1.386382
     66          1           0       -4.098128    3.709446    1.711203
     67          1           0       -9.960265    3.918076   -0.317472
     68          1           0      -10.563718   -2.439706   -0.926810
     69          1           0       -2.673114   -1.411875    1.898058
     70          1           0       -2.199137    1.600552    1.120710
     71          1           0       -1.828453    0.776219    3.406160
     72          1           0       -2.963478    2.031364    3.617277
     73          1           0       -3.690401    0.508676    3.423748
     74          1           0       -1.963562   -1.824967   -0.188091
     75          1           0       -2.225684    0.010999   -0.800372
     76          1           0       -0.386807    0.464346    0.882129
     77          1           0       -0.101837   -1.289603    1.379675
     78          1           0       -5.891620    6.811088    0.476236
     79          1           0       -5.431153    6.176432    2.170181
     80          1           0       -4.283334    5.713332    0.775187
     81          1           0       -9.221563    5.832391   -0.428428
     82          1           0       -8.842848    8.292617    0.787025
     83          1           0       -7.369957    7.331439    1.506219
     84          1           0      -11.935329    3.463765   -2.031109
     85          1           0      -13.289565    2.243554   -1.557577
     86          1           0      -12.602497    3.250360   -0.289626
     87          1           0      -12.459522   -1.470099   -0.712416
     88          1           0      -13.478958   -0.076227   -1.378214
     89          1           0      -13.134256   -1.648300   -3.463165
     90          1           0      -12.217669   -0.145099   -3.532307
     91          1           0      -11.514195   -1.593120   -3.349016
     92          1           0       -9.469826   -4.668886   -1.597634
     93          1           0       -8.070284   -5.631473   -0.726654
     94          1           0       -9.443682   -4.890177    0.309719
     95          1           0       -3.635675   -3.349102   -0.187907
     96          1           0       -1.247507   -4.471654    3.084815
     97          1           0       -2.843025   -5.317837    3.697996
     98          1           0       -1.527185   -6.208788    2.669137
     99          1           0        2.485107   -1.941152   -1.600188
    100          1           0        2.525950   -0.127877   -2.218217
    101          1           0        4.185694   -1.224009    0.268761
    102          1           0        4.007639    0.939332   -2.785796
    103          1           0        5.434536    1.812544   -2.341234
    104          1           0        5.371172    0.153019   -3.382079
    105          1           0        6.477610    1.409487    0.195808
    106          1           0        6.371292   -0.132449    0.697166
    107          1           0        7.502854   -0.935815   -1.696957
    108          1           0        7.910466    0.619436   -1.742388
    109          1           0        9.154316    0.807004    0.507238
    110          1           0        8.780688   -1.074302    0.639592
    111          1           0        9.955679    0.213111   -1.870785
    112          1           0        9.381424   -2.285311   -2.137624
    113          1           0       11.033912   -2.575924   -1.658152
    114          1           0        9.948907   -2.501470   -0.550624
    115          1           0       11.305928    0.830619    0.293093
    116          1           0       11.469169   -0.725319    1.072894
    117          1           0       12.765356   -1.549325   -0.728610
    118          1           0       12.458185    0.047014   -1.617951
    119          1           0       13.755989    0.845432    0.587081
    120          1           0       13.975696   -0.653814    1.064390
    121          1           0       15.413978    0.581185   -1.559063
    122          1           0       15.451036   -2.259526   -0.054338
    123          1           0       15.036350   -1.749302   -1.662233
    124          1           0       16.672068   -1.309309   -1.269351
    125          1           0       15.946404    1.419255    0.913377
    126          1           0       16.517443   -0.148063    1.127329
    127          1           0       18.219771   -0.420554   -0.072430
    128          1           0       17.803997    1.108848   -1.136023
    129          1           0       18.419125    2.379915    0.958316
    130          1           0       18.687825    0.700120    1.812691
    131          1           0       20.758142    0.402022    0.343448
    132          1           0       19.932902    3.023696   -1.106940
    133          1           0       21.561208    2.046461   -1.376690
    134          1           0       19.885847    1.256992   -1.934770
    135          1           0       21.315540    1.576213    2.411918
    136          1           0       22.351564    1.741027    1.119833
    137          1           0       21.053206    3.007202    1.517204
 ---------------------------------------------------------------------

 SCF Done:  E(RCAM-B3LYP) =  -2932.61557955     A.U. after   17 cycles

 Excitation energies and oscillator strengths:

 Excited State   1:      Singlet-A      2.0786 eV  596.47 nm  f=0.3023  <S**2>=0.000
     240 -> 242       -0.16425
     240 -> 243        0.19748
     241 -> 242        0.64109
     241 -> 243        0.12729
 This state for optimization and/or second-order correction.
 Total Energy, E(TD-HF/TD-KS) =  -2932.53919137
 Copying the excited state density for this state as the 1-particle RhoCI density.

 The electronic state is 1-A.
 Alpha  occ. eigenvalues --  -46.83790 -19.27364 -19.26142 -19.19830 -19.19647
 Alpha  occ. eigenvalues --  -19.19396 -14.41364 -14.39913 -14.39886 -14.38491
 Alpha  occ. eigenvalues --  -10.38619 -10.38566 -10.34257 -10.33427 -10.32780
 Alpha  occ. eigenvalues --  -10.31365 -10.30854 -10.30182 -10.29304 -10.29105
 Alpha  occ. eigenvalues --  -10.29030 -10.29010 -10.28691 -10.28616 -10.28446
 Alpha  occ. eigenvalues --  -10.28393 -10.28259 -10.28158 -10.28067 -10.27943
 Alpha  occ. eigenvalues --  -10.27933 -10.27791 -10.27690 -10.27611 -10.27577
 Alpha  occ. eigenvalues --  -10.27477 -10.27228 -10.27213 -10.27157 -10.27080
 Alpha  occ. eigenvalues --  -10.26949 -10.26777 -10.26757 -10.26693 -10.26691
 Alpha  occ. eigenvalues --  -10.26508 -10.26502 -10.26343 -10.26250 -10.26210
 Alpha  occ. eigenvalues --  -10.26055 -10.25988 -10.25956 -10.25891 -10.25560
 Alpha  occ. eigenvalues --  -10.25440 -10.25002 -10.24740 -10.24581 -10.24515
 Alpha  occ. eigenvalues --  -10.24376 -10.24031 -10.23901 -10.23698 -10.23140
 Alpha  occ. eigenvalues --   -3.12946  -1.87640  -1.87178  -1.87147  -1.21329
 Alpha  occ. eigenvalues --   -1.15933  -1.09746  -1.09381  -1.05050  -1.04071
 Alpha  occ. eigenvalues --   -1.03290  -1.02851  -1.01949  -0.91794  -0.90993
 Alpha  occ. eigenvalues --   -0.90648  -0.89923  -0.89844  -0.89375  -0.89004
 Alpha  occ. eigenvalues --   -0.88869  -0.87990  -0.87630  -0.87139  -0.85607
 Alpha  occ. eigenvalues --   -0.85151  -0.83740  -0.82992  -0.82836  -0.82641
 Alpha  occ. eigenvalues --   -0.81550  -0.81237  -0.80385  -0.79595  -0.77847
 Alpha  occ. eigenvalues --   -0.77598  -0.76692  -0.76464  -0.75932  -0.75607
 Alpha  occ. eigenvalues --   -0.75305  -0.74615  -0.74022  -0.73333  -0.71791
 Alpha  occ. eigenvalues --   -0.71557  -0.70506  -0.69912  -0.68876  -0.68666
 Alpha  occ. eigenvalues --   -0.66969  -0.66846  -0.65072  -0.65001  -0.64091
 Alpha  occ. eigenvalues --   -0.63443  -0.63380  -0.62426  -0.61895  -0.61685
 Alpha  occ. eigenvalues --   -0.61510  -0.60432  -0.60083  -0.59557  -0.58789
 Alpha  occ. eigenvalues --   -0.57834  -0.57737  -0.57296  -0.56883  -0.56624
 Alpha  occ. eigenvalues --   -0.56528  -0.55801  -0.55138  -0.55044  -0.54301
 Alpha  occ. eigenvalues --   -0.54280  -0.54219  -0.53909  -0.53348  -0.53176
 Alpha  occ. eigenvalues --   -0.52826  -0.52595  -0.52416  -0.51939  -0.51627
 Alpha  occ. eigenvalues --   -0.51530  -0.51420  -0.51033  -0.50673  -0.50431
 Alpha  occ. eigenvalues --   -0.50201  -0.50014  -0.49630  -0.49477  -0.49337
 Alpha  occ. eigenvalues --   -0.49082  -0.48979  -0.48498  -0.48037  -0.47811
 Alpha  occ. eigenvalues --   -0.47528  -0.47456  -0.47274  -0.47042  -0.46772
 Alpha  occ. eigenvalues --   -0.46647  -0.46625  -0.46277  -0.45896  -0.45411
 Alpha  occ. eigenvalues --   -0.45395  -0.45139  -0.45050  -0.44900  -0.44552
 Alpha  occ. eigenvalues --   -0.44440  -0.44240  -0.44121  -0.44039  -0.44018
 Alpha  occ. eigenvalues --   -0.43702  -0.43670  -0.43556  -0.43478  -0.43149
 Alpha  occ. eigenvalues --   -0.42926  -0.42744  -0.42679  -0.42437  -0.42046
 Alpha  occ. eigenvalues --   -0.41897  -0.41497  -0.41190  -0.41104  -0.41063
 Alpha  occ. eigenvalues --   -0.40892  -0.40836  -0.40475  -0.39868  -0.39746
 Alpha  occ. eigenvalues --   -0.39691  -0.39654  -0.39439  -0.39173  -0.38908
 Alpha  occ. eigenvalues --   -0.38805  -0.38569  -0.38495  -0.38405  -0.37992
 Alpha  occ. eigenvalues --   -0.37706  -0.37075  -0.36940  -0.36668  -0.36401
 Alpha  occ. eigenvalues --   -0.36309  -0.36022  -0.35901  -0.35735  -0.35494
 Alpha  occ. eigenvalues --   -0.35346  -0.35216  -0.34584  -0.33806  -0.33770
 Alpha  occ. eigenvalues --   -0.33085  -0.32682  -0.31973  -0.30228  -0.30163
 Alpha  occ. eigenvalues --   -0.29367  -0.28836  -0.28168  -0.27914  -0.23380
 Alpha  occ. eigenvalues --   -0.20681
 Alpha virt. eigenvalues --   -0.06196  -0.02550   0.01953   0.04075   0.05332
 Alpha virt. eigenvalues --    0.05486   0.05704   0.06969   0.07648   0.08047
 Alpha virt. eigenvalues --    0.08238   0.10793   0.11164   0.11388   0.11615

 Mulliken charges:
               1
     1  Mg   0.817886
     2  C    0.035268
     3  C   -0.208488
     4  C   -0.186314
     5  C   -0.188534
     6  N   -0.650307
     7  C    0.333958
     8  C   -0.182509
     9  C   -0.178714
    10  C    0.329142
    11  C   -0.274414
    12  C   -0.144110
    13  C   -0.261122
    14  C    0.620089
    15  O   -0.525545
    16  O   -0.482918
    17  N   -0.695945
    18  C    0.325172
    19  C   -0.025077
    20  C   -0.009031
    21  C    0.304597
    22  C   -0.378564
    23  C    0.044963
    24  C   -0.264108
    25  N   -0.649986
    26  C    0.278848
    27  C    0.086396
    28  C   -0.004770
    29  C    0.284995
    30  C   -0.379931
    31  C   -0.223825
    32  C   -0.320835
    33  N   -0.750945
    34  C    0.215543
    35  C    0.110476
    36  C   -0.032902
    37  C    0.342019
    38  C   -0.395899
    39  C    0.361732
    40  O   -0.475632
    41  C   -0.330375
    42  C    0.586696
    43  O   -0.478650
    44  O   -0.394823
    45  C   -0.091844
    46  C   -0.018280
    47  C   -0.120083
    48  C    0.116358
    49  C   -0.331306
    50  C   -0.247812
    51  C   -0.194710
    52  C   -0.161521
    53  C   -0.049897
    54  C   -0.312607
    55  C   -0.209275
    56  C   -0.163655
    57  C   -0.178184
    58  C   -0.041805
    59  C   -0.306401
    60  C   -0.158728
    61  C   -0.193989
    62  C   -0.154993
    63  C   -0.031142
    64  C   -0.293481
    65  C   -0.324255
    66  H    0.100339
    67  H    0.074922
    68  H    0.096783
    69  H    0.132626
    70  H    0.096325
    71  H    0.101835
    72  H    0.109698
    73  H    0.137103
    74  H    0.125683
    75  H    0.118297
    76  H    0.142717
    77  H    0.103252
    78  H    0.108702
    79  H    0.111747
    80  H    0.130722
    81  H    0.065336
    82  H    0.098889
    83  H    0.105725
    84  H    0.105807
    85  H    0.107734
    86  H    0.123290
    87  H    0.090906
    88  H    0.109142
    89  H    0.103171
    90  H    0.115680
    91  H    0.118478
    92  H    0.111012
    93  H    0.151673
    94  H    0.104298
    95  H    0.159889
    96  H    0.112785
    97  H    0.148923
    98  H    0.129992
    99  H    0.144138
   100  H    0.147815
   101  H    0.106897
   102  H    0.117307
   103  H    0.130539
   104  H    0.091481
   105  H    0.108304
   106  H    0.096209
   107  H    0.091006
   108  H    0.106327
   109  H    0.094704
   110  H    0.086600
   111  H    0.043653
   112  H    0.101712
   113  H    0.074943
   114  H    0.116896
   115  H    0.088682
   116  H    0.083753
   117  H    0.107319
   118  H    0.104042
   119  H    0.086278
   120  H    0.082830
   121  H    0.041221
   122  H    0.082637
   123  H    0.116329
   124  H    0.098735
   125  H    0.082951
   126  H    0.102210
   127  H    0.109469
   128  H    0.076923
   129  H    0.099481
   130  H    0.057273
   131  H    0.108485
   132  H    0.107961
   133  H    0.081975
   134  H    0.079152
   135  H    0.109522
   136  H    0.077987
   137  H    0.086877
 Sum of Mulliken charges =   0.00000

 Dipole moment (field-independent basis, Debye):
    X=              1.9498    Y=              4.7833    Z=              0.9685  Tot=              5.2554
 Quadrupole moment (field-independent basis, Debye-Ang):
   XX=           -345.6120   YY=           -389.2452   ZZ=           -399.7563
   XY=            -36.7135   XZ=             20.8462   YZ=             -3.9240

 Normal termination of Gaussian 09 at Fri Jul  5 02:49:06 2019.
