 Gaussian 09, Revision D.01,
 Gaussian 09:  ES64L-G09RevD.01 24-Apr-2013

 -------------------------------------
 # td=(NStates=1) CAM-B3LYP/6-31G(d,p)
 -------------------------------------

 --
 TD
 --
 Symbolic Z-matrix:
 Charge =  0 Multiplicity = 1

                         Standard orientation:
 ---------------------------------------------------------------------
 Center     Atomic      Atomic             Coordinates (Angstroms)
 Number     Number       Type             X           Y           Z
 ---------------------------------------------------------------------
      1         12           0       -7.093419    0.603210    0.097100
      2          6           0       -4.952505   -2.039838    0.500509
      3          6           0       -4.763246    2.806337    1.116944
      4          6           0       -9.324173    3.079346   -0.413281
      5          6           0       -9.541333   -1.755315   -0.863818
      6          7           0       -5.104133    0.387387    0.693856
      7          6           0       -4.401100   -0.771178    0.822768
      8          6           0       -2.886061   -0.434393    1.169707
      9          6           0       -3.009852    1.051174    1.543323
     10          6           0       -4.385601    1.514904    1.005716
     11          6           0       -3.038619    1.337864    3.015660
     12          6           0       -1.944610   -0.685563    0.019042
     13          6           0       -0.448234   -0.379330    0.416971
     14          6           0        0.620849   -0.587352   -0.710222
     15          8           0        0.329646   -1.006819   -1.789341
     16          8           0        1.761463   -0.350339   -0.186925
     17          7           0       -7.095070    2.657568    0.176116
     18          6           0       -6.013086    3.356338    0.609745
     19          6           0       -6.412234    4.711702    0.699470
     20          6           0       -7.714534    4.861636    0.286979
     21          6           0       -8.101455    3.545157   -0.094951
     22          6           0       -5.477678    5.823350    1.227601
     23          6           0       -8.570428    6.097872    0.143613
     24          6           0       -8.419548    7.226643    0.816014
     25          7           0       -9.124032    0.662108   -0.508214
     26          6           0       -9.777660    1.813794   -0.692129
     27          6           0      -11.187232    1.438944   -1.017862
     28          6           0      -11.248450    0.065946   -1.252723
     29          6           0       -9.956741   -0.374508   -0.915798
     30          6           0      -12.313837    2.474388   -1.284594
     31          6           0      -12.360969   -0.748550   -1.725489
     32          6           0      -12.201210   -1.142830   -3.155478
     33          7           0       -7.170587   -1.402519   -0.149673
     34          6           0       -8.306126   -2.219575   -0.529451
     35          6           0       -7.797380   -3.698854   -0.375752
     36          6           0       -6.466767   -3.542486   -0.071744
     37          6           0       -6.201440   -2.186985    0.066212
     38          6           0       -8.600060   -4.915413   -0.765914
     39          6           0       -5.405993   -4.347391    0.249162
     40          8           0       -5.125425   -5.550637    0.093325
     41          6           0       -4.236363   -3.291697    0.622139
     42          6           0       -3.723879   -3.662035    1.957268
     43          8           0       -3.857325   -2.986523    2.998921
     44          8           0       -2.818322   -4.648213    1.915187
     45          6           0       -2.020172   -4.928916    3.206874
     46          6           0        2.740002   -0.512061   -1.233679
     47          6           0        4.055047   -0.404270   -0.491984
     48          6           0        5.133338    0.298745   -0.957005
     49          6           0        5.216231    1.058324   -2.202132
     50          6           0        6.439822    0.339552   -0.151458
     51          6           0        7.655775   -0.354586   -0.910816
     52          6           0        8.870699   -0.223071   -0.076747
     53          6           0       10.254465   -0.639728   -0.880171
     54          6           0       10.110325   -2.072432   -1.464416
     55          6           0       11.436074   -0.386647    0.013837
     56          6           0       12.762177   -0.772597   -0.684960
     57          6           0       13.865520   -0.236482    0.152844
     58          6           0       15.286464   -0.174233   -0.488263
     59          6           0       15.707849   -1.528904   -0.993245
     60          6           0       16.410060    0.311069    0.460374
     61          6           0       17.770823    0.484492   -0.079453
     62          6           0       18.751722    1.292232    0.728707
     63          6           0       20.127453    1.467777    0.241425
     64          6           0       20.247867    2.313020   -0.984007
     65          6           0       21.084210    2.077235    1.377788
     66          1           0       -3.958759    3.454335    1.522294
     67          1           0      -10.082963    3.942064   -0.302327
     68          1           0      -10.276175   -2.431205   -1.051312
     69          1           0       -2.480120   -1.148041    1.902439
     70          1           0       -2.097892    1.814407    0.983330
     71          1           0       -2.061335    0.963918    3.544171
     72          1           0       -2.995980    2.370153    3.009788
     73          1           0       -3.857306    0.744025    3.638004
     74          1           0       -1.938148   -1.670765   -0.336423
     75          1           0       -2.235291   -0.085237   -0.857654
     76          1           0       -0.480328    0.514694    0.741074
     77          1           0       -0.053079   -1.126271    1.322045
     78          1           0       -5.546638    6.817381    0.669363
     79          1           0       -5.794082    6.153693    2.361039
     80          1           0       -4.446934    5.343635    1.234758
     81          1           0       -9.114945    5.898713   -0.710668
     82          1           0       -9.003532    8.084187    0.729164
     83          1           0       -7.471008    7.286297    1.411949
     84          1           0      -11.878349    3.369196   -1.824810
     85          1           0      -13.061825    1.987250   -1.850671
     86          1           0      -12.805841    2.991939   -0.219571
     87          1           0      -12.332009   -1.665043   -1.114664
     88          1           0      -13.320327   -0.270894   -1.539400
     89          1           0      -13.091598   -1.539429   -3.656129
     90          1           0      -11.876852   -0.292549   -3.847717
     91          1           0      -11.283865   -1.905828   -3.406768
     92          1           0       -9.035575   -4.967456   -1.778443
     93          1           0       -7.922096   -5.776176   -0.551205
     94          1           0       -9.457051   -4.980863   -0.017214
     95          1           0       -3.544838   -3.651500   -0.273873
     96          1           0       -1.535723   -3.958910    3.601564
     97          1           0       -2.591178   -5.387831    3.856730
     98          1           0       -1.099980   -5.539033    2.740063
     99          1           0        2.507393   -1.287046   -1.779436
    100          1           0        2.572323    0.414491   -2.080276
    101          1           0        4.056162   -1.084102    0.365997
    102          1           0        4.134697    1.571418   -2.427671
    103          1           0        5.678137    1.964659   -1.911916
    104          1           0        5.863178    0.518186   -3.076974
    105          1           0        6.570403    1.365108    0.216306
    106          1           0        6.278813   -0.247361    0.872976
    107          1           0        7.498995   -1.371094   -1.395092
    108          1           0        7.690021    0.214536   -1.958274
    109          1           0        8.851622    0.897363    0.228183
    110          1           0        8.715231   -0.856373    0.826939
    111          1           0       10.546869    0.094217   -1.624183
    112          1           0        9.315184   -2.178965   -2.049512
    113          1           0       10.955306   -2.268659   -2.311708
    114          1           0       10.299220   -2.905704   -0.647742
    115          1           0       11.394382    0.729967    0.343685
    116          1           0       11.391419   -0.979875    0.998126
    117          1           0       12.792229   -1.977148   -0.821441
    118          1           0       12.713420   -0.512888   -1.811943
    119          1           0       13.474075    0.814846    0.424634
    120          1           0       14.035276   -0.846619    0.952121
    121          1           0       15.175984    0.580500   -1.354738
    122          1           0       15.857838   -2.127215   -0.139339
    123          1           0       15.149465   -1.996686   -1.564608
    124          1           0       16.755484   -1.237417   -1.629379
    125          1           0       16.257480    1.491246    1.022612
    126          1           0       16.488354   -0.522038    1.380277
    127          1           0       18.244459   -0.555772   -0.236514
    128          1           0       17.672271    0.741933   -1.153379
    129          1           0       18.353133    2.424748    0.694614
    130          1           0       18.818294    0.897981    1.788587
    131          1           0       20.527776    0.546040    0.022988
    132          1           0       19.682858    3.354474   -0.773734
    133          1           0       21.238821    2.685392   -1.413444
    134          1           0       19.646920    1.865230   -1.734969
    135          1           0       20.810644    1.193404    2.273018
    136          1           0       22.122320    2.105825    1.018986
    137          1           0       20.823484    3.130739    1.619253
 ---------------------------------------------------------------------

 SCF Done:  E(RCAM-B3LYP) =  -2932.61381371     A.U. after   16 cycles

 Excitation energies and oscillator strengths:

 Excited State   1:      Singlet-A      2.1422 eV  578.78 nm  f=0.2263  <S**2>=0.000
     240 -> 243        0.26484
     241 -> 242        0.64194
 This state for optimization and/or second-order correction.
 Total Energy, E(TD-HF/TD-KS) =  -2932.53508994
 Copying the excited state density for this state as the 1-particle RhoCI density.

 The electronic state is 1-A.
 Alpha  occ. eigenvalues --  -46.84373 -19.27670 -19.25482 -19.20596 -19.20511
 Alpha  occ. eigenvalues --  -19.19244 -14.41518 -14.39477 -14.39232 -14.39012
 Alpha  occ. eigenvalues --  -10.38598 -10.38435 -10.34832 -10.32501 -10.31881
 Alpha  occ. eigenvalues --  -10.31795 -10.30705 -10.30439 -10.30305 -10.29723
 Alpha  occ. eigenvalues --  -10.28977 -10.28603 -10.28145 -10.28037 -10.28005
 Alpha  occ. eigenvalues --  -10.27988 -10.27803 -10.27794 -10.27775 -10.27622
 Alpha  occ. eigenvalues --  -10.27619 -10.27470 -10.27362 -10.27293 -10.27239
 Alpha  occ. eigenvalues --  -10.27196 -10.26970 -10.26843 -10.26746 -10.26646
 Alpha  occ. eigenvalues --  -10.26634 -10.26597 -10.26548 -10.26509 -10.26461
 Alpha  occ. eigenvalues --  -10.26415 -10.26385 -10.26328 -10.26309 -10.26193
 Alpha  occ. eigenvalues --  -10.26169 -10.26086 -10.26019 -10.26005 -10.25916
 Alpha  occ. eigenvalues --  -10.25909 -10.25454 -10.25289 -10.25263 -10.25210
 Alpha  occ. eigenvalues --  -10.25199 -10.25069 -10.24968 -10.24613 -10.23847
 Alpha  occ. eigenvalues --   -3.13367  -1.88086  -1.87584  -1.87557  -1.21885
 Alpha  occ. eigenvalues --   -1.15778  -1.10862  -1.09760  -1.05820  -1.05414
 Alpha  occ. eigenvalues --   -1.04119  -1.03071  -1.02385  -0.94115  -0.91338
 Alpha  occ. eigenvalues --   -0.90987  -0.90069  -0.90054  -0.89458  -0.89089
 Alpha  occ. eigenvalues --   -0.88608  -0.88458  -0.87832  -0.87298  -0.86042
 Alpha  occ. eigenvalues --   -0.85276  -0.84330  -0.83086  -0.82988  -0.82359
 Alpha  occ. eigenvalues --   -0.82046  -0.81520  -0.80725  -0.80435  -0.78721
 Alpha  occ. eigenvalues --   -0.77581  -0.76957  -0.75980  -0.75721  -0.75420
 Alpha  occ. eigenvalues --   -0.74888  -0.74347  -0.74234  -0.72817  -0.72359
 Alpha  occ. eigenvalues --   -0.71333  -0.70139  -0.69938  -0.69201  -0.68808
 Alpha  occ. eigenvalues --   -0.67760  -0.66221  -0.65978  -0.65626  -0.64288
 Alpha  occ. eigenvalues --   -0.64227  -0.63571  -0.62876  -0.62675  -0.61647
 Alpha  occ. eigenvalues --   -0.61501  -0.60760  -0.60281  -0.60152  -0.59271
 Alpha  occ. eigenvalues --   -0.58547  -0.57813  -0.57517  -0.57213  -0.56598
 Alpha  occ. eigenvalues --   -0.55973  -0.55565  -0.55442  -0.55030  -0.54781
 Alpha  occ. eigenvalues --   -0.54283  -0.54070  -0.53907  -0.53288  -0.52805
 Alpha  occ. eigenvalues --   -0.52534  -0.52444  -0.52231  -0.52012  -0.51818
 Alpha  occ. eigenvalues --   -0.51611  -0.51172  -0.51094  -0.50866  -0.50760
 Alpha  occ. eigenvalues --   -0.50233  -0.49929  -0.49630  -0.49401  -0.49209
 Alpha  occ. eigenvalues --   -0.49165  -0.48931  -0.48582  -0.48444  -0.48274
 Alpha  occ. eigenvalues --   -0.48168  -0.47806  -0.47708  -0.47567  -0.47465
 Alpha  occ. eigenvalues --   -0.47272  -0.46938  -0.46714  -0.46245  -0.46103
 Alpha  occ. eigenvalues --   -0.45675  -0.45543  -0.45359  -0.45129  -0.44992
 Alpha  occ. eigenvalues --   -0.44909  -0.44598  -0.44211  -0.43868  -0.43748
 Alpha  occ. eigenvalues --   -0.43650  -0.43571  -0.43478  -0.43361  -0.43131
 Alpha  occ. eigenvalues --   -0.42968  -0.42481  -0.42325  -0.42249  -0.42076
 Alpha  occ. eigenvalues --   -0.41900  -0.41742  -0.41649  -0.41384  -0.40968
 Alpha  occ. eigenvalues --   -0.40888  -0.40677  -0.40632  -0.40516  -0.40349
 Alpha  occ. eigenvalues --   -0.40190  -0.39821  -0.39745  -0.39138  -0.39064
 Alpha  occ. eigenvalues --   -0.38824  -0.38564  -0.38370  -0.38052  -0.37429
 Alpha  occ. eigenvalues --   -0.37377  -0.37005  -0.36826  -0.36741  -0.36620
 Alpha  occ. eigenvalues --   -0.36544  -0.36390  -0.35458  -0.35247  -0.35216
 Alpha  occ. eigenvalues --   -0.35105  -0.34912  -0.34413  -0.33626  -0.33323
 Alpha  occ. eigenvalues --   -0.32868  -0.32715  -0.32266  -0.31264  -0.30755
 Alpha  occ. eigenvalues --   -0.29642  -0.29479  -0.27737  -0.27334  -0.23428
 Alpha  occ. eigenvalues --   -0.21412
 Alpha virt. eigenvalues --   -0.06163  -0.03468   0.01024   0.04459   0.05401
 Alpha virt. eigenvalues --    0.05544   0.06094   0.06760   0.07397   0.07692
 Alpha virt. eigenvalues --    0.08358   0.10685   0.10764   0.11222   0.11379

 Mulliken charges:
               1
     1  Mg   0.810394
     2  C    0.068327
     3  C   -0.188540
     4  C   -0.180330
     5  C   -0.171493
     6  N   -0.671616
     7  C    0.323187
     8  C   -0.128778
     9  C   -0.161097
    10  C    0.360576
    11  C   -0.276414
    12  C   -0.180570
    13  C   -0.253537
    14  C    0.601726
    15  O   -0.476638
    16  O   -0.418370
    17  N   -0.706200
    18  C    0.324322
    19  C   -0.023560
    20  C    0.010127
    21  C    0.272308
    22  C   -0.364164
    23  C   -0.024948
    24  C   -0.255659
    25  N   -0.668140
    26  C    0.308270
    27  C   -0.018718
    28  C    0.055163
    29  C    0.265116
    30  C   -0.353146
    31  C   -0.236983
    32  C   -0.306409
    33  N   -0.761839
    34  C    0.238927
    35  C    0.025241
    36  C    0.080238
    37  C    0.425317
    38  C   -0.382840
    39  C    0.293570
    40  O   -0.474278
    41  C   -0.361174
    42  C    0.639490
    43  O   -0.514012
    44  O   -0.471551
    45  C   -0.075448
    46  C   -0.004357
    47  C   -0.126775
    48  C    0.107989
    49  C   -0.356338
    50  C   -0.227917
    51  C   -0.171902
    52  C   -0.167739
    53  C   -0.057402
    54  C   -0.303326
    55  C   -0.169683
    56  C   -0.178372
    57  C   -0.146760
    58  C   -0.088575
    59  C   -0.269280
    60  C   -0.126425
    61  C   -0.173647
    62  C   -0.146625
    63  C   -0.059238
    64  C   -0.304991
    65  C   -0.287854
    66  H    0.092744
    67  H    0.098347
    68  H    0.080876
    69  H    0.121399
    70  H    0.064222
    71  H    0.086859
    72  H    0.113891
    73  H    0.125823
    74  H    0.120613
    75  H    0.108036
    76  H    0.127706
    77  H    0.092273
    78  H    0.120464
    79  H    0.100925
    80  H    0.101334
    81  H    0.099060
    82  H    0.110970
    83  H    0.096980
    84  H    0.116435
    85  H    0.116934
    86  H    0.080397
    87  H    0.109417
    88  H    0.112484
    89  H    0.107842
    90  H    0.107293
    91  H    0.085378
    92  H    0.143038
    93  H    0.153029
    94  H    0.124603
    95  H    0.171555
    96  H    0.132566
    97  H    0.155954
    98  H    0.120730
    99  H    0.157734
   100  H    0.084997
   101  H    0.102085
   102  H    0.095910
   103  H    0.125048
   104  H    0.122362
   105  H    0.111843
   106  H    0.079028
   107  H    0.102260
   108  H    0.068293
   109  H    0.084826
   110  H    0.099351
   111  H    0.094917
   112  H    0.118781
   113  H    0.074624
   114  H    0.098707
   115  H    0.083406
   116  H    0.080344
   117  H    0.074678
   118  H    0.081181
   119  H    0.085456
   120  H    0.102036
   121  H    0.072937
   122  H    0.102405
   123  H    0.107847
   124  H    0.069043
   125  H    0.045249
   126  H    0.056102
   127  H    0.084180
   128  H    0.095717
   129  H    0.067418
   130  H    0.088852
   131  H    0.098052
   132  H    0.069030
   133  H    0.099780
   134  H    0.107599
   135  H    0.060869
   136  H    0.104713
   137  H    0.105533
 Sum of Mulliken charges =   0.00000

 Dipole moment (field-independent basis, Debye):
    X=              1.9826    Y=              2.5248    Z=             -0.4398  Tot=              3.2401
 Quadrupole moment (field-independent basis, Debye-Ang):
   XX=           -348.7776   YY=           -393.4606   ZZ=           -399.5067
   XY=            -14.3068   XZ=              2.5137   YZ=             -4.5782

 Normal termination of Gaussian 09 at Sat Jul  6 10:53:33 2019.
