 Gaussian 16, Revision A.03,
 Gaussian 16:  ES64L-G16RevA.03 25-Dec-2016

 ----------------------------------------------------------------------
 # td=(NStates=1) iop(3/107=0140000000,3/108=0140000000) CAM-B3LYP/6-31
 G(d,p)
 ----------------------------------------------------------------------

 --
 TD
 --
 Symbolic Z-matrix:
 Charge =  0 Multiplicity = 1

                         Standard orientation:
 ---------------------------------------------------------------------
 Center     Atomic      Atomic             Coordinates (Angstroms)
 Number     Number       Type             X           Y           Z
 ---------------------------------------------------------------------
      1         12           0       -7.193757    0.600447    0.038983
      2          6           0       -4.974574   -1.931722    0.557831
      3          6           0       -4.717800    2.833242    1.214229
      4          6           0       -9.410314    3.226280   -0.422722
      5          6           0       -9.551599   -1.646953   -0.923828
      6          7           0       -5.123171    0.461515    0.707569
      7          6           0       -4.416571   -0.702694    0.743627
      8          6           0       -2.952365   -0.471398    1.173559
      9          6           0       -2.928608    1.029496    1.726692
     10          6           0       -4.277311    1.487313    1.119266
     11          6           0       -2.968400    1.271595    3.202344
     12          6           0       -1.938388   -0.641193    0.042055
     13          6           0       -0.492618   -0.648844    0.614386
     14          6           0        0.531428   -0.860897   -0.403169
     15          8           0        0.346097   -1.081692   -1.640985
     16          8           0        1.820720   -0.553042   -0.107721
     17          7           0       -7.087372    2.621329    0.239521
     18          6           0       -6.001099    3.359516    0.747757
     19          6           0       -6.325372    4.826502    0.753353
     20          6           0       -7.669246    4.943695    0.292142
     21          6           0       -8.078122    3.569106    0.006084
     22          6           0       -5.341063    5.908676    1.170235
     23          6           0       -8.372932    6.148077    0.050534
     24          6           0       -8.212246    7.391136    0.477107
     25          7           0       -9.064634    0.692585   -0.613939
     26          6           0       -9.714967    1.875299   -0.698202
     27          6           0      -11.173478    1.533796   -1.036161
     28          6           0      -11.231057    0.114682   -1.175332
     29          6           0       -9.936000   -0.358897   -0.875135
     30          6           0      -12.265729    2.546314   -1.198666
     31          6           0      -12.403103   -0.623990   -1.695665
     32          6           0      -12.399830   -1.046390   -3.250446
     33          7           0       -7.327920   -1.282325   -0.081600
     34          6           0       -8.291012   -2.118319   -0.580491
     35          6           0       -7.884016   -3.472158   -0.628459
     36          6           0       -6.615406   -3.532511   -0.054312
     37          6           0       -6.246561   -2.198857    0.181083
     38          6           0       -8.743599   -4.765589   -0.924141
     39          6           0       -5.332569   -4.340556    0.156993
     40          8           0       -5.191049   -5.551706    0.098895
     41          6           0       -4.238683   -3.340849    0.620487
     42          6           0       -3.600826   -3.718333    1.962902
     43          8           0       -3.906300   -3.139422    2.948593
     44          8           0       -2.731408   -4.784973    1.729165
     45          6           0       -2.210527   -5.213522    2.886284
     46          6           0        2.872307   -0.932475   -1.000374
     47          6           0        4.159876   -0.580064   -0.439738
     48          6           0        5.178293    0.162605   -0.934279
     49          6           0        5.010691    0.984380   -2.259993
     50          6           0        6.525641    0.186334   -0.204119
     51          6           0        7.704333   -0.234767   -0.998267
     52          6           0        8.987290   -0.207581   -0.194983
     53          6           0       10.178580   -0.523240   -0.887816
     54          6           0       10.172034   -2.057941   -1.274322
     55          6           0       11.414385   -0.164362   -0.065466
     56          6           0       12.750364   -0.486754   -0.685935
     57          6           0       14.004935   -0.172749    0.297508
     58          6           0       15.333176   -0.270795   -0.438287
     59          6           0       15.690403   -1.684957   -0.917822
     60          6           0       16.478075    0.438562    0.373760
     61          6           0       17.790363    0.481488   -0.301075
     62          6           0       18.681279    1.383945    0.666652
     63          6           0       20.163629    1.528648    0.240120
     64          6           0       20.271296    2.189894   -1.250757
     65          6           0       20.959027    2.308396    1.419239
     66          1           0       -4.116551    3.611953    1.664967
     67          1           0      -10.229418    3.800349   -0.355285
     68          1           0      -10.242450   -2.408148   -1.234006
     69          1           0       -2.672415   -1.155697    1.927660
     70          1           0       -2.102727    1.625331    1.243704
     71          1           0       -2.163812    0.721228    3.781798
     72          1           0       -3.237404    2.244272    3.548948
     73          1           0       -3.840193    0.641862    3.582720
     74          1           0       -2.039158   -1.604836   -0.489934
     75          1           0       -2.136946    0.032434   -0.684451
     76          1           0       -0.142747    0.421267    0.983591
     77          1           0       -0.347439   -1.403762    1.387373
     78          1           0       -5.631790    6.806306    0.797312
     79          1           0       -5.366439    6.211118    2.289192
     80          1           0       -4.228597    5.557093    0.865225
     81          1           0       -9.409278    6.042216   -0.535719
     82          1           0       -9.032176    8.280022    0.221512
     83          1           0       -7.321446    7.613650    1.038282
     84          1           0      -11.896589    3.401145   -1.767951
     85          1           0      -12.956863    1.845480   -1.521867
     86          1           0      -12.605251    2.937619   -0.282946
     87          1           0      -12.431041   -1.515360   -1.114174
     88          1           0      -13.340983   -0.192310   -1.542907
     89          1           0      -13.352793   -1.794144   -3.336270
     90          1           0      -12.499960   -0.046043   -3.748269
     91          1           0      -11.563167   -1.692692   -3.530506
     92          1           0       -8.827319   -5.137929   -1.981938
     93          1           0       -8.004005   -5.810687   -0.527687
     94          1           0       -9.646069   -4.766333   -0.519239
     95          1           0       -3.554131   -3.438592   -0.184691
     96          1           0       -1.683040   -4.377051    3.367365
     97          1           0       -2.858448   -5.618497    3.526700
     98          1           0       -1.497546   -6.078919    2.488010
     99          1           0        2.934026   -2.000329   -1.234301
    100          1           0        2.760110   -0.490814   -2.026836
    101          1           0        4.270408   -1.226900    0.655548
    102          1           0        3.917724    0.944018   -2.349020
    103          1           0        5.530542    1.975453   -2.101147
    104          1           0        5.640815    0.450713   -2.981843
    105          1           0        6.864784    1.126452    0.399200
    106          1           0        6.393484   -0.504102    0.669982
    107          1           0        7.612892   -1.309206   -1.403563
    108          1           0        7.819237    0.401256   -1.943232
    109          1           0        9.133882    0.742520    0.602362
    110          1           0        8.600312   -0.870767    0.695612
    111          1           0       10.235639   -0.064126   -1.831114
    112          1           0        9.154419   -2.341015   -1.805285
    113          1           0       11.113430   -2.161226   -1.997365
    114          1           0       10.334259   -2.962137   -0.524209
    115          1           0       11.231168    0.907044    0.365545
    116          1           0       11.457791   -0.818457    0.850207
    117          1           0       12.729911   -1.579873   -0.917761
    118          1           0       13.035315    0.014428   -1.642124
    119          1           0       13.737693    0.827870    0.877896
    120          1           0       14.093957   -0.873785    1.063391
    121          1           0       15.403182    0.178749   -1.320742
    122          1           0       15.985371   -2.290740    0.001069
    123          1           0       14.763550   -2.176468   -1.490989
    124          1           0       16.406214   -1.436484   -1.747622
    125          1           0       15.799561    1.425734    0.926499
    126          1           0       16.581537   -0.177395    1.280159
    127          1           0       18.453119   -0.493676   -0.415351
    128          1           0       17.615601    1.065082   -1.199648
    129          1           0       18.281875    2.373442    0.649371
    130          1           0       18.786800    0.935387    1.770035
    131          1           0       20.507106    0.546378    0.275679
    132          1           0       19.428846    3.161010   -1.474879
    133          1           0       21.491945    2.485180   -1.165566
    134          1           0       19.998317    1.464194   -2.219341
    135          1           0       20.568223    1.858632    2.351628
    136          1           0       21.959454    2.297219    1.294450
    137          1           0       20.539475    3.396269    1.396949
 ---------------------------------------------------------------------

 SCF Done:  E(RCAM-B3LYP) =  -2933.46220255     A.U. after   16 cycles

 Excitation energies and oscillator strengths:

 Excited State   1:      Singlet-A      1.9936 eV  621.93 nm  f=0.2794  <S**2>=0.000
     240 -> 243        0.23513
     241 -> 242        0.66493
 This state for optimization and/or second-order correction.
 Total Energy, E(TD-HF/TD-DFT) =  -2933.38894076
 Copying the excited state density for this state as the 1-particle RhoCI density.

 The electronic state is 1-A.
 Alpha  occ. eigenvalues --  -46.78369 -19.23023 -19.21684 -19.19162 -19.16555
 Alpha  occ. eigenvalues --  -19.15440 -14.38267 -14.36246 -14.34744 -14.34682
 Alpha  occ. eigenvalues --  -10.35847 -10.34677 -10.31296 -10.27278 -10.27014
 Alpha  occ. eigenvalues --  -10.26510 -10.26316 -10.26135 -10.26074 -10.25443
 Alpha  occ. eigenvalues --  -10.25338 -10.24805 -10.24460 -10.24243 -10.24215
 Alpha  occ. eigenvalues --  -10.24020 -10.23983 -10.23834 -10.23790 -10.23650
 Alpha  occ. eigenvalues --  -10.23465 -10.23321 -10.23234 -10.23059 -10.22974
 Alpha  occ. eigenvalues --  -10.22882 -10.22820 -10.22783 -10.22752 -10.22647
 Alpha  occ. eigenvalues --  -10.22540 -10.22454 -10.22373 -10.22205 -10.22184
 Alpha  occ. eigenvalues --  -10.22111 -10.22098 -10.22050 -10.22008 -10.21975
 Alpha  occ. eigenvalues --  -10.21961 -10.21948 -10.21828 -10.21658 -10.21545
 Alpha  occ. eigenvalues --  -10.21535 -10.21501 -10.21419 -10.21368 -10.21353
 Alpha  occ. eigenvalues --  -10.21044 -10.21021 -10.20678 -10.20577 -10.19722
 Alpha  occ. eigenvalues --   -3.07404  -1.82300  -1.81903  -1.81834  -1.15330
 Alpha  occ. eigenvalues --   -1.12287  -1.08695  -1.06103  -1.00848  -0.98759
 Alpha  occ. eigenvalues --   -0.97809  -0.97083  -0.96187  -0.87635  -0.86781
 Alpha  occ. eigenvalues --   -0.85867  -0.85034  -0.84551  -0.84188  -0.83831
 Alpha  occ. eigenvalues --   -0.83016  -0.82872  -0.82160  -0.81436  -0.80968
 Alpha  occ. eigenvalues --   -0.80391  -0.79432  -0.78858  -0.78041  -0.77726
 Alpha  occ. eigenvalues --   -0.77197  -0.76518  -0.75599  -0.74887  -0.74006
 Alpha  occ. eigenvalues --   -0.73370  -0.72917  -0.71688  -0.70654  -0.70259
 Alpha  occ. eigenvalues --   -0.69622  -0.69427  -0.68835  -0.67915  -0.67538
 Alpha  occ. eigenvalues --   -0.66971  -0.66625  -0.65477  -0.64316  -0.63759
 Alpha  occ. eigenvalues --   -0.62513  -0.61811  -0.61323  -0.61264  -0.60411
 Alpha  occ. eigenvalues --   -0.59958  -0.59387  -0.59240  -0.59228  -0.58310
 Alpha  occ. eigenvalues --   -0.57613  -0.56461  -0.56229  -0.55717  -0.54998
 Alpha  occ. eigenvalues --   -0.54731  -0.54609  -0.53939  -0.53715  -0.53181
 Alpha  occ. eigenvalues --   -0.52808  -0.52261  -0.51625  -0.51280  -0.50980
 Alpha  occ. eigenvalues --   -0.50609  -0.50077  -0.49815  -0.49381  -0.49064
 Alpha  occ. eigenvalues --   -0.48927  -0.48537  -0.48244  -0.47862  -0.47794
 Alpha  occ. eigenvalues --   -0.47661  -0.47554  -0.47271  -0.46998  -0.46755
 Alpha  occ. eigenvalues --   -0.46580  -0.46374  -0.46181  -0.45896  -0.45708
 Alpha  occ. eigenvalues --   -0.45559  -0.45395  -0.45231  -0.45199  -0.44934
 Alpha  occ. eigenvalues --   -0.44440  -0.44331  -0.44234  -0.43901  -0.43777
 Alpha  occ. eigenvalues --   -0.43626  -0.43322  -0.43235  -0.43158  -0.42929
 Alpha  occ. eigenvalues --   -0.42788  -0.42718  -0.42415  -0.41787  -0.41514
 Alpha  occ. eigenvalues --   -0.41364  -0.41232  -0.40994  -0.40965  -0.40478
 Alpha  occ. eigenvalues --   -0.40008  -0.39948  -0.39863  -0.39616  -0.39528
 Alpha  occ. eigenvalues --   -0.39349  -0.39177  -0.39041  -0.38903  -0.38820
 Alpha  occ. eigenvalues --   -0.38686  -0.38611  -0.38491  -0.38211  -0.38126
 Alpha  occ. eigenvalues --   -0.37987  -0.37790  -0.37297  -0.37020  -0.36982
 Alpha  occ. eigenvalues --   -0.36845  -0.36328  -0.36185  -0.35924  -0.35918
 Alpha  occ. eigenvalues --   -0.35610  -0.35490  -0.35403  -0.34794  -0.34672
 Alpha  occ. eigenvalues --   -0.34657  -0.34087  -0.34075  -0.33818  -0.33801
 Alpha  occ. eigenvalues --   -0.33570  -0.33355  -0.33094  -0.32732  -0.32418
 Alpha  occ. eigenvalues --   -0.31980  -0.31886  -0.31566  -0.30901  -0.30058
 Alpha  occ. eigenvalues --   -0.29760  -0.29680  -0.29094  -0.28775  -0.27221
 Alpha  occ. eigenvalues --   -0.27063  -0.27029  -0.25100  -0.24679  -0.21784
 Alpha  occ. eigenvalues --   -0.20035
 Alpha virt. eigenvalues --   -0.07412  -0.03845  -0.00534   0.01815   0.02616
 Alpha virt. eigenvalues --    0.03190   0.04104   0.04634   0.05524   0.05593
 Alpha virt. eigenvalues --    0.06277   0.08595   0.09099   0.09298   0.09382

 Mulliken charges:
               1
     1  Mg   0.820893
     2  C    0.056440
     3  C   -0.196027
     4  C   -0.133698
     5  C   -0.179504
     6  N   -0.607475
     7  C    0.303245
     8  C   -0.162198
     9  C   -0.118416
    10  C    0.300061
    11  C   -0.318036
    12  C   -0.163491
    13  C   -0.265639
    14  C    0.589005
    15  O   -0.497341
    16  O   -0.463435
    17  N   -0.683916
    18  C    0.291128
    19  C    0.009953
    20  C    0.052117
    21  C    0.281644
    22  C   -0.374151
    23  C   -0.060632
    24  C   -0.254585
    25  N   -0.736493
    26  C    0.332758
    27  C   -0.057399
    28  C    0.053708
    29  C    0.327425
    30  C   -0.366102
    31  C   -0.263273
    32  C   -0.299251
    33  N   -0.750485
    34  C    0.324461
    35  C   -0.015470
    36  C    0.034030
    37  C    0.251098
    38  C   -0.375828
    39  C    0.361702
    40  O   -0.451276
    41  C   -0.303716
    42  C    0.628777
    43  O   -0.429795
    44  O   -0.420194
    45  C   -0.083527
    46  C    0.019183
    47  C   -0.117488
    48  C    0.100999
    49  C   -0.352802
    50  C   -0.227763
    51  C   -0.166027
    52  C   -0.149218
    53  C   -0.028663
    54  C   -0.313396
    55  C   -0.170927
    56  C   -0.190298
    57  C   -0.173079
    58  C   -0.063935
    59  C   -0.305508
    60  C   -0.147732
    61  C   -0.190616
    62  C   -0.161613
    63  C   -0.064311
    64  C   -0.275674
    65  C   -0.315284
    66  H    0.080485
    67  H    0.085180
    68  H    0.082543
    69  H    0.103831
    70  H    0.100952
    71  H    0.106137
    72  H    0.127395
    73  H    0.119031
    74  H    0.123877
    75  H    0.129504
    76  H    0.138387
    77  H    0.142866
    78  H    0.129467
    79  H    0.115875
    80  H    0.106414
    81  H    0.068724
    82  H    0.096871
    83  H    0.086671
    84  H    0.123796
    85  H    0.112384
    86  H    0.131088
    87  H    0.104713
    88  H    0.113584
    89  H    0.084223
    90  H    0.117883
    91  H    0.120191
    92  H    0.123171
    93  H    0.100973
    94  H    0.134557
    95  H    0.162897
    96  H    0.105577
    97  H    0.135530
    98  H    0.103283
    99  H    0.127653
   100  H    0.114171
   101  H    0.054215
   102  H    0.120883
   103  H    0.118204
   104  H    0.129398
   105  H    0.094664
   106  H    0.097215
   107  H    0.095190
   108  H    0.078580
   109  H    0.049332
   110  H    0.081919
   111  H    0.104323
   112  H    0.087908
   113  H    0.083474
   114  H    0.095741
   115  H    0.076073
   116  H    0.093798
   117  H    0.098326
   118  H    0.086716
   119  H    0.070649
   120  H    0.099468
   121  H    0.087403
   122  H    0.096684
   123  H    0.085971
   124  H    0.104072
   125  H    0.056973
   126  H    0.085984
   127  H    0.100354
   128  H    0.102203
   129  H    0.099070
   130  H    0.064477
   131  H    0.096758
   132  H    0.069430
   133  H    0.080869
   134  H    0.089908
   135  H    0.104000
   136  H    0.113313
   137  H    0.093621
 Sum of Mulliken charges =  -0.00000

 Dipole moment (field-independent basis, Debye):
    X=              1.3763    Y=              3.0356    Z=              1.4713  Tot=              3.6433
 Quadrupole moment (field-independent basis, Debye-Ang):
   XX=           -342.4694   YY=           -397.2650   ZZ=           -400.3688
   XY=            -25.5623   XZ=              6.7761   YZ=             -0.2036

 Normal termination of Gaussian 16 at Sun Sep 15 00:50:19 2019.
