 Gaussian 09, Revision D.01,
 Gaussian 09:  ES64L-G09RevD.01 24-Apr-2013

 -------------------------------------
 # td=(NStates=1) CAM-B3LYP/6-31G(d,p)
 -------------------------------------

 --
 TD
 --
 Symbolic Z-matrix:
 Charge =  0 Multiplicity = 1

                         Standard orientation:
 ---------------------------------------------------------------------
 Center     Atomic      Atomic             Coordinates (Angstroms)
 Number     Number       Type             X           Y           Z
 ---------------------------------------------------------------------
      1         12           0       -7.122156    0.612264    0.115545
      2          6           0       -4.855223   -1.915746    0.649222
      3          6           0       -4.806610    2.888330    1.080313
      4          6           0       -9.439013    3.025200   -0.539411
      5          6           0       -9.450912   -1.861806   -0.862889
      6          7           0       -5.154883    0.460758    0.737421
      7          6           0       -4.339210   -0.663197    0.865998
      8          6           0       -2.950072   -0.263636    1.305262
      9          6           0       -3.058332    1.130211    1.650077
     10          6           0       -4.445221    1.481549    1.089322
     11          6           0       -3.165631    1.406393    3.209689
     12          6           0       -1.905949   -0.539671    0.208527
     13          6           0       -0.540127   -0.408559    0.569449
     14          6           0        0.446359   -0.615665   -0.641406
     15          8           0        0.170588   -1.182618   -1.738172
     16          8           0        1.733048   -0.383379   -0.334399
     17          7           0       -7.110683    2.623607    0.329206
     18          6           0       -5.993773    3.350505    0.733522
     19          6           0       -6.461720    4.679568    0.803027
     20          6           0       -7.800756    4.785771    0.401067
     21          6           0       -8.188361    3.465701    0.084766
     22          6           0       -5.430271    5.712435    1.185677
     23          6           0       -8.510423    6.001961    0.174552
     24          6           0       -8.435709    7.168237    0.914139
     25          7           0       -9.051110    0.628637   -0.534273
     26          6           0       -9.804533    1.778847   -0.696981
     27          6           0      -11.010022    1.411534   -1.278118
     28          6           0      -11.194454    0.037022   -1.323201
     29          6           0       -9.863554   -0.453899   -0.916922
     30          6           0      -12.236690    2.381112   -1.438239
     31          6           0      -12.371224   -0.795223   -1.755705
     32          6           0      -12.120866   -1.093684   -3.273055
     33          7           0       -7.172767   -1.448109   -0.090968
     34          6           0       -8.240810   -2.276506   -0.522276
     35          6           0       -7.722551   -3.685086   -0.517552
     36          6           0       -6.418007   -3.584121   -0.062738
     37          6           0       -6.107740   -2.209964    0.089653
     38          6           0       -8.531287   -4.853545   -0.877389
     39          6           0       -5.279050   -4.374341    0.208109
     40          8           0       -5.091169   -5.589949    0.311477
     41          6           0       -4.136727   -3.238375    0.658051
     42          6           0       -3.479165   -3.628518    1.992631
     43          8           0       -3.701482   -3.046188    3.010810
     44          8           0       -2.619047   -4.636463    1.852622
     45          6           0       -1.994649   -5.231804    3.006218
     46          6           0        2.717213   -0.608522   -1.300407
     47          6           0        4.060612   -0.220839   -0.665043
     48          6           0        5.131270    0.452204   -1.052453
     49          6           0        5.048800    1.313549   -2.242838
     50          6           0        6.352831    0.484757   -0.301817
     51          6           0        7.525653   -0.091123   -0.995525
     52          6           0        8.877956   -0.067980   -0.136348
     53          6           0       10.169905   -0.635471   -0.890349
     54          6           0       10.008010   -2.155489   -1.274883
     55          6           0       11.351102   -0.445385   -0.071108
     56          6           0       12.754784   -0.488577   -0.779726
     57          6           0       13.866932   -0.041802    0.106931
     58          6           0       15.268892   -0.171419   -0.557506
     59          6           0       15.587274   -1.683115   -0.789810
     60          6           0       16.365986    0.439668    0.376024
     61          6           0       17.816011    0.576811   -0.244644
     62          6           0       18.708068    1.233039    0.772687
     63          6           0       20.198365    1.295365    0.342925
     64          6           0       20.480127    2.175549   -1.052900
     65          6           0       21.104991    1.838679    1.489590
     66          1           0       -3.885734    3.575345    1.384378
     67          1           0      -10.247685    3.824157   -0.864862
     68          1           0       -9.957515   -2.727669   -1.173267
     69          1           0       -2.524571   -0.875896    2.166135
     70          1           0       -2.307055    1.740733    1.261608
     71          1           0       -1.965218    1.324176    3.662409
     72          1           0       -3.537317    2.404211    3.346488
     73          1           0       -3.734250    0.494050    3.603474
     74          1           0       -2.133656   -1.650403   -0.185669
     75          1           0       -2.074145    0.253225   -0.746101
     76          1           0       -0.356414    0.700840    0.786442
     77          1           0       -0.452078   -1.096226    1.294106
     78          1           0       -5.929713    6.781219    0.822713
     79          1           0       -5.399803    5.880689    2.418674
     80          1           0       -4.537058    5.569569    0.941067
     81          1           0       -9.294797    6.069171   -0.513141
     82          1           0       -8.935093    8.007138    0.551969
     83          1           0       -7.807963    7.512578    1.803213
     84          1           0      -12.027790    3.102120   -2.479688
     85          1           0      -13.123015    1.974900   -1.776361
     86          1           0      -12.513417    3.225746   -0.707038
     87          1           0      -12.336105   -1.783195   -1.165271
     88          1           0      -13.481477   -0.214540   -1.488204
     89          1           0      -13.261028   -1.662192   -3.461739
     90          1           0      -12.064401   -0.164335   -3.815230
     91          1           0      -11.281157   -1.660674   -3.558128
     92          1           0       -8.690162   -4.879359   -1.973081
     93          1           0       -7.871173   -5.896182   -0.571650
     94          1           0       -9.361451   -4.883209   -0.285636
     95          1           0       -3.364321   -3.328483   -0.062086
     96          1           0       -1.128823   -4.584000    3.484157
     97          1           0       -2.804991   -5.622245    3.653353
     98          1           0       -1.354164   -6.026993    2.707744
     99          1           0        2.809836   -1.820008   -1.593964
    100          1           0        2.390368   -0.272925   -2.442219
    101          1           0        4.223204   -0.886580    0.196714
    102          1           0        4.018184    1.623788   -2.559117
    103          1           0        5.394998    2.305808   -2.097050
    104          1           0        5.615048    0.758650   -3.046113
    105          1           0        6.681412    1.496629   -0.061332
    106          1           0        6.077946    0.026367    0.735057
    107          1           0        7.289717   -1.148327   -1.276423
    108          1           0        7.699154    0.704407   -1.893027
    109          1           0        8.928037    1.107919    0.072099
    110          1           0        8.723760   -0.549811    0.952517
    111          1           0       10.243111   -0.134140   -1.819354
    112          1           0        9.103609   -2.424282   -1.789706
    113          1           0       10.876773   -2.513454   -1.969949
    114          1           0        9.991528   -2.760030   -0.391591
    115          1           0       11.307800    0.550252    0.395610
    116          1           0       11.339289   -1.154952    0.786747
    117          1           0       12.867826   -1.340584   -0.991025
    118          1           0       12.756828    0.238696   -1.799160
    119          1           0       13.443293    1.037132    0.216745
    120          1           0       13.890772   -0.717428    0.851173
    121          1           0       15.115714    0.409915   -1.488867
    122          1           0       15.699690   -2.169032    0.152218
    123          1           0       14.836395   -2.090747   -1.324733
    124          1           0       16.573779   -1.703629   -1.458776
    125          1           0       15.985639    1.383742    0.675339
    126          1           0       16.519237   -0.143173    1.203431
    127          1           0       17.972390   -0.400504   -0.462604
    128          1           0       17.663958    1.027432   -1.307790
    129          1           0       18.506925    2.451131    0.836049
    130          1           0       18.731426    0.590034    1.645470
    131          1           0       20.517434    0.289350    0.189345
    132          1           0       20.119566    3.175389   -0.802987
    133          1           0       21.624914    2.342808   -1.210708
    134          1           0       19.993663    1.725146   -1.867957
    135          1           0       21.122693    1.021954    2.179183
    136          1           0       22.225680    2.165965    0.970769
    137          1           0       20.503425    2.654624    1.803131
 ---------------------------------------------------------------------

 SCF Done:  E(RCAM-B3LYP) =  -2932.57043484     A.U. after   18 cycles

 Excitation energies and oscillator strengths:

 Excited State   1:      Singlet-A      1.9009 eV  652.24 nm  f=0.3083  <S**2>=0.000
     240 -> 243       -0.19008
     241 -> 242        0.67299
 This state for optimization and/or second-order correction.
 Total Energy, E(TD-HF/TD-KS) =  -2932.50057761
 Copying the excited state density for this state as the 1-particle RhoCI density.

 The electronic state is 1-A.
 Alpha  occ. eigenvalues --  -46.83549 -19.27700 -19.26323 -19.21114 -19.20920
 Alpha  occ. eigenvalues --  -19.20326 -14.42751 -14.39561 -14.39172 -14.38523
 Alpha  occ. eigenvalues --  -10.40487 -10.38827 -10.35609 -10.34657 -10.32355
 Alpha  occ. eigenvalues --  -10.31394 -10.31292 -10.30291 -10.29624 -10.29338
 Alpha  occ. eigenvalues --  -10.29335 -10.29147 -10.29115 -10.28425 -10.28354
 Alpha  occ. eigenvalues --  -10.28225 -10.28192 -10.28096 -10.27894 -10.27823
 Alpha  occ. eigenvalues --  -10.27553 -10.27471 -10.27440 -10.27432 -10.27325
 Alpha  occ. eigenvalues --  -10.27301 -10.27095 -10.26978 -10.26942 -10.26940
 Alpha  occ. eigenvalues --  -10.26851 -10.26646 -10.26487 -10.26464 -10.26271
 Alpha  occ. eigenvalues --  -10.26208 -10.26194 -10.26183 -10.26113 -10.26086
 Alpha  occ. eigenvalues --  -10.25938 -10.25828 -10.25787 -10.25653 -10.25562
 Alpha  occ. eigenvalues --  -10.25355 -10.25239 -10.25024 -10.24894 -10.24748
 Alpha  occ. eigenvalues --  -10.24699 -10.24673 -10.24132 -10.23981 -10.23499
 Alpha  occ. eigenvalues --   -3.12712  -1.87418  -1.86969  -1.86873  -1.19262
 Alpha  occ. eigenvalues --   -1.18444  -1.10226  -1.09722  -1.07435  -1.06659
 Alpha  occ. eigenvalues --   -1.03982  -1.02765  -1.01697  -0.93041  -0.92624
 Alpha  occ. eigenvalues --   -0.92419  -0.91148  -0.89370  -0.89312  -0.88590
 Alpha  occ. eigenvalues --   -0.88350  -0.87973  -0.87768  -0.87415  -0.87257
 Alpha  occ. eigenvalues --   -0.85140  -0.84293  -0.84113  -0.83609  -0.81917
 Alpha  occ. eigenvalues --   -0.81758  -0.81500  -0.81258  -0.80401  -0.78945
 Alpha  occ. eigenvalues --   -0.77249  -0.76631  -0.76179  -0.75734  -0.75436
 Alpha  occ. eigenvalues --   -0.74833  -0.74693  -0.74554  -0.73628  -0.72856
 Alpha  occ. eigenvalues --   -0.71700  -0.70265  -0.69453  -0.68998  -0.68512
 Alpha  occ. eigenvalues --   -0.67275  -0.66569  -0.65756  -0.65407  -0.64732
 Alpha  occ. eigenvalues --   -0.64420  -0.63658  -0.62842  -0.62692  -0.61918
 Alpha  occ. eigenvalues --   -0.61482  -0.61465  -0.60807  -0.60257  -0.59472
 Alpha  occ. eigenvalues --   -0.58938  -0.58453  -0.57842  -0.57495  -0.56962
 Alpha  occ. eigenvalues --   -0.56836  -0.56457  -0.55820  -0.55701  -0.55395
 Alpha  occ. eigenvalues --   -0.55079  -0.54585  -0.54473  -0.53888  -0.53429
 Alpha  occ. eigenvalues --   -0.53112  -0.53016  -0.52759  -0.52319  -0.51730
 Alpha  occ. eigenvalues --   -0.51588  -0.51447  -0.51132  -0.50768  -0.50504
 Alpha  occ. eigenvalues --   -0.50233  -0.50127  -0.50044  -0.49739  -0.49367
 Alpha  occ. eigenvalues --   -0.49330  -0.49128  -0.48918  -0.48661  -0.48525
 Alpha  occ. eigenvalues --   -0.48389  -0.48198  -0.47847  -0.47660  -0.47058
 Alpha  occ. eigenvalues --   -0.46959  -0.46732  -0.46586  -0.46520  -0.45972
 Alpha  occ. eigenvalues --   -0.45707  -0.45551  -0.45391  -0.45059  -0.44804
 Alpha  occ. eigenvalues --   -0.44686  -0.44518  -0.44243  -0.44203  -0.43904
 Alpha  occ. eigenvalues --   -0.43690  -0.43609  -0.43410  -0.43267  -0.43120
 Alpha  occ. eigenvalues --   -0.42872  -0.42693  -0.42561  -0.42373  -0.42092
 Alpha  occ. eigenvalues --   -0.41836  -0.41720  -0.41558  -0.41442  -0.41234
 Alpha  occ. eigenvalues --   -0.41116  -0.40458  -0.40362  -0.40183  -0.40045
 Alpha  occ. eigenvalues --   -0.40020  -0.39645  -0.39397  -0.39341  -0.39111
 Alpha  occ. eigenvalues --   -0.39016  -0.38731  -0.38633  -0.38352  -0.38264
 Alpha  occ. eigenvalues --   -0.37901  -0.37373  -0.37319  -0.36892  -0.36764
 Alpha  occ. eigenvalues --   -0.36757  -0.36112  -0.36045  -0.35603  -0.35547
 Alpha  occ. eigenvalues --   -0.35357  -0.35322  -0.35072  -0.33453  -0.33374
 Alpha  occ. eigenvalues --   -0.33254  -0.33042  -0.32434  -0.31309  -0.30098
 Alpha  occ. eigenvalues --   -0.30030  -0.29891  -0.27738  -0.26324  -0.24612
 Alpha  occ. eigenvalues --   -0.20199
 Alpha virt. eigenvalues --   -0.06752  -0.03505   0.00659   0.04018   0.04316
 Alpha virt. eigenvalues --    0.06097   0.06296   0.06458   0.06749   0.07171
 Alpha virt. eigenvalues --    0.08117   0.10143   0.10401   0.11342   0.11425

 Mulliken charges:
               1
     1  Mg   0.803950
     2  C    0.086950
     3  C   -0.220873
     4  C   -0.180046
     5  C   -0.153167
     6  N   -0.623836
     7  C    0.298320
     8  C   -0.149185
     9  C   -0.138144
    10  C    0.351057
    11  C   -0.287830
    12  C   -0.169325
    13  C   -0.226542
    14  C    0.584101
    15  O   -0.482448
    16  O   -0.432208
    17  N   -0.753733
    18  C    0.388683
    19  C   -0.001888
    20  C    0.034408
    21  C    0.277262
    22  C   -0.341121
    23  C   -0.109457
    24  C   -0.246127
    25  N   -0.704062
    26  C    0.386879
    27  C   -0.005294
    28  C    0.038837
    29  C    0.254636
    30  C   -0.367545
    31  C   -0.231997
    32  C   -0.287532
    33  N   -0.709518
    34  C    0.280151
    35  C    0.022548
    36  C    0.060460
    37  C    0.270451
    38  C   -0.389358
    39  C    0.341610
    40  O   -0.465804
    41  C   -0.364064
    42  C    0.619282
    43  O   -0.462750
    44  O   -0.450616
    45  C   -0.078651
    46  C    0.010826
    47  C   -0.146087
    48  C    0.160973
    49  C   -0.368377
    50  C   -0.227504
    51  C   -0.176581
    52  C   -0.169387
    53  C   -0.044069
    54  C   -0.324513
    55  C   -0.175801
    56  C   -0.148622
    57  C   -0.158698
    58  C   -0.082186
    59  C   -0.317510
    60  C   -0.172151
    61  C   -0.181845
    62  C   -0.150317
    63  C   -0.090423
    64  C   -0.315557
    65  C   -0.285962
    66  H    0.094185
    67  H    0.105200
    68  H    0.085338
    69  H    0.124825
    70  H    0.106950
    71  H    0.065617
    72  H    0.125416
    73  H    0.137013
    74  H    0.105558
    75  H    0.075956
    76  H    0.125637
    77  H    0.144182
    78  H    0.093700
    79  H    0.083475
    80  H    0.119050
    81  H    0.099376
    82  H    0.099797
    83  H    0.105105
    84  H    0.058816
    85  H    0.119325
    86  H    0.120490
    87  H    0.106652
    88  H    0.088550
    89  H    0.065735
    90  H    0.125297
    91  H    0.127257
    92  H    0.137807
    93  H    0.125060
    94  H    0.144621
    95  H    0.158277
    96  H    0.104139
    97  H    0.140054
    98  H    0.134974
    99  H    0.098121
   100  H    0.118965
   101  H    0.083524
   102  H    0.109025
   103  H    0.114706
   104  H    0.119569
   105  H    0.100489
   106  H    0.085719
   107  H    0.099060
   108  H    0.083303
   109  H    0.071857
   110  H    0.076390
   111  H    0.094915
   112  H    0.105859
   113  H    0.091920
   114  H    0.104612
   115  H    0.084422
   116  H    0.084478
   117  H    0.093463
   118  H    0.046984
   119  H    0.083764
   120  H    0.091470
   121  H    0.077132
   122  H    0.108692
   123  H    0.114944
   124  H    0.089141
   125  H    0.092256
   126  H    0.089693
   127  H    0.104935
   128  H    0.080836
   129  H    0.074138
   130  H    0.099571
   131  H    0.083941
   132  H    0.099005
   133  H    0.086925
   134  H    0.114235
   135  H    0.106070
   136  H    0.072957
   137  H    0.106807
 Sum of Mulliken charges =   0.00000

 Dipole moment (field-independent basis, Debye):
    X=              1.7481    Y=              1.9613    Z=              0.0943  Tot=              2.6289
 Quadrupole moment (field-independent basis, Debye-Ang):
   XX=           -369.6231   YY=           -394.3445   ZZ=           -402.0729
   XY=            -18.7853   XZ=             13.4801   YZ=             -4.8243

 Normal termination of Gaussian 09 at Sat Jul  6 11:22:28 2019.
