 Gaussian 09, Revision D.01,
 Gaussian 09:  ES64L-G09RevD.01 24-Apr-2013

 -------------------------------------
 # td=(NStates=1) CAM-B3LYP/6-31G(d,p)
 -------------------------------------

 --
 TD
 --
 Symbolic Z-matrix:
 Charge =  0 Multiplicity = 1

                         Standard orientation:
 ---------------------------------------------------------------------
 Center     Atomic      Atomic             Coordinates (Angstroms)
 Number     Number       Type             X           Y           Z
 ---------------------------------------------------------------------
      1         12           0       -7.179519    0.641490   -0.013792
      2          6           0       -4.857743   -1.996491    0.518585
      3          6           0       -4.882957    2.870708    1.112875
      4          6           0       -9.365555    3.122401   -0.343805
      5          6           0       -9.448476   -1.668468   -1.022156
      6          7           0       -5.139884    0.383986    0.631084
      7          6           0       -4.362170   -0.676894    0.743044
      8          6           0       -2.886668   -0.400609    1.150529
      9          6           0       -3.099347    1.090346    1.554088
     10          6           0       -4.498893    1.523446    1.110594
     11          6           0       -2.995998    1.271808    3.042843
     12          6           0       -1.885515   -0.475594   -0.153550
     13          6           0       -0.459677   -0.355545    0.397757
     14          6           0        0.550728   -0.638128   -0.654655
     15          8           0        0.341558   -0.936095   -1.874390
     16          8           0        1.820182   -0.513184   -0.067982
     17          7           0       -7.132006    2.663715    0.323958
     18          6           0       -6.047405    3.378471    0.730857
     19          6           0       -6.429138    4.794076    0.814242
     20          6           0       -7.806433    4.845869    0.361000
     21          6           0       -8.185059    3.483936    0.063186
     22          6           0       -5.516457    5.902820    1.304429
     23          6           0       -8.607947    5.952307    0.079099
     24          6           0       -8.603463    7.018165    0.972968
     25          7           0       -9.115660    0.663172   -0.593390
     26          6           0       -9.888268    1.849327   -0.636035
     27          6           0      -11.231870    1.465854   -1.175553
     28          6           0      -11.158983    0.076650   -1.297679
     29          6           0       -9.942019   -0.367083   -0.955370
     30          6           0      -12.471181    2.351199   -1.347111
     31          6           0      -12.311095   -0.787594   -1.758417
     32          6           0      -12.188212   -1.058308   -3.343347
     33          7           0       -7.245690   -1.269013   -0.171985
     34          6           0       -8.205251   -2.140451   -0.665027
     35          6           0       -7.765863   -3.613810   -0.681923
     36          6           0       -6.496794   -3.537408   -0.209828
     37          6           0       -6.163347   -2.131256    0.120351
     38          6           0       -8.674999   -4.663357   -1.041355
     39          6           0       -5.329026   -4.353172    0.248668
     40          8           0       -5.105878   -5.536417    0.131651
     41          6           0       -4.208934   -3.407338    0.610260
     42          6           0       -3.667534   -3.651961    2.057591
     43          8           0       -3.819600   -3.051837    3.077996
     44          8           0       -2.895142   -4.850881    1.872504
     45          6           0       -2.355310   -5.415515    3.154783
     46          6           0        2.900709   -0.805972   -1.048257
     47          6           0        4.149491   -0.608256   -0.409552
     48          6           0        5.122455    0.114492   -0.736509
     49          6           0        5.078781    1.054540   -1.928772
     50          6           0        6.450223    0.297943    0.036472
     51          6           0        7.600293   -0.298130   -0.772087
     52          6           0        8.847009   -0.147069    0.073959
     53          6           0       10.175623   -0.509005   -0.642677
     54          6           0       10.302239   -1.937324   -1.201160
     55          6           0       11.475499   -0.136676    0.053958
     56          6           0       12.767728   -0.452892   -0.604898
     57          6           0       14.031462   -0.038356    0.269971
     58          6           0       15.399447   -0.248141   -0.496041
     59          6           0       15.613598   -1.732765   -0.737256
     60          6           0       16.498940    0.480543    0.365545
     61          6           0       17.864088    0.709469   -0.360874
     62          6           0       18.830393    1.449241    0.576264
     63          6           0       20.307874    1.390719    0.117440
     64          6           0       20.424886    1.983280   -1.334494
     65          6           0       21.337811    2.021825    1.078273
     66          1           0       -4.055052    3.505232    1.497665
     67          1           0       -9.961140    3.807737   -0.386201
     68          1           0      -10.233375   -2.349786   -1.245490
     69          1           0       -2.621235   -1.269160    1.814673
     70          1           0       -2.464982    1.685522    1.025237
     71          1           0       -1.953862    0.778315    3.400655
     72          1           0       -3.244757    2.420997    3.271158
     73          1           0       -3.806558    0.773084    3.597498
     74          1           0       -1.981994   -1.325060   -0.577115
     75          1           0       -2.371819    0.298974   -0.826670
     76          1           0       -0.281645    0.575563    0.807958
     77          1           0       -0.372806   -1.129573    1.320021
     78          1           0       -5.954280    6.839130    0.917708
     79          1           0       -5.381619    5.954767    2.568670
     80          1           0       -4.498857    5.548879    0.847396
     81          1           0       -9.167487    5.801695   -0.928787
     82          1           0       -9.194722    8.110147    0.621986
     83          1           0       -7.954923    7.287479    1.817670
     84          1           0      -12.356289    3.277201   -1.915755
     85          1           0      -13.353673    1.956081   -1.755335
     86          1           0      -12.498534    2.674924   -0.262066
     87          1           0      -12.029191   -1.882225   -1.410326
     88          1           0      -13.317502   -0.287779   -1.418949
     89          1           0      -12.862897   -1.703999   -3.789615
     90          1           0      -12.491113   -0.099496   -3.865832
     91          1           0      -11.165032   -1.273876   -3.745298
     92          1           0       -8.911873   -4.595331   -1.990120
     93          1           0       -8.047078   -5.691667   -0.888866
     94          1           0       -9.587842   -4.682226   -0.385606
     95          1           0       -3.394917   -3.640130    0.016284
     96          1           0       -1.675181   -4.647836    3.610215
     97          1           0       -3.177970   -5.442963    3.966800
     98          1           0       -1.879131   -6.411716    2.880908
     99          1           0        2.723697   -1.741370   -1.473880
    100          1           0        2.688070   -0.239518   -2.039681
    101          1           0        4.225460   -1.194658    0.557812
    102          1           0        4.137118    1.093539   -2.432504
    103          1           0        5.393202    2.102530   -1.757060
    104          1           0        5.436733    0.639743   -2.844175
    105          1           0        6.617890    1.537391    0.221367
    106          1           0        6.279110   -0.238282    1.024265
    107          1           0        7.363895   -1.430380   -0.937822
    108          1           0        7.841905    0.168121   -1.663730
    109          1           0        8.882951    0.853170    0.547792
    110          1           0        8.816803   -1.067734    0.916943
    111          1           0       10.220364    0.249261   -1.409536
    112          1           0        9.448826   -2.111778   -1.792274
    113          1           0       11.310378   -1.878208   -1.943401
    114          1           0       10.517011   -2.498769   -0.317767
    115          1           0       11.347862    0.934013    0.324278
    116          1           0       11.591617   -0.747276    1.011980
    117          1           0       12.854441   -1.691181   -0.919703
    118          1           0       13.014333    0.087539   -1.671029
    119          1           0       13.778591    0.899728    0.530563
    120          1           0       13.916014   -0.865484    1.074049
    121          1           0       15.246953    0.243598   -1.373906
    122          1           0       15.597260   -2.270551    0.149835
    123          1           0       14.886665   -2.232143   -1.123655
    124          1           0       16.496505   -2.067147   -1.381051
    125          1           0       16.038250    1.565899    0.614945
    126          1           0       16.559801   -0.129267    1.227229
    127          1           0       18.393482   -0.168203   -0.557063
    128          1           0       17.719953    1.288191   -1.074528
    129          1           0       18.594353    2.533327    0.769566
    130          1           0       18.876571    0.805102    1.413011
    131          1           0       20.568979    0.348647   -0.182097
    132          1           0       20.273972    3.020309   -1.216207
    133          1           0       21.393935    1.960732   -1.823516
    134          1           0       19.976236    1.728118   -2.190482
    135          1           0       21.200405    1.611101    2.084024
    136          1           0       22.408841    1.799029    0.704888
    137          1           0       21.078721    3.081160    1.114202
 ---------------------------------------------------------------------

 SCF Done:  E(RCAM-B3LYP) =  -2932.58307252     A.U. after   16 cycles

 Excitation energies and oscillator strengths:

 Excited State   1:      Singlet-A      2.1123 eV  586.97 nm  f=0.1852  <S**2>=0.000
     240 -> 243       -0.29633
     241 -> 242        0.63654
 This state for optimization and/or second-order correction.
 Total Energy, E(TD-HF/TD-KS) =  -2932.50544737
 Copying the excited state density for this state as the 1-particle RhoCI density.

 The electronic state is 1-A.
 Alpha  occ. eigenvalues --  -46.82836 -19.26639 -19.25875 -19.23751 -19.22113
 Alpha  occ. eigenvalues --  -19.20967 -14.42094 -14.39758 -14.38708 -14.37880
 Alpha  occ. eigenvalues --  -10.40720 -10.40451 -10.35640 -10.32669 -10.31414
 Alpha  occ. eigenvalues --  -10.31255 -10.31194 -10.29832 -10.29439 -10.29175
 Alpha  occ. eigenvalues --  -10.29068 -10.28990 -10.28915 -10.28731 -10.28517
 Alpha  occ. eigenvalues --  -10.28482 -10.28473 -10.28451 -10.28350 -10.28061
 Alpha  occ. eigenvalues --  -10.27562 -10.27441 -10.27329 -10.27179 -10.27037
 Alpha  occ. eigenvalues --  -10.27030 -10.26782 -10.26757 -10.26698 -10.26691
 Alpha  occ. eigenvalues --  -10.26625 -10.26519 -10.26450 -10.26305 -10.26151
 Alpha  occ. eigenvalues --  -10.26097 -10.26059 -10.26045 -10.25812 -10.25557
 Alpha  occ. eigenvalues --  -10.25433 -10.25284 -10.25232 -10.25224 -10.25107
 Alpha  occ. eigenvalues --  -10.24997 -10.24916 -10.24889 -10.24869 -10.24248
 Alpha  occ. eigenvalues --  -10.24246 -10.24169 -10.22736 -10.22669 -10.22109
 Alpha  occ. eigenvalues --   -3.12181  -1.86860  -1.86411  -1.86398  -1.17149
 Alpha  occ. eigenvalues --   -1.15573  -1.12150  -1.09106  -1.07321  -1.04784
 Alpha  occ. eigenvalues --   -1.03166  -1.02390  -1.00955  -0.92840  -0.92243
 Alpha  occ. eigenvalues --   -0.90722  -0.90689  -0.90280  -0.89685  -0.88773
 Alpha  occ. eigenvalues --   -0.88443  -0.88137  -0.87843  -0.86779  -0.86443
 Alpha  occ. eigenvalues --   -0.85778  -0.84469  -0.83291  -0.82835  -0.82026
 Alpha  occ. eigenvalues --   -0.81850  -0.80878  -0.80596  -0.80277  -0.78609
 Alpha  occ. eigenvalues --   -0.77545  -0.76654  -0.76517  -0.76269  -0.76029
 Alpha  occ. eigenvalues --   -0.75967  -0.74717  -0.74336  -0.73300  -0.72201
 Alpha  occ. eigenvalues --   -0.71917  -0.71131  -0.69450  -0.69144  -0.68475
 Alpha  occ. eigenvalues --   -0.67197  -0.67074  -0.65991  -0.65289  -0.64509
 Alpha  occ. eigenvalues --   -0.64165  -0.63865  -0.63333  -0.62525  -0.62519
 Alpha  occ. eigenvalues --   -0.61409  -0.60830  -0.60257  -0.59897  -0.59266
 Alpha  occ. eigenvalues --   -0.58152  -0.58057  -0.57516  -0.57098  -0.56587
 Alpha  occ. eigenvalues --   -0.56495  -0.56229  -0.55615  -0.54938  -0.54806
 Alpha  occ. eigenvalues --   -0.54612  -0.54349  -0.54220  -0.53859  -0.53519
 Alpha  occ. eigenvalues --   -0.52609  -0.52486  -0.52236  -0.51812  -0.51677
 Alpha  occ. eigenvalues --   -0.51483  -0.51343  -0.51113  -0.50844  -0.50751
 Alpha  occ. eigenvalues --   -0.50639  -0.50261  -0.50094  -0.49970  -0.49760
 Alpha  occ. eigenvalues --   -0.49373  -0.49036  -0.48730  -0.48656  -0.48436
 Alpha  occ. eigenvalues --   -0.48195  -0.48148  -0.47781  -0.47327  -0.47176
 Alpha  occ. eigenvalues --   -0.47017  -0.46657  -0.46466  -0.46191  -0.46159
 Alpha  occ. eigenvalues --   -0.45748  -0.45651  -0.45401  -0.45238  -0.45040
 Alpha  occ. eigenvalues --   -0.44714  -0.44602  -0.44547  -0.44444  -0.44259
 Alpha  occ. eigenvalues --   -0.44171  -0.44064  -0.43713  -0.43580  -0.43527
 Alpha  occ. eigenvalues --   -0.42959  -0.42930  -0.42855  -0.42800  -0.42503
 Alpha  occ. eigenvalues --   -0.42220  -0.41952  -0.41926  -0.41741  -0.41634
 Alpha  occ. eigenvalues --   -0.41402  -0.41381  -0.41205  -0.40757  -0.40246
 Alpha  occ. eigenvalues --   -0.40228  -0.39943  -0.39559  -0.39423  -0.39382
 Alpha  occ. eigenvalues --   -0.39256  -0.38841  -0.38396  -0.37778  -0.37525
 Alpha  occ. eigenvalues --   -0.37461  -0.36883  -0.36619  -0.36569  -0.36544
 Alpha  occ. eigenvalues --   -0.36068  -0.35974  -0.35874  -0.35666  -0.35261
 Alpha  occ. eigenvalues --   -0.35229  -0.34948  -0.34519  -0.34315  -0.34200
 Alpha  occ. eigenvalues --   -0.33320  -0.33053  -0.32619  -0.31472  -0.31067
 Alpha  occ. eigenvalues --   -0.30627  -0.30392  -0.26862  -0.26264  -0.23467
 Alpha  occ. eigenvalues --   -0.20619
 Alpha virt. eigenvalues --   -0.05332  -0.03920   0.00820   0.03272   0.03851
 Alpha virt. eigenvalues --    0.05256   0.06072   0.06666   0.07119   0.07571
 Alpha virt. eigenvalues --    0.08181   0.10396   0.10978   0.11388   0.11469

 Mulliken charges:
               1
     1  Mg   0.810438
     2  C    0.011603
     3  C   -0.211060
     4  C   -0.101985
     5  C   -0.198817
     6  N   -0.630620
     7  C    0.298051
     8  C   -0.167013
     9  C   -0.140738
    10  C    0.309618
    11  C   -0.286742
    12  C   -0.154355
    13  C   -0.264821
    14  C    0.630103
    15  O   -0.497955
    16  O   -0.500800
    17  N   -0.743764
    18  C    0.366827
    19  C    0.000559
    20  C    0.024729
    21  C    0.352178
    22  C   -0.346751
    23  C   -0.117689
    24  C   -0.242850
    25  N   -0.717350
    26  C    0.240870
    27  C    0.009915
    28  C    0.030436
    29  C    0.350258
    30  C   -0.373143
    31  C   -0.244155
    32  C   -0.319397
    33  N   -0.728630
    34  C    0.271662
    35  C    0.064769
    36  C   -0.033864
    37  C    0.311202
    38  C   -0.380230
    39  C    0.391900
    40  O   -0.437100
    41  C   -0.283007
    42  C    0.609467
    43  O   -0.436484
    44  O   -0.488354
    45  C   -0.088978
    46  C    0.003718
    47  C   -0.133956
    48  C    0.151173
    49  C   -0.378293
    50  C   -0.221554
    51  C   -0.156055
    52  C   -0.158050
    53  C   -0.073734
    54  C   -0.297455
    55  C   -0.159014
    56  C   -0.178365
    57  C   -0.171508
    58  C   -0.056682
    59  C   -0.318528
    60  C   -0.173551
    61  C   -0.151768
    62  C   -0.172152
    63  C   -0.080472
    64  C   -0.330323
    65  C   -0.302079
    66  H    0.092039
    67  H    0.024941
    68  H    0.067009
    69  H    0.112135
    70  H    0.113068
    71  H    0.089992
    72  H    0.087349
    73  H    0.132325
    74  H    0.125107
    75  H    0.114420
    76  H    0.154506
    77  H    0.131611
    78  H    0.123880
    79  H    0.093425
    80  H    0.107111
    81  H    0.120401
    82  H    0.061072
    83  H    0.126717
    84  H    0.117980
    85  H    0.120994
    86  H    0.128690
    87  H    0.091328
    88  H    0.101916
    89  H    0.111226
    90  H    0.092613
    91  H    0.112778
    92  H    0.147359
    93  H    0.125369
    94  H    0.135829
    95  H    0.177834
    96  H    0.123826
    97  H    0.129096
    98  H    0.137302
    99  H    0.137607
   100  H    0.118312
   101  H    0.084436
   102  H    0.104918
   103  H    0.115779
   104  H    0.121876
   105  H    0.074950
   106  H    0.101435
   107  H    0.099058
   108  H    0.114121
   109  H    0.093198
   110  H    0.050761
   111  H    0.080525
   112  H    0.105506
   113  H    0.088196
   114  H    0.110888
   115  H    0.084649
   116  H    0.076271
   117  H    0.062615
   118  H    0.055588
   119  H    0.101203
   120  H    0.081127
   121  H    0.089224
   122  H    0.100556
   123  H    0.114949
   124  H    0.089642
   125  H    0.066496
   126  H    0.096050
   127  H    0.099645
   128  H    0.104137
   129  H    0.080843
   130  H    0.097031
   131  H    0.081481
   132  H    0.092373
   133  H    0.083619
   134  H    0.110029
   135  H    0.104687
   136  H    0.100868
   137  H    0.104828
 Sum of Mulliken charges =   0.00000

 Dipole moment (field-independent basis, Debye):
    X=              1.9540    Y=              2.4899    Z=              0.2515  Tot=              3.1751
 Quadrupole moment (field-independent basis, Debye-Ang):
   XX=           -372.2673   YY=           -392.3531   ZZ=           -396.8311
   XY=            -12.1025   XZ=              7.0478   YZ=             -5.5166

 Normal termination of Gaussian 09 at Sat Jul  6 22:27:46 2019.
