 Gaussian 09, Revision D.01,
 Gaussian 09:  ES64L-G09RevD.01 24-Apr-2013

 -------------------------------------
 # td=(NStates=1) CAM-B3LYP/6-31G(d,p)
 -------------------------------------

 --
 TD
 --
 Symbolic Z-matrix:
 Charge =  0 Multiplicity = 1

                         Standard orientation:
 ---------------------------------------------------------------------
 Center     Atomic      Atomic             Coordinates (Angstroms)
 Number     Number       Type             X           Y           Z
 ---------------------------------------------------------------------
      1         12           0       -7.131938    0.584514    0.109619
      2          6           0       -4.897698   -2.013944    0.549087
      3          6           0       -4.837484    2.847594    1.106480
      4          6           0       -9.424069    3.096498   -0.431613
      5          6           0       -9.618128   -1.786594   -0.823199
      6          7           0       -5.134453    0.433143    0.648340
      7          6           0       -4.387824   -0.708194    0.811911
      8          6           0       -2.932660   -0.393294    1.153457
      9          6           0       -3.052673    1.083632    1.604065
     10          6           0       -4.360007    1.587333    1.148413
     11          6           0       -2.823830    1.183381    3.166312
     12          6           0       -1.978877   -0.761458   -0.020478
     13          6           0       -0.500980   -0.473363    0.470717
     14          6           0        0.510470   -0.689272   -0.628291
     15          8           0        0.265310   -0.821473   -1.778351
     16          8           0        1.771008   -0.426454   -0.198834
     17          7           0       -7.124157    2.645539    0.261314
     18          6           0       -6.012979    3.461721    0.682811
     19          6           0       -6.368018    4.822497    0.692487
     20          6           0       -7.676793    4.901679    0.226308
     21          6           0       -8.201256    3.528485    0.031787
     22          6           0       -5.379389    5.869396    1.145727
     23          6           0       -8.425147    6.084794    0.035728
     24          6           0       -8.364515    7.138507    0.943773
     25          7           0       -9.132054    0.660175   -0.631672
     26          6           0       -9.916123    1.750815   -0.761318
     27          6           0      -11.183884    1.500740   -1.093469
     28          6           0      -11.277528    0.080667   -1.131989
     29          6           0       -9.957554   -0.414702   -0.809123
     30          6           0      -12.364102    2.496549   -1.379595
     31          6           0      -12.543882   -0.718486   -1.526364
     32          6           0      -12.439511   -1.075749   -3.056206
     33          7           0       -7.167919   -1.368542   -0.075710
     34          6           0       -8.287602   -2.258799   -0.497075
     35          6           0       -7.870020   -3.638138   -0.518095
     36          6           0       -6.466402   -3.611701   -0.223145
     37          6           0       -6.184320   -2.243029    0.046605
     38          6           0       -8.653981   -4.852751   -0.900490
     39          6           0       -5.283041   -4.389561    0.248014
     40          8           0       -5.154817   -5.626821    0.230218
     41          6           0       -4.161486   -3.300087    0.613420
     42          6           0       -3.495143   -3.715004    1.903558
     43          8           0       -3.679328   -3.104979    3.007117
     44          8           0       -2.594402   -4.767733    1.685747
     45          6           0       -2.081345   -5.274939    2.893756
     46          6           0        2.831693   -0.552280   -1.175624
     47          6           0        4.153383   -0.453942   -0.586707
     48          6           0        5.084376    0.438301   -0.869813
     49          6           0        4.941830    1.499044   -1.999460
     50          6           0        6.456667    0.329508   -0.184609
     51          6           0        7.602780   -0.177481   -1.010833
     52          6           0        8.863027   -0.241591   -0.155180
     53          6           0       10.216095   -0.679572   -0.891805
     54          6           0       10.124983   -2.124592   -1.336289
     55          6           0       11.400353   -0.341884    0.048816
     56          6           0       12.733434   -0.596417   -0.581895
     57          6           0       14.009766   -0.172846    0.156359
     58          6           0       15.329982   -0.221006   -0.587776
     59          6           0       15.769923   -1.602788   -1.070880
     60          6           0       16.350725    0.421038    0.350583
     61          6           0       17.821068    0.516823   -0.220323
     62          6           0       18.756979    1.300884    0.815737
     63          6           0       20.316967    1.284815    0.334356
     64          6           0       20.410450    2.168248   -1.028597
     65          6           0       21.121842    2.056673    1.420780
     66          1           0       -3.987729    3.481537    1.526472
     67          1           0      -10.095544    3.980885   -0.667838
     68          1           0      -10.434240   -2.330941   -1.001067
     69          1           0       -2.615173   -0.913135    2.138194
     70          1           0       -2.335160    1.854643    1.183890
     71          1           0       -1.843695    0.757439    3.486900
     72          1           0       -2.979036    2.202485    3.345617
     73          1           0       -3.685646    0.637783    3.831881
     74          1           0       -2.140910   -1.744289   -0.455010
     75          1           0       -1.940228   -0.062077   -0.770358
     76          1           0       -0.217720    0.500102    0.536939
     77          1           0       -0.106255   -0.956392    1.309488
     78          1           0       -5.649690    6.907995    0.954889
     79          1           0       -5.310804    5.845264    2.306411
     80          1           0       -4.320714    5.741977    0.813347
     81          1           0       -9.168027    6.152366   -0.666811
     82          1           0       -9.048685    7.932888    1.007905
     83          1           0       -7.518085    7.122205    1.738407
     84          1           0      -11.952689    3.275029   -2.040704
     85          1           0      -13.077066    1.915244   -1.883262
     86          1           0      -12.638516    3.018309   -0.456302
     87          1           0      -12.590220   -1.712675   -1.017614
     88          1           0      -13.537426   -0.032054   -1.380593
     89          1           0      -13.480020   -1.428140   -3.283330
     90          1           0      -12.265914   -0.229624   -3.709098
     91          1           0      -11.592904   -1.837948   -3.286606
     92          1           0       -8.785222   -4.935754   -2.104272
     93          1           0       -8.183468   -5.815235   -0.470470
     94          1           0       -9.790032   -4.816256   -0.465565
     95          1           0       -3.447535   -3.686376   -0.080277
     96          1           0       -1.391722   -4.481996    3.301728
     97          1           0       -2.984982   -5.375205    3.545364
     98          1           0       -1.392886   -6.269969    2.433917
     99          1           0        2.775169   -1.564042   -1.690610
    100          1           0        2.510188    0.050898   -1.993835
    101          1           0        4.147046   -0.814195    0.417621
    102          1           0        3.831375    1.758636   -2.058040
    103          1           0        5.525871    2.492693   -1.737596
    104          1           0        5.273354    1.097180   -2.943196
    105          1           0        6.680542    1.358473    0.113516
    106          1           0        6.152833   -0.030318    0.942919
    107          1           0        7.429332   -1.098791   -1.433807
    108          1           0        7.540892    0.572333   -1.774874
    109          1           0        9.149546    0.727805    0.387915
    110          1           0        8.588234   -0.925283    0.812130
    111          1           0       10.226556    0.170634   -1.672473
    112          1           0        9.534446   -2.248443   -2.022961
    113          1           0       10.902000   -2.403041   -1.895812
    114          1           0        9.866710   -2.768820   -0.538913
    115          1           0       11.264860    0.765275    0.311999
    116          1           0       11.149144   -0.946726    0.961139
    117          1           0       12.648405   -1.674855   -0.858353
    118          1           0       12.834629    0.011361   -1.548140
    119          1           0       13.732341    0.720529    0.576956
    120          1           0       14.072010   -0.873966    1.066389
    121          1           0       15.193505    0.325757   -1.486082
    122          1           0       15.816993   -2.281597   -0.415778
    123          1           0       14.924165   -2.004641   -1.646375
    124          1           0       16.834603   -1.375490   -1.697444
    125          1           0       16.094490    1.613873    0.506862
    126          1           0       16.385714   -0.219589    1.184062
    127          1           0       18.258585   -0.475181   -0.507105
    128          1           0       18.005564    1.142613   -1.188387
    129          1           0       18.197578    2.341624    0.740905
    130          1           0       18.831554    0.788422    1.643417
    131          1           0       20.738868    0.291644    0.137018
    132          1           0       19.997544    2.942231   -0.897416
    133          1           0       21.523653    2.284623   -1.288510
    134          1           0       19.961003    1.755979   -1.891049
    135          1           0       21.132732    1.315402    2.376650
    136          1           0       22.128893    1.914681    0.891600
    137          1           0       20.886935    3.140582    1.490160
 ---------------------------------------------------------------------

 SCF Done:  E(RCAM-B3LYP) =  -2932.63445289     A.U. after   18 cycles

 Excitation energies and oscillator strengths:

 Excited State   1:      Singlet-A      2.0530 eV  603.91 nm  f=0.2380  <S**2>=0.000
     240 -> 242       -0.21868
     240 -> 243        0.23194
     241 -> 242        0.60416
     241 -> 243        0.15401
 This state for optimization and/or second-order correction.
 Total Energy, E(TD-HF/TD-KS) =  -2932.55900610
 Copying the excited state density for this state as the 1-particle RhoCI density.

 The electronic state is 1-A.
 Alpha  occ. eigenvalues --  -46.83519 -19.26362 -19.25275 -19.21183 -19.20489
 Alpha  occ. eigenvalues --  -19.20233 -14.41060 -14.39611 -14.39556 -14.38545
 Alpha  occ. eigenvalues --  -10.39853 -10.38359 -10.35722 -10.32682 -10.31190
 Alpha  occ. eigenvalues --  -10.31167 -10.30891 -10.30700 -10.30357 -10.29819
 Alpha  occ. eigenvalues --  -10.29605 -10.28932 -10.28704 -10.28645 -10.28538
 Alpha  occ. eigenvalues --  -10.28436 -10.28377 -10.28267 -10.28244 -10.28226
 Alpha  occ. eigenvalues --  -10.28215 -10.28195 -10.27721 -10.27562 -10.27502
 Alpha  occ. eigenvalues --  -10.27474 -10.27330 -10.27137 -10.26988 -10.26839
 Alpha  occ. eigenvalues --  -10.26795 -10.26710 -10.26644 -10.26514 -10.26406
 Alpha  occ. eigenvalues --  -10.26393 -10.26207 -10.26133 -10.26129 -10.26094
 Alpha  occ. eigenvalues --  -10.26027 -10.25842 -10.25629 -10.25483 -10.25414
 Alpha  occ. eigenvalues --  -10.25201 -10.25180 -10.25083 -10.24919 -10.24824
 Alpha  occ. eigenvalues --  -10.24708 -10.24166 -10.24116 -10.22462 -10.21641
 Alpha  occ. eigenvalues --   -3.12587  -1.87290  -1.86811  -1.86791  -1.18411
 Alpha  occ. eigenvalues --   -1.16480  -1.09541  -1.09256  -1.07152  -1.03634
 Alpha  occ. eigenvalues --   -1.02718  -1.01689  -1.00747  -0.91961  -0.91338
 Alpha  occ. eigenvalues --   -0.90515  -0.89788  -0.89499  -0.89077  -0.89022
 Alpha  occ. eigenvalues --   -0.87607  -0.87361  -0.87208  -0.87132  -0.86324
 Alpha  occ. eigenvalues --   -0.85551  -0.84340  -0.83216  -0.83113  -0.81997
 Alpha  occ. eigenvalues --   -0.81246  -0.80896  -0.80703  -0.79622  -0.77926
 Alpha  occ. eigenvalues --   -0.77648  -0.77402  -0.76763  -0.76214  -0.75649
 Alpha  occ. eigenvalues --   -0.75514  -0.74951  -0.74546  -0.73316  -0.72381
 Alpha  occ. eigenvalues --   -0.72249  -0.71391  -0.69362  -0.68830  -0.68358
 Alpha  occ. eigenvalues --   -0.66618  -0.66483  -0.65765  -0.64316  -0.63857
 Alpha  occ. eigenvalues --   -0.63449  -0.63259  -0.63080  -0.62573  -0.62077
 Alpha  occ. eigenvalues --   -0.61852  -0.60697  -0.60426  -0.59923  -0.58685
 Alpha  occ. eigenvalues --   -0.58402  -0.58319  -0.57131  -0.57026  -0.56351
 Alpha  occ. eigenvalues --   -0.56120  -0.55649  -0.55288  -0.55142  -0.54342
 Alpha  occ. eigenvalues --   -0.54290  -0.53842  -0.53425  -0.53023  -0.52853
 Alpha  occ. eigenvalues --   -0.52330  -0.52105  -0.51890  -0.51684  -0.51510
 Alpha  occ. eigenvalues --   -0.51298  -0.51144  -0.50828  -0.50361  -0.50239
 Alpha  occ. eigenvalues --   -0.50115  -0.50001  -0.49752  -0.49570  -0.49420
 Alpha  occ. eigenvalues --   -0.49262  -0.48902  -0.48559  -0.48524  -0.48450
 Alpha  occ. eigenvalues --   -0.48359  -0.47999  -0.47403  -0.47341  -0.47172
 Alpha  occ. eigenvalues --   -0.46902  -0.46772  -0.46735  -0.46443  -0.46067
 Alpha  occ. eigenvalues --   -0.45745  -0.45578  -0.45434  -0.45212  -0.45090
 Alpha  occ. eigenvalues --   -0.44790  -0.44759  -0.44650  -0.44350  -0.44324
 Alpha  occ. eigenvalues --   -0.44178  -0.43468  -0.43318  -0.43168  -0.42961
 Alpha  occ. eigenvalues --   -0.42860  -0.42676  -0.42589  -0.42397  -0.42058
 Alpha  occ. eigenvalues --   -0.42002  -0.41815  -0.41714  -0.41560  -0.41145
 Alpha  occ. eigenvalues --   -0.41098  -0.40957  -0.40850  -0.40565  -0.40374
 Alpha  occ. eigenvalues --   -0.39957  -0.39765  -0.39700  -0.39236  -0.39143
 Alpha  occ. eigenvalues --   -0.38824  -0.38773  -0.38634  -0.38299  -0.38072
 Alpha  occ. eigenvalues --   -0.37752  -0.37323  -0.37091  -0.36842  -0.36630
 Alpha  occ. eigenvalues --   -0.36118  -0.35925  -0.35754  -0.35592  -0.35523
 Alpha  occ. eigenvalues --   -0.35384  -0.35187  -0.34737  -0.33809  -0.33262
 Alpha  occ. eigenvalues --   -0.33026  -0.32539  -0.32476  -0.30706  -0.29694
 Alpha  occ. eigenvalues --   -0.29663  -0.29224  -0.27544  -0.26897  -0.23451
 Alpha  occ. eigenvalues --   -0.21543
 Alpha virt. eigenvalues --   -0.06870  -0.04017   0.01656   0.03433   0.04418
 Alpha virt. eigenvalues --    0.05938   0.06076   0.06691   0.07070   0.07929
 Alpha virt. eigenvalues --    0.08376   0.10405   0.11103   0.11584   0.11689

 Mulliken charges:
               1
     1  Mg   0.811431
     2  C    0.065617
     3  C   -0.223393
     4  C   -0.183565
     5  C   -0.108591
     6  N   -0.661041
     7  C    0.318488
     8  C   -0.146225
     9  C   -0.175390
    10  C    0.358107
    11  C   -0.306765
    12  C   -0.161345
    13  C   -0.269998
    14  C    0.568803
    15  O   -0.458601
    16  O   -0.499713
    17  N   -0.704889
    18  C    0.309083
    19  C    0.078772
    20  C   -0.005148
    21  C    0.326241
    22  C   -0.385022
    23  C   -0.102841
    24  C   -0.233057
    25  N   -0.689409
    26  C    0.303608
    27  C    0.011814
    28  C   -0.007705
    29  C    0.272608
    30  C   -0.344964
    31  C   -0.248826
    32  C   -0.302262
    33  N   -0.717203
    34  C    0.224376
    35  C    0.046834
    36  C   -0.004238
    37  C    0.313452
    38  C   -0.370528
    39  C    0.357647
    40  O   -0.473055
    41  C   -0.327705
    42  C    0.627797
    43  O   -0.501876
    44  O   -0.456844
    45  C   -0.066764
    46  C    0.019508
    47  C   -0.121118
    48  C    0.081151
    49  C   -0.358765
    50  C   -0.220170
    51  C   -0.152281
    52  C   -0.178924
    53  C   -0.073056
    54  C   -0.292984
    55  C   -0.170305
    56  C   -0.177817
    57  C   -0.165295
    58  C   -0.063982
    59  C   -0.294216
    60  C   -0.139313
    61  C   -0.210809
    62  C   -0.149607
    63  C   -0.090030
    64  C   -0.303320
    65  C   -0.289861
    66  H    0.070239
    67  H    0.084645
    68  H    0.078778
    69  H    0.134524
    70  H    0.105334
    71  H    0.118405
    72  H    0.111968
    73  H    0.110349
    74  H    0.132344
    75  H    0.134752
    76  H    0.149786
    77  H    0.132714
    78  H    0.124263
    79  H    0.114813
    80  H    0.122297
    81  H    0.097762
    82  H    0.114962
    83  H    0.099250
    84  H    0.115843
    85  H    0.117073
    86  H    0.127317
    87  H    0.109177
    88  H    0.093171
    89  H    0.099458
    90  H    0.117711
    91  H    0.101092
    92  H    0.122226
    93  H    0.149622
    94  H    0.098394
    95  H    0.173561
    96  H    0.121040
    97  H    0.141447
    98  H    0.104304
    99  H    0.113699
   100  H    0.122060
   101  H    0.100041
   102  H    0.114613
   103  H    0.101371
   104  H    0.132171
   105  H    0.095644
   106  H    0.069114
   107  H    0.114284
   108  H    0.103249
   109  H    0.079601
   110  H    0.065580
   111  H    0.077062
   112  H    0.108125
   113  H    0.103723
   114  H    0.109633
   115  H    0.074900
   116  H    0.086576
   117  H    0.090233
   118  H    0.074218
   119  H    0.099997
   120  H    0.067187
   121  H    0.087808
   122  H    0.110539
   123  H    0.095943
   124  H    0.082863
   125  H    0.065961
   126  H    0.103177
   127  H    0.083746
   128  H    0.075373
   129  H    0.082003
   130  H    0.098215
   131  H    0.094384
   132  H    0.111996
   133  H    0.077277
   134  H    0.101415
   135  H    0.085547
   136  H    0.091164
   137  H    0.114366
 Sum of Mulliken charges =   0.00000

 Dipole moment (field-independent basis, Debye):
    X=              0.5086    Y=              5.4435    Z=             -0.1132  Tot=              5.4684
 Quadrupole moment (field-independent basis, Debye-Ang):
   XX=           -343.6802   YY=           -386.7144   ZZ=           -401.1701
   XY=            -32.3678   XZ=              6.0181   YZ=              2.7332

 Normal termination of Gaussian 09 at Sat Jul  6 06:30:31 2019.
