 Gaussian 16, Revision A.03,
 Gaussian 16:  ES64L-G16RevA.03 25-Dec-2016

 ----------------------------------------------------------------------
 # td=(NStates=1) iop(3/107=0140000000,3/108=0140000000) CAM-B3LYP/6-31
 G(d,p)
 ----------------------------------------------------------------------

 --
 TD
 --
 Symbolic Z-matrix:
 Charge =  0 Multiplicity = 1

                         Standard orientation:
 ---------------------------------------------------------------------
 Center     Atomic      Atomic             Coordinates (Angstroms)
 Number     Number       Type             X           Y           Z
 ---------------------------------------------------------------------
      1         12           0       -7.091463    0.510207    0.047597
      2          6           0       -4.868437   -2.010124    0.520341
      3          6           0       -4.800191    2.860636    1.174624
      4          6           0       -9.428823    3.193109   -0.356301
      5          6           0       -9.499246   -1.647049   -0.851785
      6          7           0       -5.167531    0.430861    0.679974
      7          6           0       -4.399376   -0.688394    0.856633
      8          6           0       -2.920802   -0.411958    1.225256
      9          6           0       -3.040740    1.114779    1.660639
     10          6           0       -4.371621    1.568742    1.100188
     11          6           0       -2.902539    1.234751    3.227142
     12          6           0       -1.937952   -0.528730    0.113205
     13          6           0       -0.406669   -0.275570    0.524969
     14          6           0        0.578693   -0.669416   -0.572443
     15          8           0        0.208473   -1.042643   -1.661270
     16          8           0        1.792638   -0.402911   -0.222673
     17          7           0       -7.120139    2.640921    0.312049
     18          6           0       -6.019861    3.358629    0.836937
     19          6           0       -6.439530    4.830905    0.877661
     20          6           0       -7.672752    4.886664    0.332735
     21          6           0       -8.129383    3.548147    0.110042
     22          6           0       -5.366631    5.930617    1.101139
     23          6           0       -8.461808    6.024054    0.130096
     24          6           0       -8.361695    7.286453    0.748333
     25          7           0       -9.089239    0.626730   -0.650296
     26          6           0       -9.821615    1.789938   -0.704761
     27          6           0      -11.216710    1.445846   -1.153981
     28          6           0      -11.236248    0.094590   -1.357184
     29          6           0       -9.887060   -0.337294   -0.948597
     30          6           0      -12.238728    2.506258   -1.503580
     31          6           0      -12.334953   -0.704256   -1.839895
     32          6           0      -12.077082   -1.302309   -3.243916
     33          7           0       -7.265162   -1.375621   -0.051908
     34          6           0       -8.339656   -2.253579   -0.547685
     35          6           0       -7.958675   -3.646987   -0.542671
     36          6           0       -6.543288   -3.561565   -0.126346
     37          6           0       -6.163879   -2.224998    0.061432
     38          6           0       -8.768041   -4.872678   -0.805612
     39          6           0       -5.421779   -4.420768    0.357655
     40          8           0       -5.198503   -5.643362    0.242357
     41          6           0       -4.258109   -3.363700    0.586088
     42          6           0       -3.603557   -3.667132    1.926579
     43          8           0       -3.741199   -3.099550    2.975898
     44          8           0       -2.644451   -4.716241    1.724623
     45          6           0       -2.152820   -5.210505    2.973834
     46          6           0        2.863570   -0.805900   -1.163914
     47          6           0        4.181938   -0.537972   -0.537621
     48          6           0        5.149827    0.265299   -0.878223
     49          6           0        5.016569    1.143758   -2.168932
     50          6           0        6.346257    0.419136   -0.058170
     51          6           0        7.602339   -0.129524   -0.785666
     52          6           0        8.911130    0.065647   -0.104790
     53          6           0       10.114644   -0.435840   -0.869489
     54          6           0       10.043296   -1.936096   -1.209449
     55          6           0       11.370798   -0.200114    0.014821
     56          6           0       12.728745   -0.355955   -0.603333
     57          6           0       13.960709   -0.125145    0.274598
     58          6           0       15.244932   -0.286879   -0.436083
     59          6           0       15.612924   -1.634531   -0.802846
     60          6           0       16.396240    0.372385    0.338934
     61          6           0       17.789989    0.450122   -0.270493
     62          6           0       18.834898    1.176627    0.594454
     63          6           0       20.273926    1.255042    0.231025
     64          6           0       20.371608    2.113731   -1.187556
     65          6           0       21.262161    1.968482    1.142778
     66          1           0       -4.203188    3.497276    1.602471
     67          1           0      -10.048325    4.166311   -0.388158
     68          1           0      -10.201530   -2.355861   -1.334539
     69          1           0       -2.716807   -1.060267    1.991876
     70          1           0       -2.301386    1.867544    1.209432
     71          1           0       -1.808609    1.011007    3.409236
     72          1           0       -3.256855    2.415618    3.646881
     73          1           0       -3.654594    0.667014    3.843182
     74          1           0       -2.052098   -1.348297   -0.494509
     75          1           0       -2.312868    0.200851   -0.718286
     76          1           0       -0.256039    0.963588    0.867818
     77          1           0       -0.134690   -0.804279    1.372164
     78          1           0       -5.586831    6.715037    0.415405
     79          1           0       -5.374760    6.326902    2.260819
     80          1           0       -4.370367    5.578305    0.738321
     81          1           0       -9.201116    5.768044   -0.539803
     82          1           0       -9.019513    8.066066    0.683514
     83          1           0       -7.771278    7.456761    1.745071
     84          1           0      -12.117121    2.931075   -2.626415
     85          1           0      -13.352418    2.043957   -1.427569
     86          1           0      -12.361829    3.172977   -0.524108
     87          1           0      -12.539273   -1.503316   -1.321129
     88          1           0      -13.173778   -0.192958   -2.075823
     89          1           0      -13.081014   -2.025809   -3.502889
     90          1           0      -12.060784   -0.615223   -4.182744
     91          1           0      -11.092383   -1.848216   -3.379287
     92          1           0       -9.413171   -4.770207   -1.829937
     93          1           0       -8.114277   -5.946631   -0.962251
     94          1           0       -9.545520   -4.720939   -0.078427
     95          1           0       -3.267564   -3.590263   -0.111628
     96          1           0       -1.592879   -4.409683    3.554235
     97          1           0       -3.013936   -5.575328    3.538849
     98          1           0       -1.526556   -6.091638    2.682496
     99          1           0        2.602109   -1.752023   -1.543587
    100          1           0        2.613712   -0.125048   -2.072898
    101          1           0        4.350021   -1.260119    0.157196
    102          1           0        4.047031    1.122152   -2.385508
    103          1           0        5.305533    2.138394   -2.050083
    104          1           0        5.728231    0.703468   -2.838543
    105          1           0        6.613968    1.313521    0.040868
    106          1           0        6.348735   -0.122880    0.957638
    107          1           0        7.329804   -1.275732   -1.018404
    108          1           0        7.725065    0.264231   -1.862811
    109          1           0        9.235283    1.038535    0.174154
    110          1           0        8.936287   -0.449858    0.777915
    111          1           0       10.456216    0.022576   -1.885192
    112          1           0        9.137664   -2.190614   -1.821657
    113          1           0       10.843787   -2.353659   -1.806537
    114          1           0       10.125962   -2.590282   -0.288905
    115          1           0       11.334579    0.648039    0.711949
    116          1           0       11.281736   -0.959762    0.868789
    117          1           0       12.471489   -1.315877   -1.230865
    118          1           0       12.732408    0.205367   -1.534603
    119          1           0       13.886024    0.942356    0.595087
    120          1           0       13.865554   -0.759764    1.144622
    121          1           0       15.101468    0.265004   -1.442174
    122          1           0       15.610784   -2.436351   -0.113972
    123          1           0       15.013934   -2.115650   -1.618572
    124          1           0       16.737219   -1.694550   -1.358963
    125          1           0       15.930365    1.384406    0.460410
    126          1           0       16.393363   -0.226302    1.238531
    127          1           0       18.314253   -0.500372   -0.656244
    128          1           0       17.625102    0.893947   -1.371502
    129          1           0       18.201176    2.190323    0.799159
    130          1           0       18.886749    0.648628    1.622387
    131          1           0       20.596339    0.106813    0.023799
    132          1           0       19.900236    2.987976   -1.186642
    133          1           0       21.398978    2.309434   -1.387871
    134          1           0       19.825088    1.517349   -1.956052
    135          1           0       21.315249    1.412269    2.162242
    136          1           0       22.351232    1.978426    0.670038
    137          1           0       20.977400    2.944868    1.426252
 ---------------------------------------------------------------------

 SCF Done:  E(RCAM-B3LYP) =  -2933.45482308     A.U. after   16 cycles

 Excitation energies and oscillator strengths:

 Excited State   1:      Singlet-A      1.9890 eV  623.36 nm  f=0.2545  <S**2>=0.000
     240 -> 243        0.24431
     241 -> 242        0.66008
 This state for optimization and/or second-order correction.
 Total Energy, E(TD-HF/TD-DFT) =  -2933.38173031
 Copying the excited state density for this state as the 1-particle RhoCI density.

 The electronic state is 1-A.
 Alpha  occ. eigenvalues --  -46.79150 -19.22175 -19.20422 -19.17537 -19.15877
 Alpha  occ. eigenvalues --  -19.15613 -14.38257 -14.35553 -14.35463 -14.34618
 Alpha  occ. eigenvalues --  -10.34275 -10.33756 -10.30696 -10.27891 -10.27217
 Alpha  occ. eigenvalues --  -10.26740 -10.26032 -10.25996 -10.25646 -10.25303
 Alpha  occ. eigenvalues --  -10.24867 -10.24855 -10.24855 -10.24697 -10.24490
 Alpha  occ. eigenvalues --  -10.24476 -10.24384 -10.24288 -10.24213 -10.24159
 Alpha  occ. eigenvalues --  -10.23866 -10.23459 -10.23442 -10.23150 -10.23143
 Alpha  occ. eigenvalues --  -10.23002 -10.22948 -10.22906 -10.22857 -10.22684
 Alpha  occ. eigenvalues --  -10.22638 -10.22552 -10.22477 -10.22303 -10.22079
 Alpha  occ. eigenvalues --  -10.21970 -10.21929 -10.21746 -10.21571 -10.21541
 Alpha  occ. eigenvalues --  -10.21529 -10.21478 -10.21335 -10.21170 -10.21097
 Alpha  occ. eigenvalues --  -10.21079 -10.20887 -10.20711 -10.20656 -10.20485
 Alpha  occ. eigenvalues --  -10.20456 -10.20422 -10.20370 -10.20061 -10.18830
 Alpha  occ. eigenvalues --   -3.07974  -1.82888  -1.82454  -1.82405  -1.14259
 Alpha  occ. eigenvalues --   -1.11212  -1.04162  -1.03980  -1.03738  -0.99785
 Alpha  occ. eigenvalues --   -0.97614  -0.96814  -0.95554  -0.87775  -0.87237
 Alpha  occ. eigenvalues --   -0.86737  -0.85476  -0.84858  -0.84615  -0.84252
 Alpha  occ. eigenvalues --   -0.83563  -0.83228  -0.82308  -0.81656  -0.81465
 Alpha  occ. eigenvalues --   -0.79872  -0.79250  -0.78335  -0.78025  -0.76978
 Alpha  occ. eigenvalues --   -0.76602  -0.75993  -0.75523  -0.75285  -0.73612
 Alpha  occ. eigenvalues --   -0.73085  -0.72883  -0.71563  -0.71182  -0.70699
 Alpha  occ. eigenvalues --   -0.70586  -0.70316  -0.69910  -0.69748  -0.67720
 Alpha  occ. eigenvalues --   -0.67029  -0.66173  -0.65385  -0.65004  -0.64637
 Alpha  occ. eigenvalues --   -0.63126  -0.62765  -0.61188  -0.60885  -0.60800
 Alpha  occ. eigenvalues --   -0.59789  -0.59396  -0.59197  -0.58250  -0.57592
 Alpha  occ. eigenvalues --   -0.57197  -0.57124  -0.56136  -0.55559  -0.55390
 Alpha  occ. eigenvalues --   -0.54240  -0.53980  -0.53541  -0.53270  -0.52368
 Alpha  occ. eigenvalues --   -0.51785  -0.51735  -0.51347  -0.51318  -0.51043
 Alpha  occ. eigenvalues --   -0.50449  -0.49945  -0.49731  -0.49115  -0.48898
 Alpha  occ. eigenvalues --   -0.48843  -0.48672  -0.48581  -0.48305  -0.48214
 Alpha  occ. eigenvalues --   -0.47729  -0.47682  -0.47225  -0.47008  -0.46906
 Alpha  occ. eigenvalues --   -0.46463  -0.46277  -0.46207  -0.45829  -0.45731
 Alpha  occ. eigenvalues --   -0.45583  -0.45509  -0.45362  -0.44918  -0.44752
 Alpha  occ. eigenvalues --   -0.44537  -0.44316  -0.44232  -0.43901  -0.43718
 Alpha  occ. eigenvalues --   -0.43671  -0.43235  -0.43118  -0.42835  -0.42385
 Alpha  occ. eigenvalues --   -0.42313  -0.42050  -0.41906  -0.41470  -0.41332
 Alpha  occ. eigenvalues --   -0.41246  -0.41107  -0.41064  -0.40904  -0.40614
 Alpha  occ. eigenvalues --   -0.40501  -0.40219  -0.40121  -0.39934  -0.39775
 Alpha  occ. eigenvalues --   -0.39660  -0.39433  -0.39412  -0.38963  -0.38921
 Alpha  occ. eigenvalues --   -0.38710  -0.38680  -0.38417  -0.38234  -0.37786
 Alpha  occ. eigenvalues --   -0.37745  -0.37617  -0.37488  -0.37203  -0.37087
 Alpha  occ. eigenvalues --   -0.36933  -0.36705  -0.36593  -0.36314  -0.36175
 Alpha  occ. eigenvalues --   -0.36002  -0.35623  -0.35446  -0.35294  -0.34746
 Alpha  occ. eigenvalues --   -0.34600  -0.34331  -0.33944  -0.33914  -0.33557
 Alpha  occ. eigenvalues --   -0.33425  -0.32906  -0.32785  -0.32401  -0.32291
 Alpha  occ. eigenvalues --   -0.32258  -0.31663  -0.31015  -0.30659  -0.30487
 Alpha  occ. eigenvalues --   -0.30461  -0.30066  -0.29886  -0.28027  -0.27870
 Alpha  occ. eigenvalues --   -0.26676  -0.26255  -0.25603  -0.24635  -0.21758
 Alpha  occ. eigenvalues --   -0.19909
 Alpha virt. eigenvalues --   -0.07185  -0.04284  -0.00973   0.00853   0.03630
 Alpha virt. eigenvalues --    0.03808   0.04107   0.04332   0.04880   0.05483
 Alpha virt. eigenvalues --    0.06237   0.07991   0.09026   0.09409   0.10076

 Mulliken charges:
               1
     1  Mg   0.822958
     2  C    0.101424
     3  C   -0.151229
     4  C   -0.177570
     5  C   -0.211841
     6  N   -0.649156
     7  C    0.297089
     8  C   -0.129634
     9  C   -0.148267
    10  C    0.330220
    11  C   -0.290311
    12  C   -0.159101
    13  C   -0.255407
    14  C    0.601755
    15  O   -0.483359
    16  O   -0.442937
    17  N   -0.694097
    18  C    0.289758
    19  C   -0.013400
    20  C    0.059995
    21  C    0.316421
    22  C   -0.367209
    23  C   -0.075810
    24  C   -0.257320
    25  N   -0.657339
    26  C    0.260961
    27  C   -0.002198
    28  C    0.077743
    29  C    0.329174
    30  C   -0.374711
    31  C   -0.214099
    32  C   -0.319333
    33  N   -0.753817
    34  C    0.265327
    35  C    0.083200
    36  C   -0.048624
    37  C    0.303749
    38  C   -0.380409
    39  C    0.374376
    40  O   -0.464068
    41  C   -0.343803
    42  C    0.609771
    43  O   -0.451033
    44  O   -0.473758
    45  C   -0.077966
    46  C   -0.021355
    47  C   -0.121750
    48  C    0.122304
    49  C   -0.353410
    50  C   -0.194843
    51  C   -0.204813
    52  C   -0.152278
    53  C   -0.069090
    54  C   -0.314318
    55  C   -0.176137
    56  C   -0.180620
    57  C   -0.162270
    58  C   -0.056442
    59  C   -0.303877
    60  C   -0.150357
    61  C   -0.173943
    62  C   -0.135589
    63  C   -0.047808
    64  C   -0.322580
    65  C   -0.300241
    66  H    0.061362
    67  H    0.095280
    68  H    0.068052
    69  H    0.122371
    70  H    0.103096
    71  H    0.114940
    72  H    0.059599
    73  H    0.135397
    74  H    0.128697
    75  H    0.095553
    76  H    0.094185
    77  H    0.137592
    78  H    0.135796
    79  H    0.101691
    80  H    0.114976
    81  H    0.079526
    82  H    0.112256
    83  H    0.094304
    84  H    0.124272
    85  H    0.091920
    86  H    0.114960
    87  H    0.121515
    88  H    0.115549
    89  H    0.063365
    90  H    0.100528
    91  H    0.107822
    92  H    0.106779
    93  H    0.145168
    94  H    0.148527
    95  H    0.157191
    96  H    0.114008
    97  H    0.127202
    98  H    0.118106
    99  H    0.142892
   100  H    0.113285
   101  H    0.084699
   102  H    0.118577
   103  H    0.117542
   104  H    0.130067
   105  H    0.111692
   106  H    0.095444
   107  H    0.082583
   108  H    0.083707
   109  H    0.102645
   110  H    0.105570
   111  H    0.075556
   112  H    0.096730
   113  H    0.107873
   114  H    0.094908
   115  H    0.073874
   116  H    0.069976
   117  H    0.074694
   118  H    0.088769
   119  H    0.093041
   120  H    0.097752
   121  H    0.072718
   122  H    0.107246
   123  H    0.095876
   124  H    0.067494
   125  H    0.086394
   126  H    0.094797
   127  H    0.084690
   128  H    0.070167
   129  H    0.064762
   130  H    0.075150
   131  H    0.069256
   132  H    0.116701
   133  H    0.095896
   134  H    0.093208
   135  H    0.081288
   136  H    0.094824
   137  H    0.119372
 Sum of Mulliken charges =  -0.00000

 Dipole moment (field-independent basis, Debye):
    X=              2.4037    Y=              4.5775    Z=              0.3776  Tot=              5.1840
 Quadrupole moment (field-independent basis, Debye-Ang):
   XX=           -345.9751   YY=           -399.3626   ZZ=           -398.7696
   XY=            -17.1827   XZ=             12.5858   YZ=              0.4810

 Normal termination of Gaussian 16 at Thu Sep 12 10:05:03 2019.
