 Gaussian 09, Revision D.01,
 Gaussian 09:  ES64L-G09RevD.01 24-Apr-2013

 -------------------------------------
 # td=(NStates=1) CAM-B3LYP/6-31G(d,p)
 -------------------------------------

 --
 TD
 --
 Symbolic Z-matrix:
 Charge =  0 Multiplicity = 1

                         Standard orientation:
 ---------------------------------------------------------------------
 Center     Atomic      Atomic             Coordinates (Angstroms)
 Number     Number       Type             X           Y           Z
 ---------------------------------------------------------------------
      1         12           0       -7.248356    0.656718    0.051746
      2          6           0       -4.885795   -1.988800    0.507005
      3          6           0       -4.814202    2.827818    1.125412
      4          6           0       -9.350531    3.247039   -0.416622
      5          6           0       -9.569780   -1.706095   -0.856086
      6          7           0       -5.131667    0.396822    0.710484
      7          6           0       -4.369386   -0.783581    0.876915
      8          6           0       -2.959571   -0.501793    1.257122
      9          6           0       -3.050426    1.037749    1.674265
     10          6           0       -4.462618    1.475018    1.091812
     11          6           0       -2.926360    1.362192    3.134939
     12          6           0       -1.904638   -0.634792    0.103771
     13          6           0       -0.471893   -0.650001    0.548871
     14          6           0        0.522050   -0.754627   -0.596522
     15          8           0        0.241176   -1.174676   -1.691086
     16          8           0        1.792662   -0.562919   -0.091194
     17          7           0       -7.109897    2.626492    0.339687
     18          6           0       -6.034198    3.340960    0.778291
     19          6           0       -6.316592    4.868149    0.606063
     20          6           0       -7.663370    4.949003    0.327333
     21          6           0       -8.113755    3.572767    0.037141
     22          6           0       -5.393680    5.928379    1.109472
     23          6           0       -8.504962    6.167654    0.051356
     24          6           0       -8.414446    7.276470    0.771399
     25          7           0       -9.162321    0.645053   -0.440348
     26          6           0       -9.818900    1.842642   -0.717613
     27          6           0      -11.270276    1.603318   -1.086716
     28          6           0      -11.331724    0.186072   -1.304461
     29          6           0      -10.027695   -0.391582   -0.892623
     30          6           0      -12.337629    2.596897   -1.395581
     31          6           0      -12.507458   -0.554260   -1.775101
     32          6           0      -12.267628   -1.156175   -3.228828
     33          7           0       -7.277070   -1.270571   -0.045580
     34          6           0       -8.377089   -2.222875   -0.551750
     35          6           0       -7.941146   -3.609465   -0.541418
     36          6           0       -6.630161   -3.516272   -0.031637
     37          6           0       -6.352875   -2.158300    0.165049
     38          6           0       -8.855209   -4.725759   -0.861360
     39          6           0       -5.367037   -4.385576    0.181570
     40          8           0       -5.264766   -5.581296    0.096591
     41          6           0       -4.277888   -3.247301    0.582126
     42          6           0       -3.579380   -3.635740    1.837681
     43          8           0       -3.721399   -3.088711    2.965170
     44          8           0       -2.851012   -4.718996    1.713221
     45          6           0       -2.278925   -5.271586    3.007622
     46          6           0        2.882144   -0.831139   -1.036342
     47          6           0        4.182097   -0.553776   -0.334868
     48          6           0        5.136525    0.109508   -0.942811
     49          6           0        5.029504    0.832866   -2.225763
     50          6           0        6.492373    0.224737   -0.188967
     51          6           0        7.671980   -0.323147   -0.992439
     52          6           0        8.928874   -0.350048   -0.096918
     53          6           0       10.203850   -0.655011   -0.787920
     54          6           0       10.219752   -2.096692   -1.398534
     55          6           0       11.495715   -0.365630    0.055150
     56          6           0       12.878858   -0.604657   -0.589006
     57          6           0       14.086956   -0.131792    0.291255
     58          6           0       15.420588   -0.191567   -0.316188
     59          6           0       15.815670   -1.575205   -0.854787
     60          6           0       16.429963    0.525050    0.521162
     61          6           0       17.963159    0.631015   -0.139130
     62          6           0       18.900772    1.483220    0.771631
     63          6           0       20.323292    1.544732    0.137368
     64          6           0       20.234687    2.165167   -1.296841
     65          6           0       21.293118    2.268202    1.093389
     66          1           0       -3.982784    3.637988    1.381639
     67          1           0      -10.172882    3.982081   -0.525252
     68          1           0      -10.261948   -2.311779   -1.361775
     69          1           0       -2.547926   -1.154302    1.992532
     70          1           0       -2.300789    1.696533    1.301370
     71          1           0       -2.021619    1.019396    3.468083
     72          1           0       -2.903057    2.364300    3.449493
     73          1           0       -3.508267    0.682971    3.864506
     74          1           0       -2.044058   -1.552496   -0.656342
     75          1           0       -1.963141    0.152534   -0.616562
     76          1           0       -0.122600    0.410285    1.177187
     77          1           0       -0.295520   -1.467515    1.064963
     78          1           0       -5.789005    6.749684    0.490630
     79          1           0       -5.464090    6.102013    2.317722
     80          1           0       -4.290855    5.779969    1.173446
     81          1           0       -9.503123    5.972110   -0.408741
     82          1           0       -9.047876    8.160693    0.692082
     83          1           0       -7.374557    7.409828    1.205216
     84          1           0      -11.852806    3.192035   -2.285701
     85          1           0      -13.152395    2.142747   -1.738070
     86          1           0      -12.542562    3.287621   -0.682696
     87          1           0      -12.670815   -1.337966   -1.169498
     88          1           0      -13.449002   -0.238264   -1.730782
     89          1           0      -13.294571   -1.692816   -3.482266
     90          1           0      -11.957044   -0.368028   -4.072747
     91          1           0      -11.495950   -1.849371   -3.311997
     92          1           0       -9.059178   -4.557628   -1.896459
     93          1           0       -8.645890   -5.830645   -0.439939
     94          1           0       -9.769637   -4.696064   -0.373802
     95          1           0       -3.467525   -3.336798   -0.229714
     96          1           0       -1.974357   -4.371528    3.629036
     97          1           0       -2.933374   -5.783925    3.576732
     98          1           0       -1.391090   -5.972068    2.676396
     99          1           0        2.777367   -1.783294   -1.394103
    100          1           0        2.823302   -0.170454   -1.952675
    101          1           0        4.284877   -0.997799    0.564632
    102          1           0        4.113229    0.892517   -2.841996
    103          1           0        5.357158    1.885920   -2.146126
    104          1           0        5.828237    0.406549   -2.832164
    105          1           0        6.761446    1.188724    0.016608
    106          1           0        6.504719   -0.318495    0.730495
    107          1           0        7.360316   -1.469179   -1.333160
    108          1           0        7.767609    0.335812   -1.816136
    109          1           0        9.334755    0.673381    0.214700
    110          1           0        8.520884   -0.942730    0.806328
    111          1           0       10.262510   -0.014836   -1.657367
    112          1           0        9.348219   -2.296934   -2.227026
    113          1           0       11.066110   -2.323608   -2.034658
    114          1           0       10.246319   -2.819496   -0.629718
    115          1           0       11.401608    0.701723    0.615907
    116          1           0       11.465336   -1.168514    0.853735
    117          1           0       12.892751   -1.685044   -0.742420
    118          1           0       12.936700    0.019688   -1.583750
    119          1           0       13.994206    0.945476    0.790147
    120          1           0       14.216728   -0.775038    1.072987
    121          1           0       15.411873    0.431866   -1.256868
    122          1           0       16.114523   -2.515609   -0.159014
    123          1           0       15.179479   -2.134148   -1.618427
    124          1           0       16.835658   -1.523514   -1.424003
    125          1           0       16.053418    1.501875    0.430028
    126          1           0       16.330943    0.072442    1.517556
    127          1           0       18.482053   -0.398111   -0.252085
    128          1           0       17.901609    1.273770   -1.090361
    129          1           0       18.593053    2.562702    1.029373
    130          1           0       18.951401    0.978928    1.822491
    131          1           0       20.640925    0.423970   -0.032961
    132          1           0       20.052096    3.372237   -1.502092
    133          1           0       21.238712    1.835974   -1.975826
    134          1           0       19.540728    1.529347   -2.065553
    135          1           0       21.590464    1.868860    2.006828
    136          1           0       22.362960    2.371310    0.689499
    137          1           0       20.771477    3.229440    1.286184
 ---------------------------------------------------------------------

 SCF Done:  E(RCAM-B3LYP) =  -2932.66423685     A.U. after   16 cycles

 Excitation energies and oscillator strengths:

 Excited State   1:      Singlet-A      2.2257 eV  557.05 nm  f=0.1966  <S**2>=0.000
     240 -> 243       -0.26013
     241 -> 242        0.64361
 This state for optimization and/or second-order correction.
 Total Energy, E(TD-HF/TD-KS) =  -2932.58244331
 Copying the excited state density for this state as the 1-particle RhoCI density.

 The electronic state is 1-A.
 Alpha  occ. eigenvalues --  -46.82873 -19.26550 -19.25655 -19.21307 -19.21272
 Alpha  occ. eigenvalues --  -19.19196 -14.40827 -14.39475 -14.39449 -14.39288
 Alpha  occ. eigenvalues --  -10.38997 -10.38705 -10.36180 -10.32037 -10.31046
 Alpha  occ. eigenvalues --  -10.30632 -10.30592 -10.30040 -10.29780 -10.29746
 Alpha  occ. eigenvalues --  -10.28928 -10.28880 -10.28608 -10.28324 -10.28300
 Alpha  occ. eigenvalues --  -10.28235 -10.28179 -10.28166 -10.28045 -10.28025
 Alpha  occ. eigenvalues --  -10.27919 -10.27479 -10.27214 -10.27208 -10.27192
 Alpha  occ. eigenvalues --  -10.27143 -10.26932 -10.26926 -10.26788 -10.26649
 Alpha  occ. eigenvalues --  -10.26601 -10.26601 -10.26550 -10.26526 -10.26391
 Alpha  occ. eigenvalues --  -10.26290 -10.26282 -10.26274 -10.26268 -10.26200
 Alpha  occ. eigenvalues --  -10.26167 -10.26133 -10.25702 -10.25619 -10.25575
 Alpha  occ. eigenvalues --  -10.25184 -10.25057 -10.24990 -10.24890 -10.24820
 Alpha  occ. eigenvalues --  -10.24781 -10.24776 -10.24574 -10.24403 -10.24010
 Alpha  occ. eigenvalues --   -3.12259  -1.86924  -1.86508  -1.86477  -1.17519
 Alpha  occ. eigenvalues --   -1.16790  -1.11954  -1.09186  -1.05737  -1.03242
 Alpha  occ. eigenvalues --   -1.02242  -1.01737  -0.99673  -0.92390  -0.91850
 Alpha  occ. eigenvalues --   -0.90981  -0.89768  -0.89596  -0.89310  -0.88688
 Alpha  occ. eigenvalues --   -0.88098  -0.87986  -0.87347  -0.86699  -0.85912
 Alpha  occ. eigenvalues --   -0.85039  -0.84173  -0.83571  -0.83005  -0.82429
 Alpha  occ. eigenvalues --   -0.81287  -0.80874  -0.80318  -0.79463  -0.78694
 Alpha  occ. eigenvalues --   -0.77864  -0.76720  -0.76501  -0.75999  -0.75205
 Alpha  occ. eigenvalues --   -0.74833  -0.74708  -0.74132  -0.73440  -0.71820
 Alpha  occ. eigenvalues --   -0.71077  -0.70367  -0.69964  -0.68592  -0.67250
 Alpha  occ. eigenvalues --   -0.66521  -0.66111  -0.65360  -0.64293  -0.64229
 Alpha  occ. eigenvalues --   -0.63462  -0.63124  -0.62604  -0.61795  -0.61366
 Alpha  occ. eigenvalues --   -0.61141  -0.60684  -0.60548  -0.59595  -0.58875
 Alpha  occ. eigenvalues --   -0.58627  -0.58032  -0.57276  -0.57175  -0.56665
 Alpha  occ. eigenvalues --   -0.55944  -0.55417  -0.55173  -0.55130  -0.54589
 Alpha  occ. eigenvalues --   -0.54473  -0.53692  -0.53354  -0.53217  -0.53100
 Alpha  occ. eigenvalues --   -0.52797  -0.52377  -0.52194  -0.52041  -0.51609
 Alpha  occ. eigenvalues --   -0.51335  -0.50816  -0.50516  -0.50403  -0.50295
 Alpha  occ. eigenvalues --   -0.50187  -0.49771  -0.49646  -0.49377  -0.49227
 Alpha  occ. eigenvalues --   -0.48865  -0.48752  -0.48674  -0.48635  -0.48453
 Alpha  occ. eigenvalues --   -0.48225  -0.47930  -0.47739  -0.47395  -0.47052
 Alpha  occ. eigenvalues --   -0.46687  -0.46475  -0.45961  -0.45713  -0.45375
 Alpha  occ. eigenvalues --   -0.45237  -0.44911  -0.44850  -0.44819  -0.44731
 Alpha  occ. eigenvalues --   -0.44459  -0.44357  -0.44320  -0.44062  -0.44008
 Alpha  occ. eigenvalues --   -0.43862  -0.43684  -0.43538  -0.43322  -0.43131
 Alpha  occ. eigenvalues --   -0.43062  -0.42575  -0.42364  -0.42286  -0.42092
 Alpha  occ. eigenvalues --   -0.41617  -0.41486  -0.41319  -0.41240  -0.41150
 Alpha  occ. eigenvalues --   -0.40943  -0.40624  -0.40509  -0.40197  -0.40087
 Alpha  occ. eigenvalues --   -0.39911  -0.39686  -0.39161  -0.39144  -0.39030
 Alpha  occ. eigenvalues --   -0.38969  -0.38724  -0.38092  -0.37986  -0.37753
 Alpha  occ. eigenvalues --   -0.37571  -0.37201  -0.37182  -0.36967  -0.36464
 Alpha  occ. eigenvalues --   -0.36283  -0.36087  -0.35890  -0.35739  -0.35447
 Alpha  occ. eigenvalues --   -0.35233  -0.35154  -0.35009  -0.34207  -0.33609
 Alpha  occ. eigenvalues --   -0.32687  -0.32476  -0.32161  -0.30244  -0.30025
 Alpha  occ. eigenvalues --   -0.29787  -0.29193  -0.28271  -0.26838  -0.23105
 Alpha  occ. eigenvalues --   -0.20923
 Alpha virt. eigenvalues --   -0.04996  -0.02613   0.02189   0.03905   0.05924
 Alpha virt. eigenvalues --    0.06378   0.06468   0.07369   0.07648   0.07821
 Alpha virt. eigenvalues --    0.08330   0.10556   0.10752   0.11572   0.11772

 Mulliken charges:
               1
     1  Mg   0.825827
     2  C    0.080744
     3  C   -0.228891
     4  C   -0.206416
     5  C   -0.184215
     6  N   -0.648198
     7  C    0.310244
     8  C   -0.149544
     9  C   -0.146923
    10  C    0.392942
    11  C   -0.322029
    12  C   -0.188654
    13  C   -0.233905
    14  C    0.599182
    15  O   -0.459327
    16  O   -0.500402
    17  N   -0.717853
    18  C    0.343542
    19  C   -0.011645
    20  C    0.033850
    21  C    0.333498
    22  C   -0.360498
    23  C   -0.076583
    24  C   -0.227834
    25  N   -0.677449
    26  C    0.259206
    27  C   -0.011152
    28  C    0.029969
    29  C    0.249749
    30  C   -0.352975
    31  C   -0.242187
    32  C   -0.311820
    33  N   -0.701612
    34  C    0.206795
    35  C    0.067633
    36  C   -0.078097
    37  C    0.369127
    38  C   -0.373138
    39  C    0.402708
    40  O   -0.432078
    41  C   -0.359806
    42  C    0.618988
    43  O   -0.525761
    44  O   -0.445876
    45  C   -0.091573
    46  C    0.017129
    47  C   -0.130966
    48  C    0.140886
    49  C   -0.388337
    50  C   -0.225050
    51  C   -0.179842
    52  C   -0.147920
    53  C   -0.061608
    54  C   -0.325394
    55  C   -0.179228
    56  C   -0.171373
    57  C   -0.160200
    58  C   -0.050413
    59  C   -0.322877
    60  C   -0.175066
    61  C   -0.184643
    62  C   -0.162865
    63  C   -0.040579
    64  C   -0.297955
    65  C   -0.306018
    66  H    0.074452
    67  H    0.092907
    68  H    0.079907
    69  H    0.128069
    70  H    0.102807
    71  H    0.115594
    72  H    0.112709
    73  H    0.110944
    74  H    0.105586
    75  H    0.116680
    76  H    0.096529
    77  H    0.148556
    78  H    0.127453
    79  H    0.109632
    80  H    0.119751
    81  H    0.090572
    82  H    0.114573
    83  H    0.095550
    84  H    0.106791
    85  H    0.121340
    86  H    0.127854
    87  H    0.118671
    88  H    0.113038
    89  H    0.081746
    90  H    0.095381
    91  H    0.120215
    92  H    0.135736
    93  H    0.130343
    94  H    0.140980
    95  H    0.161278
    96  H    0.146753
    97  H    0.154564
    98  H    0.120108
    99  H    0.133669
   100  H    0.104001
   101  H    0.088484
   102  H    0.124234
   103  H    0.118659
   104  H    0.127112
   105  H    0.111294
   106  H    0.097945
   107  H    0.077850
   108  H    0.098152
   109  H    0.082747
   110  H    0.083755
   111  H    0.092736
   112  H    0.080457
   113  H    0.103526
   114  H    0.107136
   115  H    0.069424
   116  H    0.085530
   117  H    0.110698
   118  H    0.076206
   119  H    0.069590
   120  H    0.102461
   121  H    0.075195
   122  H    0.071419
   123  H    0.102180
   124  H    0.090385
   125  H    0.106679
   126  H    0.089111
   127  H    0.095724
   128  H    0.100614
   129  H    0.080869
   130  H    0.079979
   131  H    0.077551
   132  H    0.092385
   133  H    0.069223
   134  H    0.096880
   135  H    0.115038
   136  H    0.090047
   137  H    0.098739
 Sum of Mulliken charges =   0.00000

 Dipole moment (field-independent basis, Debye):
    X=              2.4462    Y=              3.9849    Z=              0.0875  Tot=              4.6766
 Quadrupole moment (field-independent basis, Debye-Ang):
   XX=           -331.8686   YY=           -381.6348   ZZ=           -398.7487
   XY=            -20.1358   XZ=             13.4047   YZ=             -4.0650

 Normal termination of Gaussian 09 at Fri Jul  5 06:35:19 2019.
