 Gaussian 09, Revision D.01,
 Gaussian 09:  ES64L-G09RevD.01 24-Apr-2013

 -------------------------------------
 # td=(NStates=1) CAM-B3LYP/6-31G(d,p)
 -------------------------------------

 --
 TD
 --
 Symbolic Z-matrix:
 Charge =  0 Multiplicity = 1

                         Standard orientation:
 ---------------------------------------------------------------------
 Center     Atomic      Atomic             Coordinates (Angstroms)
 Number     Number       Type             X           Y           Z
 ---------------------------------------------------------------------
      1         12           0       -7.172448    0.563307    0.094741
      2          6           0       -4.804532   -1.941310    0.384538
      3          6           0       -4.683876    2.803875    1.146540
      4          6           0       -9.339942    3.127208   -0.274347
      5          6           0       -9.561596   -1.702066   -0.900401
      6          7           0       -5.021828    0.384924    0.670231
      7          6           0       -4.294252   -0.736408    0.737933
      8          6           0       -2.914137   -0.472804    1.121326
      9          6           0       -2.893045    0.998462    1.608379
     10          6           0       -4.315202    1.455169    1.031289
     11          6           0       -2.794080    1.238264    3.060492
     12          6           0       -1.876782   -0.630924   -0.000179
     13          6           0       -0.414132   -0.601076    0.488066
     14          6           0        0.512136   -0.738016   -0.590331
     15          8           0        0.142066   -1.035800   -1.669224
     16          8           0        1.751661   -0.434724   -0.245836
     17          7           0       -6.999669    2.588399    0.309212
     18          6           0       -5.977622    3.412417    0.692209
     19          6           0       -6.302424    4.820454    0.732787
     20          6           0       -7.632031    4.794603    0.383239
     21          6           0       -8.094871    3.442968    0.153451
     22          6           0       -5.295198    5.887408    1.002308
     23          6           0       -8.481318    5.933452    0.296065
     24          6           0       -8.484537    7.134108    0.909236
     25          7           0       -9.116381    0.749634   -0.449970
     26          6           0       -9.809456    1.907832   -0.541236
     27          6           0      -11.155445    1.511076   -1.017704
     28          6           0      -11.180877    0.157724   -1.193476
     29          6           0       -9.864105   -0.290827   -0.816462
     30          6           0      -12.314328    2.479620   -1.291099
     31          6           0      -12.381369   -0.649423   -1.705508
     32          6           0      -12.325707   -0.944863   -3.140765
     33          7           0       -7.286766   -1.365792   -0.148143
     34          6           0       -8.306656   -2.150379   -0.426774
     35          6           0       -7.914332   -3.568568   -0.412925
     36          6           0       -6.560946   -3.562038   -0.052862
     37          6           0       -6.230697   -2.220261    0.100291
     38          6           0       -8.763647   -4.786080   -0.611931
     39          6           0       -5.359870   -4.374808    0.180981
     40          8           0       -5.132071   -5.639210    0.067952
     41          6           0       -4.177554   -3.268772    0.584202
     42          6           0       -3.555517   -3.694747    1.855982
     43          8           0       -3.731193   -3.132304    2.953777
     44          8           0       -2.732521   -4.745236    1.657037
     45          6           0       -2.269638   -5.288660    2.951371
     46          6           0        2.805137   -0.731948   -1.305025
     47          6           0        4.046349   -0.339094   -0.623441
     48          6           0        5.058769    0.439443   -1.066810
     49          6           0        5.049916    1.184791   -2.490003
     50          6           0        6.311964    0.518610   -0.304634
     51          6           0        7.590389   -0.158140   -1.057954
     52          6           0        8.860556   -0.093033   -0.307735
     53          6           0       10.207892   -0.505276   -1.024518
     54          6           0       10.097670   -1.928380   -1.535960
     55          6           0       11.399998   -0.250300   -0.085584
     56          6           0       12.707983   -0.494078   -0.788133
     57          6           0       13.802895   -0.066909    0.160577
     58          6           0       15.327716   -0.326645   -0.347123
     59          6           0       15.663274   -1.775577   -0.578124
     60          6           0       16.456334    0.332446    0.541002
     61          6           0       17.800005    0.495021   -0.041647
     62          6           0       18.758793    1.366712    0.878978
     63          6           0       20.140788    1.406629    0.412849
     64          6           0       20.389934    2.020923   -1.054199
     65          6           0       21.057278    2.010913    1.342934
     66          1           0       -3.893516    3.204733    1.691455
     67          1           0      -10.127687    3.825038   -0.239695
     68          1           0      -10.201613   -2.372118   -1.091967
     69          1           0       -2.702936   -1.163278    1.895092
     70          1           0       -2.023111    1.514182    1.021899
     71          1           0       -1.889231    0.697044    3.411641
     72          1           0       -2.558006    2.345294    3.412219
     73          1           0       -3.668262    0.904917    3.672612
     74          1           0       -1.908431   -1.560420   -0.558502
     75          1           0       -2.040853   -0.051875   -0.761721
     76          1           0       -0.241578    0.276553    1.087714
     77          1           0       -0.534690   -1.501128    1.273912
     78          1           0       -5.564885    6.761916    0.398499
     79          1           0       -5.283946    6.122549    2.066945
     80          1           0       -4.428153    5.751647    0.638727
     81          1           0       -9.220798    5.651088   -0.305441
     82          1           0       -9.134266    7.938656    0.819667
     83          1           0       -7.873218    7.433726    1.667603
     84          1           0      -12.184706    3.133969   -2.186292
     85          1           0      -13.213141    2.009734   -1.545289
     86          1           0      -12.608119    2.919744   -0.417347
     87          1           0      -12.515545   -1.482499   -1.157134
     88          1           0      -13.168036   -0.074291   -1.801115
     89          1           0      -13.305687   -1.584144   -3.389556
     90          1           0      -12.329729   -0.027711   -3.737493
     91          1           0      -11.373045   -1.331854   -3.374686
     92          1           0       -8.864854   -4.793629   -1.768894
     93          1           0       -8.188297   -5.601426   -0.253986
     94          1           0       -9.679823   -4.479772   -0.059168
     95          1           0       -3.392769   -3.768802   -0.163103
     96          1           0       -2.019005   -4.554219    3.861826
     97          1           0       -3.235144   -5.872467    3.310585
     98          1           0       -1.364936   -5.855404    2.770489
     99          1           0        2.731910   -1.916677   -1.347177
    100          1           0        2.674832   -0.079753   -2.214541
    101          1           0        4.143884   -0.825010    0.348230
    102          1           0        4.047660    0.929522   -3.060970
    103          1           0        5.186966    2.282460   -2.517804
    104          1           0        5.782712    0.696415   -3.259852
    105          1           0        6.630330    1.456064   -0.109211
    106          1           0        6.400577   -0.177261    0.700770
    107          1           0        7.333208   -1.132214   -1.369956
    108          1           0        7.825882    0.357725   -2.096579
    109          1           0        9.029339    0.951248    0.202989
    110          1           0        8.857174   -0.655656    0.579148
    111          1           0       10.226246    0.161696   -1.710368
    112          1           0        9.298475   -2.010964   -2.081889
    113          1           0       10.900593   -2.127832   -2.053540
    114          1           0       10.022688   -2.524798   -0.685421
    115          1           0       11.471826    0.780108    0.260870
    116          1           0       11.421959   -0.731256    0.930352
    117          1           0       12.684650   -1.613732   -0.993884
    118          1           0       12.726494    0.103265   -1.837101
    119          1           0       13.591275    1.052751    0.425575
    120          1           0       13.519841   -0.678332    1.107470
    121          1           0       15.267908    0.149866   -1.408604
    122          1           0       15.867933   -2.162997    0.459675
    123          1           0       14.931946   -2.459636   -1.160021
    124          1           0       16.627607   -2.016720   -1.041584
    125          1           0       16.124704    1.410961    0.882510
    126          1           0       16.609616   -0.198811    1.401635
    127          1           0       18.332596   -0.568845   -0.117173
    128          1           0       17.905269    0.890500   -1.080983
    129          1           0       18.313751    2.439052    0.970252
    130          1           0       18.794044    0.930341    1.933388
    131          1           0       20.443863    0.410332    0.105827
    132          1           0       19.996844    3.159951   -1.196437
    133          1           0       21.569400    2.203598   -1.103948
    134          1           0       20.087575    1.328786   -1.971827
    135          1           0       20.938012    1.710279    2.571790
    136          1           0       22.147254    2.119635    1.015281
    137          1           0       20.633159    3.046226    1.396938
 ---------------------------------------------------------------------

 SCF Done:  E(RCAM-B3LYP) =  -2932.66142591     A.U. after   18 cycles

 Excitation energies and oscillator strengths:

 Excited State   1:      Singlet-A      1.9830 eV  625.22 nm  f=0.2722  <S**2>=0.000
     240 -> 243       -0.23800
     241 -> 242        0.65932
 This state for optimization and/or second-order correction.
 Total Energy, E(TD-HF/TD-KS) =  -2932.58855028
 Copying the excited state density for this state as the 1-particle RhoCI density.

 The electronic state is 1-A.
 Alpha  occ. eigenvalues --  -46.84114 -19.26928 -19.25561 -19.20824 -19.20053
 Alpha  occ. eigenvalues --  -19.19752 -14.40671 -14.39674 -14.39648 -14.39220
 Alpha  occ. eigenvalues --  -10.38939 -10.37489 -10.36649 -10.33475 -10.32581
 Alpha  occ. eigenvalues --  -10.30534 -10.29951 -10.29904 -10.29567 -10.29078
 Alpha  occ. eigenvalues --  -10.29031 -10.28962 -10.28921 -10.28846 -10.28701
 Alpha  occ. eigenvalues --  -10.28550 -10.28213 -10.27725 -10.27673 -10.27448
 Alpha  occ. eigenvalues --  -10.26952 -10.26924 -10.26894 -10.26840 -10.26679
 Alpha  occ. eigenvalues --  -10.26651 -10.26458 -10.26343 -10.26321 -10.26258
 Alpha  occ. eigenvalues --  -10.26228 -10.26210 -10.26111 -10.26070 -10.26069
 Alpha  occ. eigenvalues --  -10.25992 -10.25960 -10.25774 -10.25747 -10.25675
 Alpha  occ. eigenvalues --  -10.25589 -10.25245 -10.25244 -10.25209 -10.25129
 Alpha  occ. eigenvalues --  -10.24994 -10.24927 -10.24762 -10.24758 -10.24753
 Alpha  occ. eigenvalues --  -10.24617 -10.24408 -10.24049 -10.23746 -10.21481
 Alpha  occ. eigenvalues --   -3.13271  -1.87968  -1.87508  -1.87463  -1.18384
 Alpha  occ. eigenvalues --   -1.17300  -1.09630  -1.07314  -1.07270  -1.05416
 Alpha  occ. eigenvalues --   -1.04379  -1.04097  -1.02710  -0.92432  -0.91448
 Alpha  occ. eigenvalues --   -0.90715  -0.90481  -0.90072  -0.90015  -0.89541
 Alpha  occ. eigenvalues --   -0.88822  -0.88294  -0.88120  -0.86982  -0.86273
 Alpha  occ. eigenvalues --   -0.85552  -0.84681  -0.84263  -0.83848  -0.83482
 Alpha  occ. eigenvalues --   -0.81620  -0.81378  -0.80644  -0.80451  -0.78818
 Alpha  occ. eigenvalues --   -0.78309  -0.77722  -0.76566  -0.75915  -0.75369
 Alpha  occ. eigenvalues --   -0.75216  -0.74570  -0.73713  -0.73438  -0.72634
 Alpha  occ. eigenvalues --   -0.70995  -0.70673  -0.69901  -0.69351  -0.68830
 Alpha  occ. eigenvalues --   -0.68434  -0.66390  -0.65625  -0.65153  -0.64811
 Alpha  occ. eigenvalues --   -0.64797  -0.63890  -0.62468  -0.62328  -0.62208
 Alpha  occ. eigenvalues --   -0.61813  -0.61057  -0.60800  -0.59765  -0.59453
 Alpha  occ. eigenvalues --   -0.59169  -0.58335  -0.58053  -0.57091  -0.56324
 Alpha  occ. eigenvalues --   -0.55981  -0.55803  -0.55374  -0.55088  -0.54512
 Alpha  occ. eigenvalues --   -0.54255  -0.54133  -0.53681  -0.53527  -0.53342
 Alpha  occ. eigenvalues --   -0.52951  -0.52848  -0.52656  -0.52512  -0.52227
 Alpha  occ. eigenvalues --   -0.52034  -0.51535  -0.51449  -0.51066  -0.50937
 Alpha  occ. eigenvalues --   -0.50627  -0.50024  -0.49985  -0.49889  -0.49738
 Alpha  occ. eigenvalues --   -0.49343  -0.49203  -0.48865  -0.48717  -0.48336
 Alpha  occ. eigenvalues --   -0.48268  -0.48070  -0.47848  -0.47676  -0.47366
 Alpha  occ. eigenvalues --   -0.46856  -0.46837  -0.46623  -0.46346  -0.46068
 Alpha  occ. eigenvalues --   -0.45929  -0.45725  -0.45684  -0.45317  -0.45242
 Alpha  occ. eigenvalues --   -0.45174  -0.44830  -0.44652  -0.44418  -0.44226
 Alpha  occ. eigenvalues --   -0.43939  -0.43781  -0.43594  -0.43545  -0.43034
 Alpha  occ. eigenvalues --   -0.42862  -0.42485  -0.42355  -0.42234  -0.42212
 Alpha  occ. eigenvalues --   -0.41989  -0.41497  -0.41316  -0.41235  -0.41124
 Alpha  occ. eigenvalues --   -0.40948  -0.40639  -0.40383  -0.40131  -0.39997
 Alpha  occ. eigenvalues --   -0.39911  -0.39684  -0.39579  -0.39331  -0.39235
 Alpha  occ. eigenvalues --   -0.39026  -0.38936  -0.38736  -0.38444  -0.37774
 Alpha  occ. eigenvalues --   -0.37678  -0.37418  -0.37356  -0.37021  -0.36781
 Alpha  occ. eigenvalues --   -0.36488  -0.36295  -0.36016  -0.35720  -0.35602
 Alpha  occ. eigenvalues --   -0.35424  -0.34812  -0.34763  -0.34180  -0.33503
 Alpha  occ. eigenvalues --   -0.33210  -0.32963  -0.32190  -0.30625  -0.30067
 Alpha  occ. eigenvalues --   -0.29984  -0.29733  -0.28669  -0.27340  -0.22775
 Alpha  occ. eigenvalues --   -0.21200
 Alpha virt. eigenvalues --   -0.06942  -0.02641   0.00913   0.04297   0.04925
 Alpha virt. eigenvalues --    0.05640   0.06150   0.06571   0.06963   0.07484
 Alpha virt. eigenvalues --    0.09454   0.11018   0.11607   0.11667   0.11677

 Mulliken charges:
               1
     1  Mg   0.835557
     2  C    0.057445
     3  C   -0.176118
     4  C   -0.163772
     5  C   -0.088992
     6  N   -0.626056
     7  C    0.339070
     8  C   -0.167107
     9  C   -0.141251
    10  C    0.298634
    11  C   -0.306328
    12  C   -0.175605
    13  C   -0.285672
    14  C    0.639389
    15  O   -0.466937
    16  O   -0.496425
    17  N   -0.691655
    18  C    0.261634
    19  C    0.031575
    20  C   -0.036359
    21  C    0.350072
    22  C   -0.349100
    23  C   -0.051587
    24  C   -0.253265
    25  N   -0.728829
    26  C    0.299347
    27  C   -0.029209
    28  C   -0.001450
    29  C    0.285308
    30  C   -0.379745
    31  C   -0.188562
    32  C   -0.310172
    33  N   -0.724689
    34  C    0.289610
    35  C   -0.052276
    36  C    0.072873
    37  C    0.248249
    38  C   -0.349266
    39  C    0.340711
    40  O   -0.491317
    41  C   -0.340377
    42  C    0.649182
    43  O   -0.508629
    44  O   -0.449419
    45  C   -0.092693
    46  C    0.006808
    47  C   -0.117768
    48  C    0.128401
    49  C   -0.367968
    50  C   -0.219417
    51  C   -0.187602
    52  C   -0.185156
    53  C   -0.058414
    54  C   -0.298075
    55  C   -0.188856
    56  C   -0.163517
    57  C   -0.174318
    58  C   -0.047002
    59  C   -0.315180
    60  C   -0.166837
    61  C   -0.178618
    62  C   -0.158787
    63  C   -0.026182
    64  C   -0.311652
    65  C   -0.298419
    66  H    0.070872
    67  H    0.101777
    68  H    0.061429
    69  H    0.120752
    70  H    0.100224
    71  H    0.108076
    72  H    0.094959
    73  H    0.128901
    74  H    0.122268
    75  H    0.117779
    76  H    0.126902
    77  H    0.122864
    78  H    0.118609
    79  H    0.126241
    80  H    0.130753
    81  H    0.076251
    82  H    0.106901
    83  H    0.100714
    84  H    0.117270
    85  H    0.114247
    86  H    0.128509
    87  H    0.108383
    88  H    0.110740
    89  H    0.084651
    90  H    0.105459
    91  H    0.108924
    92  H    0.129348
    93  H    0.156159
    94  H    0.126153
    95  H    0.164348
    96  H    0.135764
    97  H    0.131421
    98  H    0.129280
    99  H    0.131021
   100  H    0.132442
   101  H    0.100383
   102  H    0.093973
   103  H    0.129518
   104  H    0.118510
   105  H    0.115290
   106  H    0.086539
   107  H    0.108190
   108  H    0.067173
   109  H    0.065354
   110  H    0.090961
   111  H    0.094466
   112  H    0.106132
   113  H    0.109703
   114  H    0.105144
   115  H    0.087543
   116  H    0.084375
   117  H    0.095769
   118  H    0.070312
   119  H    0.083881
   120  H    0.077541
   121  H    0.072573
   122  H    0.091031
   123  H    0.096040
   124  H    0.109080
   125  H    0.074283
   126  H    0.106836
   127  H    0.069499
   128  H    0.099044
   129  H    0.078766
   130  H    0.085462
   131  H    0.095600
   132  H    0.079992
   133  H    0.084434
   134  H    0.099631
   135  H    0.069443
   136  H    0.101357
   137  H    0.098544
 Sum of Mulliken charges =   0.00000

 Dipole moment (field-independent basis, Debye):
    X=              1.6909    Y=              3.7084    Z=              0.2850  Tot=              4.0857
 Quadrupole moment (field-independent basis, Debye-Ang):
   XX=           -330.7801   YY=           -395.2802   ZZ=           -395.7759
   XY=            -21.3594   XZ=              3.9731   YZ=             -2.4883

 Normal termination of Gaussian 09 at Sat Jul  6 14:02:10 2019.
