 Gaussian 16, Revision A.03,
 Gaussian 16:  ES64L-G16RevA.03 25-Dec-2016

 ----------------------------------------------------------------------
 # td=(NStates=1) iop(3/107=0140000000,3/108=0140000000) CAM-B3LYP/6-31
 G(d,p)
 ----------------------------------------------------------------------

 --
 TD
 --
 Symbolic Z-matrix:
 Charge =  0 Multiplicity = 1

                         Standard orientation:
 ---------------------------------------------------------------------
 Center     Atomic      Atomic             Coordinates (Angstroms)
 Number     Number       Type             X           Y           Z
 ---------------------------------------------------------------------
      1         12           0       -7.137658    0.538681    0.074408
      2          6           0       -4.891547   -2.021179    0.705910
      3          6           0       -4.716953    2.800249    1.174288
      4          6           0       -9.351479    3.157570   -0.311386
      5          6           0       -9.486789   -1.645190   -0.964749
      6          7           0       -5.198587    0.390597    0.865391
      7          6           0       -4.347099   -0.735771    0.846279
      8          6           0       -2.944727   -0.415030    1.260797
      9          6           0       -3.041419    1.038762    1.753248
     10          6           0       -4.424283    1.491408    1.239556
     11          6           0       -2.899938    1.209684    3.271473
     12          6           0       -2.057136   -0.553621    0.084571
     13          6           0       -0.555038   -0.384967    0.531803
     14          6           0        0.417238   -0.630874   -0.581346
     15          8           0        0.178217   -0.845580   -1.756735
     16          8           0        1.696001   -0.424230   -0.201466
     17          7           0       -7.048180    2.527459    0.323741
     18          6           0       -5.942395    3.367321    0.887317
     19          6           0       -6.200239    4.732129    0.913676
     20          6           0       -7.587188    4.868587    0.401877
     21          6           0       -8.043262    3.443740    0.121704
     22          6           0       -5.373493    5.866460    1.244303
     23          6           0       -8.355894    6.029095    0.182414
     24          6           0       -8.249269    7.271059    0.884086
     25          7           0       -9.060234    0.716216   -0.622935
     26          6           0       -9.782076    1.883606   -0.662901
     27          6           0      -11.084485    1.552792   -1.102700
     28          6           0      -11.155128    0.157871   -1.395886
     29          6           0       -9.840874   -0.319860   -0.930879
     30          6           0      -12.227597    2.574813   -1.424160
     31          6           0      -12.246529   -0.707715   -1.965081
     32          6           0      -11.840461   -1.008054   -3.469339
     33          7           0       -7.224732   -1.436545   -0.172884
     34          6           0       -8.225161   -2.119890   -0.573056
     35          6           0       -7.830603   -3.635241   -0.523495
     36          6           0       -6.569736   -3.608121    0.039065
     37          6           0       -6.169189   -2.212347    0.175234
     38          6           0       -8.660404   -4.812912   -0.950178
     39          6           0       -5.437140   -4.445111    0.237657
     40          8           0       -5.225452   -5.670837    0.050616
     41          6           0       -4.279746   -3.402024    0.628393
     42          6           0       -3.577011   -3.847211    1.876315
     43          8           0       -3.783846   -3.345725    3.055453
     44          8           0       -2.661213   -4.782069    1.700219
     45          6           0       -2.159297   -5.389988    2.902005
     46          6           0        2.731864   -0.555441   -1.103481
     47          6           0        4.079334   -0.288536   -0.544369
     48          6           0        5.072315    0.402574   -0.997467
     49          6           0        5.029652    1.179399   -2.205714
     50          6           0        6.316461    0.443603   -0.176066
     51          6           0        7.525909   -0.155094   -1.002620
     52          6           0        8.775647   -0.145762   -0.011191
     53          6           0       10.034132   -0.623801   -0.770697
     54          6           0       10.070934   -2.063619   -1.316487
     55          6           0       11.378690   -0.274859    0.049841
     56          6           0       12.676295   -0.375291   -0.715127
     57          6           0       13.887613   -0.065311    0.234463
     58          6           0       15.253919    0.018716   -0.582335
     59          6           0       15.625974   -1.408268   -1.171671
     60          6           0       16.281317    0.617533    0.319786
     61          6           0       17.763082    0.658660   -0.170333
     62          6           0       18.805754    1.198208    0.723347
     63          6           0       20.250154    1.098045    0.222715
     64          6           0       20.343366    2.023414   -1.094323
     65          6           0       21.261327    1.582284    1.321420
     66          1           0       -3.775309    3.439370    1.187050
     67          1           0       -9.942442    4.066606   -0.514686
     68          1           0      -10.143378   -2.307436   -1.319158
     69          1           0       -2.596524   -1.270704    2.054568
     70          1           0       -2.275615    1.547019    1.141533
     71          1           0       -1.874398    0.980539    3.569023
     72          1           0       -2.988698    2.294524    3.475746
     73          1           0       -3.630183    0.604704    3.792410
     74          1           0       -2.163017   -1.633856   -0.154838
     75          1           0       -2.317080    0.198889   -0.867448
     76          1           0       -0.335739    0.671340    0.736769
     77          1           0       -0.316469   -1.018893    1.458233
     78          1           0       -5.832083    6.815664    0.670777
     79          1           0       -5.321871    6.091351    2.364874
     80          1           0       -4.315452    5.603543    0.970509
     81          1           0       -9.319411    5.922030   -0.443918
     82          1           0       -8.865163    8.017118    0.432213
     83          1           0       -7.494423    7.310278    1.658707
     84          1           0      -11.857330    3.175036   -2.213299
     85          1           0      -13.253841    2.322191   -1.823513
     86          1           0      -12.599725    2.910398   -0.427936
     87          1           0      -12.491364   -1.661074   -1.330388
     88          1           0      -13.202710   -0.026786   -1.937352
     89          1           0      -12.701047   -1.426049   -4.151651
     90          1           0      -11.731555    0.081831   -4.078114
     91          1           0      -10.983152   -1.505359   -3.659746
     92          1           0       -9.074541   -4.598419   -1.851686
     93          1           0       -8.083111   -5.702022   -0.657009
     94          1           0       -9.636868   -4.842242   -0.415706
     95          1           0       -3.551086   -3.606881   -0.153756
     96          1           0       -1.795329   -4.736056    3.638325
     97          1           0       -2.926189   -5.996262    3.418716
     98          1           0       -1.425508   -6.172515    2.644488
     99          1           0        2.768344   -1.647470   -1.400783
    100          1           0        2.670006   -0.166948   -2.047368
    101          1           0        4.178444   -0.773244    0.283594
    102          1           0        4.044745    1.355959   -2.802754
    103          1           0        5.575951    2.078944   -1.770626
    104          1           0        5.830993    0.756682   -2.965385
    105          1           0        6.578006    1.409800    0.147915
    106          1           0        6.169115   -0.037404    0.828272
    107          1           0        7.210424   -1.189615   -1.269261
    108          1           0        7.563233    0.383618   -2.005419
    109          1           0        8.983318    0.917464    0.335884
    110          1           0        8.367207   -0.502859    0.924283
    111          1           0       10.074021    0.040081   -1.646521
    112          1           0        9.107130   -2.099409   -2.134839
    113          1           0       11.085149   -2.396989   -1.649953
    114          1           0        9.840820   -2.618374   -0.381462
    115          1           0       11.441775    0.698013    0.527209
    116          1           0       11.448755   -0.897558    0.949271
    117          1           0       12.511097   -1.560014   -1.124763
    118          1           0       12.865115    0.132745   -1.724542
    119          1           0       13.727401    0.935524    0.658415
    120          1           0       13.999172   -0.910218    0.919343
    121          1           0       14.954379    0.585096   -1.554695
    122          1           0       15.744941   -1.990355   -0.028203
    123          1           0       14.838428   -2.023208   -1.535035
    124          1           0       16.441756   -1.447104   -1.796713
    125          1           0       15.941826    1.577599    0.578839
    126          1           0       16.264418    0.272226    1.394224
    127          1           0       17.858128   -0.419360   -0.593914
    128          1           0       17.402620    1.150523   -1.176991
    129          1           0       18.473368    2.248784    0.969320
    130          1           0       18.685647    0.562243    1.614141
    131          1           0       20.296645    0.089125    0.134212
    132          1           0       19.821612    2.972624   -0.995597
    133          1           0       21.296088    2.145354   -1.442067
    134          1           0       19.809688    1.464697   -1.898142
    135          1           0       21.314748    0.939457    2.185110
    136          1           0       22.189293    1.591899    0.992037
    137          1           0       21.026833    2.624094    1.759394
 ---------------------------------------------------------------------

 SCF Done:  E(RCAM-B3LYP) =  -2933.53402895     A.U. after   16 cycles

 Excitation energies and oscillator strengths:

 Excited State   1:      Singlet-A      1.8689 eV  663.42 nm  f=0.3066  <S**2>=0.000
     240 -> 243       -0.21194
     241 -> 242        0.67022
 This state for optimization and/or second-order correction.
 Total Energy, E(TD-HF/TD-DFT) =  -2933.46534918
 Copying the excited state density for this state as the 1-particle RhoCI density.

 The electronic state is 1-A.
 Alpha  occ. eigenvalues --  -46.79189 -19.23445 -19.21602 -19.16790 -19.16136
 Alpha  occ. eigenvalues --  -19.15382 -14.38048 -14.35887 -14.35569 -14.34623
 Alpha  occ. eigenvalues --  -10.34737 -10.34411 -10.31318 -10.26898 -10.26699
 Alpha  occ. eigenvalues --  -10.25745 -10.25653 -10.25624 -10.25355 -10.25257
 Alpha  occ. eigenvalues --  -10.25132 -10.24981 -10.24745 -10.24505 -10.24472
 Alpha  occ. eigenvalues --  -10.24461 -10.24132 -10.24110 -10.23716 -10.23515
 Alpha  occ. eigenvalues --  -10.23502 -10.23170 -10.23108 -10.23080 -10.22794
 Alpha  occ. eigenvalues --  -10.22749 -10.22719 -10.22679 -10.22647 -10.22456
 Alpha  occ. eigenvalues --  -10.22444 -10.22312 -10.22303 -10.22299 -10.22284
 Alpha  occ. eigenvalues --  -10.22039 -10.21936 -10.21901 -10.21852 -10.21673
 Alpha  occ. eigenvalues --  -10.21620 -10.21605 -10.21543 -10.21445 -10.21347
 Alpha  occ. eigenvalues --  -10.21295 -10.21263 -10.21236 -10.20839 -10.20821
 Alpha  occ. eigenvalues --  -10.20663 -10.20194 -10.19638 -10.19266 -10.18385
 Alpha  occ. eigenvalues --   -3.08002  -1.82932  -1.82463  -1.82437  -1.13771
 Alpha  occ. eigenvalues --   -1.13609  -1.04362  -1.03920  -1.01139  -1.00097
 Alpha  occ. eigenvalues --   -0.98420  -0.97512  -0.95166  -0.88657  -0.87168
 Alpha  occ. eigenvalues --   -0.85670  -0.85046  -0.84544  -0.83903  -0.83400
 Alpha  occ. eigenvalues --   -0.83092  -0.82637  -0.82553  -0.82009  -0.81410
 Alpha  occ. eigenvalues --   -0.80361  -0.79419  -0.78999  -0.77976  -0.77434
 Alpha  occ. eigenvalues --   -0.76859  -0.76518  -0.76098  -0.75058  -0.74433
 Alpha  occ. eigenvalues --   -0.73270  -0.72295  -0.71586  -0.71431  -0.71318
 Alpha  occ. eigenvalues --   -0.70920  -0.70822  -0.69682  -0.69307  -0.68293
 Alpha  occ. eigenvalues --   -0.67681  -0.66234  -0.65631  -0.65156  -0.64434
 Alpha  occ. eigenvalues --   -0.63190  -0.62802  -0.61368  -0.60989  -0.60506
 Alpha  occ. eigenvalues --   -0.60238  -0.59474  -0.59081  -0.58933  -0.58806
 Alpha  occ. eigenvalues --   -0.57853  -0.56637  -0.56505  -0.55690  -0.55116
 Alpha  occ. eigenvalues --   -0.54762  -0.54083  -0.53621  -0.53269  -0.52782
 Alpha  occ. eigenvalues --   -0.52270  -0.51152  -0.51011  -0.50873  -0.50736
 Alpha  occ. eigenvalues --   -0.50577  -0.50339  -0.50143  -0.49738  -0.49467
 Alpha  occ. eigenvalues --   -0.48972  -0.48528  -0.48472  -0.48190  -0.48002
 Alpha  occ. eigenvalues --   -0.47794  -0.47667  -0.47389  -0.46973  -0.46737
 Alpha  occ. eigenvalues --   -0.46578  -0.46423  -0.46219  -0.46077  -0.45685
 Alpha  occ. eigenvalues --   -0.45538  -0.45498  -0.45276  -0.44908  -0.44856
 Alpha  occ. eigenvalues --   -0.44723  -0.44416  -0.44379  -0.44085  -0.43695
 Alpha  occ. eigenvalues --   -0.43539  -0.43197  -0.43102  -0.42976  -0.42669
 Alpha  occ. eigenvalues --   -0.42446  -0.42315  -0.42186  -0.41827  -0.41740
 Alpha  occ. eigenvalues --   -0.41621  -0.41574  -0.41365  -0.40764  -0.40482
 Alpha  occ. eigenvalues --   -0.40366  -0.40324  -0.40153  -0.40085  -0.39871
 Alpha  occ. eigenvalues --   -0.39786  -0.39720  -0.39619  -0.39512  -0.38893
 Alpha  occ. eigenvalues --   -0.38794  -0.38498  -0.38236  -0.38190  -0.38131
 Alpha  occ. eigenvalues --   -0.38011  -0.37770  -0.37610  -0.37358  -0.37186
 Alpha  occ. eigenvalues --   -0.36850  -0.36394  -0.36253  -0.36114  -0.35746
 Alpha  occ. eigenvalues --   -0.35641  -0.35631  -0.35529  -0.34932  -0.34751
 Alpha  occ. eigenvalues --   -0.34365  -0.34327  -0.34028  -0.33628  -0.33529
 Alpha  occ. eigenvalues --   -0.33343  -0.32879  -0.32552  -0.32120  -0.32051
 Alpha  occ. eigenvalues --   -0.31939  -0.31267  -0.31100  -0.30459  -0.29927
 Alpha  occ. eigenvalues --   -0.29841  -0.29613  -0.29032  -0.28796  -0.27856
 Alpha  occ. eigenvalues --   -0.27408  -0.26401  -0.25337  -0.23901  -0.21920
 Alpha  occ. eigenvalues --   -0.19567
 Alpha virt. eigenvalues --   -0.07587  -0.04554  -0.01523   0.01338   0.02788
 Alpha virt. eigenvalues --    0.03987   0.04579   0.05052   0.05262   0.05972
 Alpha virt. eigenvalues --    0.06177   0.08698   0.08906   0.09157   0.09760

 Mulliken charges:
               1
     1  Mg   0.803647
     2  C    0.149333
     3  C   -0.195486
     4  C   -0.158631
     5  C   -0.133512
     6  N   -0.612361
     7  C    0.279951
     8  C   -0.160251
     9  C   -0.142369
    10  C    0.317057
    11  C   -0.298371
    12  C   -0.159963
    13  C   -0.270702
    14  C    0.595825
    15  O   -0.474312
    16  O   -0.456893
    17  N   -0.692128
    18  C    0.250914
    19  C    0.096011
    20  C    0.021068
    21  C    0.327675
    22  C   -0.396597
    23  C   -0.137438
    24  C   -0.244342
    25  N   -0.720956
    26  C    0.339811
    27  C   -0.040024
    28  C    0.050468
    29  C    0.322894
    30  C   -0.380677
    31  C   -0.245170
    32  C   -0.302241
    33  N   -0.725312
    34  C    0.312721
    35  C   -0.002547
    36  C    0.043925
    37  C    0.234099
    38  C   -0.376604
    39  C    0.353156
    40  O   -0.483853
    41  C   -0.352242
    42  C    0.620146
    43  O   -0.525745
    44  O   -0.419402
    45  C   -0.096750
    46  C    0.035063
    47  C   -0.140111
    48  C    0.180166
    49  C   -0.371708
    50  C   -0.254777
    51  C   -0.186769
    52  C   -0.176078
    53  C   -0.051388
    54  C   -0.300497
    55  C   -0.189478
    56  C   -0.162533
    57  C   -0.172145
    58  C   -0.066219
    59  C   -0.299498
    60  C   -0.178586
    61  C   -0.177034
    62  C   -0.170318
    63  C   -0.045882
    64  C   -0.321895
    65  C   -0.316978
    66  H    0.085470
    67  H    0.089348
    68  H    0.059130
    69  H    0.116205
    70  H    0.093914
    71  H    0.108552
    72  H    0.104911
    73  H    0.136298
    74  H    0.114908
    75  H    0.108568
    76  H    0.144195
    77  H    0.133117
    78  H    0.116536
    79  H    0.122562
    80  H    0.107983
    81  H    0.086511
    82  H    0.109654
    83  H    0.112588
    84  H    0.132973
    85  H    0.106233
    86  H    0.125001
    87  H    0.102980
    88  H    0.100766
    89  H    0.091306
    90  H    0.079642
    91  H    0.131751
    92  H    0.138545
    93  H    0.154495
    94  H    0.124715
    95  H    0.166444
    96  H    0.144765
    97  H    0.131852
    98  H    0.121077
    99  H    0.096585
   100  H    0.109145
   101  H    0.063343
   102  H    0.116892
   103  H    0.110015
   104  H    0.104614
   105  H    0.106363
   106  H    0.095181
   107  H    0.104633
   108  H    0.090590
   109  H    0.088733
   110  H    0.098265
   111  H    0.093201
   112  H    0.080525
   113  H    0.112246
   114  H    0.107160
   115  H    0.082986
   116  H    0.091740
   117  H    0.043789
   118  H    0.086807
   119  H    0.097392
   120  H    0.102968
   121  H    0.072375
   122  H    0.047869
   123  H    0.114486
   124  H    0.115557
   125  H    0.095565
   126  H    0.071976
   127  H    0.081077
   128  H    0.075937
   129  H    0.085828
   130  H    0.091129
   131  H    0.098737
   132  H    0.108417
   133  H    0.107140
   134  H    0.103836
   135  H    0.097346
   136  H    0.111634
   137  H    0.087768
 Sum of Mulliken charges =  -0.00000

 Dipole moment (field-independent basis, Debye):
    X=              1.0362    Y=              3.5089    Z=              0.3271  Tot=              3.6732
 Quadrupole moment (field-independent basis, Debye-Ang):
   XX=           -343.9611   YY=           -396.5397   ZZ=           -399.3030
   XY=            -10.8642   XZ=             19.6062   YZ=             -2.6207

 Normal termination of Gaussian 16 at Fri Sep  6 03:37:43 2019.
