 Gaussian 16, Revision A.03,
 Gaussian 16:  ES64L-G16RevA.03 25-Dec-2016

 ----------------------------------------------------------------------
 # td=(NStates=1) iop(3/107=0140000000,3/108=0140000000) CAM-B3LYP/6-31
 G(d,p)
 ----------------------------------------------------------------------

 --
 TD
 --
 Symbolic Z-matrix:
 Charge =  0 Multiplicity = 1

                         Standard orientation:
 ---------------------------------------------------------------------
 Center     Atomic      Atomic             Coordinates (Angstroms)
 Number     Number       Type             X           Y           Z
 ---------------------------------------------------------------------
      1         12           0       -7.174642    0.587776    0.067695
      2          6           0       -4.827153   -2.015992    0.520854
      3          6           0       -4.832470    2.865179    1.185266
      4          6           0       -9.396356    3.090455   -0.393624
      5          6           0       -9.504404   -1.708666   -0.836794
      6          7           0       -5.138018    0.426340    0.853512
      7          6           0       -4.363949   -0.696424    0.852461
      8          6           0       -2.991809   -0.318441    1.220838
      9          6           0       -3.034651    1.096854    1.762246
     10          6           0       -4.427805    1.454356    1.262370
     11          6           0       -2.817196    1.239895    3.220582
     12          6           0       -1.907308   -0.582433    0.011867
     13          6           0       -0.486018   -0.517005    0.516743
     14          6           0        0.514937   -0.823460   -0.577243
     15          8           0        0.187583   -1.062897   -1.789504
     16          8           0        1.745815   -0.425659   -0.215833
     17          7           0       -7.085719    2.635268    0.381361
     18          6           0       -6.095755    3.382586    0.835009
     19          6           0       -6.450156    4.797241    0.816002
     20          6           0       -7.664640    4.880791    0.325355
     21          6           0       -8.133679    3.429887    0.185255
     22          6           0       -5.521529    5.864175    1.329370
     23          6           0       -8.457544    5.959392    0.055193
     24          6           0       -8.412387    7.178144    0.603799
     25          7           0       -9.077797    0.684412   -0.552959
     26          6           0       -9.830966    1.842860   -0.797617
     27          6           0      -11.204291    1.442622   -1.202580
     28          6           0      -11.248129    0.105738   -1.283689
     29          6           0       -9.950950   -0.351960   -0.871775
     30          6           0      -12.247448    2.478002   -1.337604
     31          6           0      -12.405084   -0.772882   -1.688696
     32          6           0      -12.335656   -1.101966   -3.248202
     33          7           0       -7.319826   -1.389185   -0.099233
     34          6           0       -8.239003   -2.237870   -0.517050
     35          6           0       -7.831083   -3.594066   -0.543945
     36          6           0       -6.533696   -3.582159   -0.062313
     37          6           0       -6.222409   -2.209766    0.108277
     38          6           0       -8.681633   -4.843378   -0.696598
     39          6           0       -5.287286   -4.332339    0.203800
     40          8           0       -5.114983   -5.560138    0.145373
     41          6           0       -4.145555   -3.285206    0.517547
     42          6           0       -3.544528   -3.688346    1.917875
     43          8           0       -3.803476   -3.096795    2.939149
     44          8           0       -2.795006   -4.818105    1.762674
     45          6           0       -2.179060   -5.263678    2.987495
     46          6           0        2.740655   -0.664729   -1.308185
     47          6           0        4.083217   -0.387700   -0.590093
     48          6           0        5.147044    0.397324   -1.038426
     49          6           0        5.047884    1.293697   -2.279351
     50          6           0        6.366224    0.412637   -0.283502
     51          6           0        7.665778   -0.159610   -1.136009
     52          6           0        8.923188   -0.085007   -0.274316
     53          6           0       10.220553   -0.493252   -0.956398
     54          6           0       10.088944   -1.891580   -1.443664
     55          6           0       11.476101   -0.197488   -0.081276
     56          6           0       12.797878   -0.420576   -0.780435
     57          6           0       14.010908   -0.085981    0.101992
     58          6           0       15.324661   -0.099598   -0.469960
     59          6           0       15.642466   -1.564656   -0.893720
     60          6           0       16.434056    0.402000    0.448383
     61          6           0       17.890073    0.570855   -0.120897
     62          6           0       18.807176    1.214801    0.882841
     63          6           0       20.274224    1.212269    0.340192
     64          6           0       20.353795    2.071183   -0.953343
     65          6           0       21.230568    1.847625    1.317844
     66          1           0       -4.084229    3.588889    1.621059
     67          1           0      -10.126121    3.947395   -0.657199
     68          1           0      -10.328219   -2.459469   -1.176739
     69          1           0       -2.679917   -1.076051    1.971753
     70          1           0       -2.537993    2.031725    1.158272
     71          1           0       -1.841474    0.900261    3.490742
     72          1           0       -2.889968    2.271802    3.671154
     73          1           0       -3.487375    0.529888    3.672813
     74          1           0       -2.307668   -1.466712   -0.562384
     75          1           0       -1.915628    0.076404   -0.593123
     76          1           0       -0.149240    0.486374    0.922578
     77          1           0       -0.159211   -1.104360    1.277214
     78          1           0       -5.792414    6.792745    0.755071
     79          1           0       -5.492721    6.118842    2.393270
     80          1           0       -4.522457    5.549571    1.190158
     81          1           0       -9.259238    5.882873   -0.827194
     82          1           0       -9.124657    8.138042    0.487466
     83          1           0       -7.630119    7.162626    1.320873
     84          1           0      -11.857080    3.326521   -2.052126
     85          1           0      -13.260424    2.038824   -1.821061
     86          1           0      -12.545246    2.768551   -0.253688
     87          1           0      -12.366463   -1.713360   -1.088735
     88          1           0      -13.382692   -0.255901   -1.419095
     89          1           0      -13.095500   -1.729697   -3.477355
     90          1           0      -12.449036   -0.360579   -3.948964
     91          1           0      -11.414285   -1.612669   -3.530683
     92          1           0       -8.856394   -4.816653   -1.843721
     93          1           0       -7.902250   -5.626237   -0.659921
     94          1           0       -9.547242   -4.891358    0.005214
     95          1           0       -3.294256   -3.525673   -0.117678
     96          1           0       -1.905824   -4.267450    3.487600
     97          1           0       -2.974462   -5.982915    3.669904
     98          1           0       -1.304464   -5.904464    2.738770
     99          1           0        2.417635   -1.797287   -1.771016
    100          1           0        2.699903    0.062874   -2.036156
    101          1           0        4.532293   -1.073011    0.073747
    102          1           0        4.022003    1.224234   -2.827063
    103          1           0        5.152112    2.426973   -1.828224
    104          1           0        5.999801    1.137594   -2.783665
    105          1           0        6.630950    1.460483    0.007944
    106          1           0        6.222309   -0.292559    0.715130
    107          1           0        7.280405   -1.147152   -1.342117
    108          1           0        7.684959    0.533384   -2.063093
    109          1           0        8.860627    1.049288    0.099416
    110          1           0        8.688714   -0.755568    0.709281
    111          1           0       10.302040    0.010634   -1.860039
    112          1           0        9.153583   -2.384134   -1.866282
    113          1           0       10.955103   -2.255386   -2.219723
    114          1           0       10.260260   -2.457715   -0.457407
    115          1           0       11.475976    0.868008    0.390963
    116          1           0       11.403652   -0.954563    0.848598
    117          1           0       12.853200   -1.662320   -0.856609
    118          1           0       12.896824    0.081312   -1.805343
    119          1           0       13.833606    1.026603    0.313240
    120          1           0       13.945849   -0.556992    1.219581
    121          1           0       15.486054    0.528977   -1.418566
    122          1           0       15.401240   -2.221960    0.082741
    123          1           0       15.062157   -2.047915   -1.669472
    124          1           0       16.679878   -1.744859   -1.144972
    125          1           0       16.222383    1.347446    1.025994
    126          1           0       16.482968   -0.260820    1.327076
    127          1           0       18.307396   -0.565405   -0.586531
    128          1           0       17.859182    1.246934   -0.879179
    129          1           0       18.574534    2.116356    1.195734
    130          1           0       18.869099    0.403888    1.709917
    131          1           0       20.552158    0.067187    0.211117
    132          1           0       19.884865    3.082543   -0.837570
    133          1           0       21.332639    2.281361   -1.304098
    134          1           0       19.810897    1.542356   -1.893347
    135          1           0       21.228114    1.255754    2.211902
    136          1           0       22.114564    1.636091    0.879900
    137          1           0       21.057616    2.801064    1.825072
 ---------------------------------------------------------------------

 SCF Done:  E(RCAM-B3LYP) =  -2933.50186620     A.U. after   16 cycles

 Excitation energies and oscillator strengths:

 Excited State   1:      Singlet-A      2.0058 eV  618.14 nm  f=0.2342  <S**2>=0.000
     240 -> 243        0.24303
     241 -> 242        0.66228
 This state for optimization and/or second-order correction.
 Total Energy, E(TD-HF/TD-DFT) =  -2933.42815537
 Copying the excited state density for this state as the 1-particle RhoCI density.

 The electronic state is 1-A.
 Alpha  occ. eigenvalues --  -46.80102 -19.22653 -19.22450 -19.17510 -19.16046
 Alpha  occ. eigenvalues --  -19.15616 -14.37703 -14.35415 -14.34895 -14.34731
 Alpha  occ. eigenvalues --  -10.34934 -10.34314 -10.30475 -10.28874 -10.28798
 Alpha  occ. eigenvalues --  -10.26540 -10.25954 -10.25377 -10.24918 -10.24290
 Alpha  occ. eigenvalues --  -10.24286 -10.24211 -10.24037 -10.24026 -10.23970
 Alpha  occ. eigenvalues --  -10.23768 -10.23699 -10.23605 -10.23557 -10.23481
 Alpha  occ. eigenvalues --  -10.23259 -10.23107 -10.23064 -10.23059 -10.23039
 Alpha  occ. eigenvalues --  -10.22985 -10.22873 -10.22813 -10.22644 -10.22551
 Alpha  occ. eigenvalues --  -10.22496 -10.22395 -10.22244 -10.22143 -10.22123
 Alpha  occ. eigenvalues --  -10.21912 -10.21882 -10.21866 -10.21850 -10.21847
 Alpha  occ. eigenvalues --  -10.21623 -10.21543 -10.21497 -10.21493 -10.21483
 Alpha  occ. eigenvalues --  -10.21282 -10.21235 -10.21102 -10.20929 -10.20829
 Alpha  occ. eigenvalues --  -10.20398 -10.20281 -10.19950 -10.19443 -10.18617
 Alpha  occ. eigenvalues --   -3.08723  -1.83659  -1.83204  -1.83123  -1.12975
 Alpha  occ. eigenvalues --   -1.11822  -1.05285  -1.04196  -1.01115  -1.00738
 Alpha  occ. eigenvalues --   -1.00044  -0.99330  -0.96396  -0.87586  -0.86499
 Alpha  occ. eigenvalues --   -0.85872  -0.85852  -0.85164  -0.84837  -0.83886
 Alpha  occ. eigenvalues --   -0.83457  -0.82808  -0.82352  -0.81745  -0.80905
 Alpha  occ. eigenvalues --   -0.79804  -0.79241  -0.78268  -0.78151  -0.77645
 Alpha  occ. eigenvalues --   -0.76811  -0.75796  -0.75234  -0.74973  -0.73394
 Alpha  occ. eigenvalues --   -0.73073  -0.72398  -0.71477  -0.71165  -0.71052
 Alpha  occ. eigenvalues --   -0.69937  -0.69844  -0.69818  -0.69319  -0.67405
 Alpha  occ. eigenvalues --   -0.66988  -0.66796  -0.65847  -0.64588  -0.63999
 Alpha  occ. eigenvalues --   -0.62984  -0.62327  -0.61238  -0.60001  -0.59857
 Alpha  occ. eigenvalues --   -0.59175  -0.58742  -0.58654  -0.58523  -0.57492
 Alpha  occ. eigenvalues --   -0.57394  -0.55967  -0.55248  -0.54910  -0.54413
 Alpha  occ. eigenvalues --   -0.53878  -0.53713  -0.53176  -0.52881  -0.52611
 Alpha  occ. eigenvalues --   -0.52001  -0.51317  -0.51108  -0.50883  -0.50679
 Alpha  occ. eigenvalues --   -0.50351  -0.50121  -0.49872  -0.49752  -0.49405
 Alpha  occ. eigenvalues --   -0.49009  -0.48597  -0.48516  -0.47826  -0.47662
 Alpha  occ. eigenvalues --   -0.47576  -0.47445  -0.47355  -0.46883  -0.46751
 Alpha  occ. eigenvalues --   -0.46398  -0.46346  -0.46131  -0.46005  -0.45764
 Alpha  occ. eigenvalues --   -0.45632  -0.45232  -0.45005  -0.44821  -0.44756
 Alpha  occ. eigenvalues --   -0.44353  -0.44200  -0.44092  -0.43782  -0.43637
 Alpha  occ. eigenvalues --   -0.43298  -0.43207  -0.42929  -0.42912  -0.42514
 Alpha  occ. eigenvalues --   -0.42311  -0.42176  -0.42035  -0.41791  -0.41532
 Alpha  occ. eigenvalues --   -0.41413  -0.41143  -0.40980  -0.40589  -0.40488
 Alpha  occ. eigenvalues --   -0.40194  -0.40165  -0.39898  -0.39823  -0.39550
 Alpha  occ. eigenvalues --   -0.39270  -0.39061  -0.39001  -0.38679  -0.38587
 Alpha  occ. eigenvalues --   -0.38468  -0.38215  -0.38126  -0.38003  -0.37922
 Alpha  occ. eigenvalues --   -0.37742  -0.37512  -0.37408  -0.37210  -0.37012
 Alpha  occ. eigenvalues --   -0.36763  -0.36746  -0.36502  -0.36325  -0.36110
 Alpha  occ. eigenvalues --   -0.35996  -0.35965  -0.35756  -0.35554  -0.34979
 Alpha  occ. eigenvalues --   -0.34928  -0.34522  -0.34460  -0.34271  -0.33586
 Alpha  occ. eigenvalues --   -0.33562  -0.32902  -0.32861  -0.32637  -0.32513
 Alpha  occ. eigenvalues --   -0.32423  -0.32267  -0.31523  -0.31269  -0.30794
 Alpha  occ. eigenvalues --   -0.30660  -0.29595  -0.29134  -0.27471  -0.26781
 Alpha  occ. eigenvalues --   -0.26486  -0.26065  -0.25829  -0.25550  -0.21064
 Alpha  occ. eigenvalues --   -0.19110
 Alpha virt. eigenvalues --   -0.06316  -0.03295  -0.00156   0.01884   0.02153
 Alpha virt. eigenvalues --    0.02983   0.04094   0.04408   0.05223   0.05732
 Alpha virt. eigenvalues --    0.06682   0.08974   0.09068   0.09440   0.09481

 Mulliken charges:
               1
     1  Mg   0.825892
     2  C    0.105180
     3  C   -0.218394
     4  C   -0.199783
     5  C   -0.217949
     6  N   -0.612031
     7  C    0.309951
     8  C   -0.200875
     9  C   -0.126596
    10  C    0.326019
    11  C   -0.306220
    12  C   -0.127912
    13  C   -0.276207
    14  C    0.585773
    15  O   -0.503581
    16  O   -0.455156
    17  N   -0.676321
    18  C    0.331210
    19  C    0.034491
    20  C    0.052425
    21  C    0.294398
    22  C   -0.381895
    23  C   -0.096849
    24  C   -0.255135
    25  N   -0.697589
    26  C    0.297481
    27  C    0.028615
    28  C    0.084128
    29  C    0.289661
    30  C   -0.380084
    31  C   -0.251299
    32  C   -0.323587
    33  N   -0.720157
    34  C    0.328767
    35  C   -0.036219
    36  C    0.059152
    37  C    0.241754
    38  C   -0.365272
    39  C    0.359940
    40  O   -0.475393
    41  C   -0.346390
    42  C    0.611367
    43  O   -0.457186
    44  O   -0.433472
    45  C   -0.080274
    46  C    0.018758
    47  C   -0.130076
    48  C    0.138033
    49  C   -0.353433
    50  C   -0.247922
    51  C   -0.181296
    52  C   -0.146209
    53  C   -0.044842
    54  C   -0.310281
    55  C   -0.158544
    56  C   -0.159191
    57  C   -0.151340
    58  C   -0.040826
    59  C   -0.308782
    60  C   -0.177839
    61  C   -0.157384
    62  C   -0.156621
    63  C   -0.057290
    64  C   -0.308565
    65  C   -0.309299
    66  H    0.068738
    67  H    0.079778
    68  H    0.073101
    69  H    0.115737
    70  H    0.092238
    71  H    0.114966
    72  H    0.105602
    73  H    0.131222
    74  H    0.114839
    75  H    0.119793
    76  H    0.140994
    77  H    0.134119
    78  H    0.115894
    79  H    0.128571
    80  H    0.115137
    81  H    0.073795
    82  H    0.109639
    83  H    0.093039
    84  H    0.115601
    85  H    0.092430
    86  H    0.128365
    87  H    0.108529
    88  H    0.098143
    89  H    0.112743
    90  H    0.119887
    91  H    0.112497
    92  H    0.113022
    93  H    0.148209
    94  H    0.132163
    95  H    0.163012
    96  H    0.128835
    97  H    0.106063
    98  H    0.130247
    99  H    0.122785
   100  H    0.122640
   101  H    0.076020
   102  H    0.117034
   103  H    0.095503
   104  H    0.126372
   105  H    0.101877
   106  H    0.081649
   107  H    0.112978
   108  H    0.088440
   109  H    0.074083
   110  H    0.071422
   111  H    0.097990
   112  H    0.111276
   113  H    0.084769
   114  H    0.086121
   115  H    0.083546
   116  H    0.074123
   117  H    0.074716
   118  H    0.091550
   119  H    0.072402
   120  H    0.075702
   121  H    0.076450
   122  H    0.070213
   123  H    0.108311
   124  H    0.097892
   125  H    0.077344
   126  H    0.084348
   127  H    0.052257
   128  H    0.108685
   129  H    0.098545
   130  H    0.078166
   131  H    0.075471
   132  H    0.097736
   133  H    0.104822
   134  H    0.078781
   135  H    0.093995
   136  H    0.111662
   137  H    0.103949
 Sum of Mulliken charges =  -0.00000

 Dipole moment (field-independent basis, Debye):
    X=              3.3979    Y=              4.7486    Z=              0.5250  Tot=              5.8626
 Quadrupole moment (field-independent basis, Debye-Ang):
   XX=           -338.1705   YY=           -398.4045   ZZ=           -396.5382
   XY=            -13.1537   XZ=             10.9233   YZ=             -1.8626

 Normal termination of Gaussian 16 at Sat Sep 14 11:06:18 2019.
