 Gaussian 16, Revision A.03,
 Gaussian 16:  ES64L-G16RevA.03 25-Dec-2016

 ----------------------------------------------------------------------
 # td=(NStates=1) iop(3/107=0140000000,3/108=0140000000) CAM-B3LYP/6-31
 G(d,p)
 ----------------------------------------------------------------------

 --
 TD
 --
 Symbolic Z-matrix:
 Charge =  0 Multiplicity = 1

                         Standard orientation:
 ---------------------------------------------------------------------
 Center     Atomic      Atomic             Coordinates (Angstroms)
 Number     Number       Type             X           Y           Z
 ---------------------------------------------------------------------
      1         12           0       -7.186786    0.577721    0.137133
      2          6           0       -4.805438   -2.008923    0.518250
      3          6           0       -4.745974    2.768274    1.253463
      4          6           0       -9.324856    3.137375   -0.500574
      5          6           0       -9.507272   -1.714494   -0.850917
      6          7           0       -5.141741    0.383912    0.843419
      7          6           0       -4.362801   -0.734968    0.892403
      8          6           0       -3.038645   -0.408970    1.475195
      9          6           0       -3.086752    1.020870    1.938250
     10          6           0       -4.389385    1.510637    1.269379
     11          6           0       -3.065521    1.157076    3.443005
     12          6           0       -1.924876   -0.620707    0.356364
     13          6           0       -0.492829   -0.431497    0.705222
     14          6           0        0.444263   -0.662010   -0.500941
     15          8           0        0.122469   -1.130478   -1.569903
     16          8           0        1.709674   -0.311948   -0.150446
     17          7           0       -7.090390    2.604274    0.393489
     18          6           0       -6.020872    3.319703    0.827455
     19          6           0       -6.344789    4.664629    0.821048
     20          6           0       -7.709678    4.839488    0.368796
     21          6           0       -8.081556    3.451266    0.048398
     22          6           0       -5.491818    5.809160    1.154372
     23          6           0       -8.555726    6.027580    0.129265
     24          6           0       -8.440522    7.183336    0.763885
     25          7           0       -9.106349    0.732992   -0.582935
     26          6           0       -9.823487    1.811141   -0.773913
     27          6           0      -11.094590    1.504607   -1.189136
     28          6           0      -11.189398    0.135921   -1.505002
     29          6           0       -9.862819   -0.283557   -1.023040
     30          6           0      -12.214572    2.592667   -1.476840
     31          6           0      -12.360611   -0.720546   -1.972830
     32          6           0      -12.068124   -1.191471   -3.493257
     33          7           0       -7.208914   -1.426149   -0.142761
     34          6           0       -8.172072   -2.252681   -0.568316
     35          6           0       -7.817632   -3.553206   -0.555380
     36          6           0       -6.490136   -3.583405   -0.185373
     37          6           0       -6.166029   -2.217498    0.053693
     38          6           0       -8.603958   -4.703991   -1.034327
     39          6           0       -5.284964   -4.433858    0.124690
     40          8           0       -5.144694   -5.603172    0.133485
     41          6           0       -4.120582   -3.434254    0.637328
     42          6           0       -3.594848   -3.782034    1.935294
     43          8           0       -3.810779   -3.110840    2.952256
     44          8           0       -2.830408   -4.849874    1.818140
     45          6           0       -2.189997   -5.238234    3.032033
     46          6           0        2.735336   -0.434572   -1.136847
     47          6           0        4.029936   -0.383063   -0.535033
     48          6           0        5.097277    0.371415   -0.857410
     49          6           0        5.055516    1.326937   -2.096770
     50          6           0        6.388641    0.476321   -0.166968
     51          6           0        7.565948   -0.219410   -0.960750
     52          6           0        8.889374   -0.094615   -0.152503
     53          6           0       10.175361   -0.432399   -0.874158
     54          6           0       10.076041   -1.937282   -1.537173
     55          6           0       11.515998   -0.248642   -0.072822
     56          6           0       12.824727   -0.336273   -0.855146
     57          6           0       13.999761   -0.159007    0.083459
     58          6           0       15.384804   -0.134118   -0.588890
     59          6           0       15.733905   -1.631033   -0.927634
     60          6           0       16.383464    0.513362    0.248191
     61          6           0       17.761573    0.613112   -0.243962
     62          6           0       18.819522    1.213466    0.728263
     63          6           0       20.217511    1.196662    0.247959
     64          6           0       20.269019    1.922229   -1.074140
     65          6           0       21.168428    1.832076    1.347429
     66          1           0       -3.928587    3.353875    1.789765
     67          1           0      -10.116113    3.835177   -0.511597
     68          1           0       -9.996245   -2.566592   -1.285699
     69          1           0       -2.834957   -1.197548    2.291664
     70          1           0       -2.212230    1.720363    1.583625
     71          1           0       -2.146612    0.720005    3.729349
     72          1           0       -3.150009    2.287537    3.779221
     73          1           0       -3.804654    0.609992    3.913550
     74          1           0       -2.082790   -1.689931   -0.130586
     75          1           0       -2.217131    0.095258   -0.393409
     76          1           0       -0.300429    0.618302    1.289359
     77          1           0       -0.106894   -0.962375    1.546529
     78          1           0       -5.676288    6.405843    0.279741
     79          1           0       -5.687041    6.210350    2.037142
     80          1           0       -4.482808    5.600223    0.982717
     81          1           0       -9.358988    5.788873   -0.551949
     82          1           0       -9.286428    7.946200    0.630154
     83          1           0       -7.478929    7.319916    1.255514
     84          1           0      -11.848232    3.281097   -2.420074
     85          1           0      -13.320624    2.174516   -1.708755
     86          1           0      -12.135588    3.283519   -0.584555
     87          1           0      -12.386241   -1.647992   -1.461956
     88          1           0      -13.318362   -0.267354   -1.642950
     89          1           0      -12.999612   -1.885564   -3.777487
     90          1           0      -12.042230   -0.357645   -4.291765
     91          1           0      -11.090385   -1.715400   -3.623912
     92          1           0       -8.963516   -4.489647   -2.057024
     93          1           0       -7.859865   -5.630527   -1.198872
     94          1           0       -9.419299   -5.017997   -0.321096
     95          1           0       -3.256043   -3.546606   -0.060019
     96          1           0       -1.591727   -4.379692    3.339518
     97          1           0       -2.944076   -5.506577    3.781954
     98          1           0       -1.518022   -5.971762    2.926624
     99          1           0        2.438143   -1.394754   -1.590676
    100          1           0        2.804186    0.569518   -1.983371
    101          1           0        4.059237   -0.929161    0.311858
    102          1           0        3.978792    1.881009   -2.201361
    103          1           0        5.490585    2.101952   -1.942264
    104          1           0        5.289744    0.791382   -3.183362
    105          1           0        6.682721    1.538619    0.069375
    106          1           0        6.314563   -0.035777    0.778675
    107          1           0        7.345420   -1.280884   -1.267346
    108          1           0        7.673925    0.399700   -1.928771
    109          1           0        9.097651    0.739509    0.260342
    110          1           0        8.777876   -0.792477    0.634298
    111          1           0       10.175049    0.375551   -1.758500
    112          1           0        9.172593   -2.086867   -2.242592
    113          1           0       10.814044   -2.167134   -1.871732
    114          1           0        9.774095   -2.544293   -0.657977
    115          1           0       11.534135    0.698894    0.402510
    116          1           0       11.758722   -0.850149    0.790163
    117          1           0       12.864806   -1.481860   -1.294152
    118          1           0       12.764136    0.350803   -1.778190
    119          1           0       13.673196    0.937192    0.364909
    120          1           0       14.103144   -0.712250    1.043667
    121          1           0       15.523247    0.503923   -1.597048
    122          1           0       15.747691   -2.199997    0.005536
    123          1           0       15.026710   -2.019837   -1.740642
    124          1           0       16.720278   -1.686220   -1.276697
    125          1           0       16.204362    1.411274    0.831758
    126          1           0       16.383739   -0.216858    1.198698
    127          1           0       18.092598   -0.372175   -0.400141
    128          1           0       17.759605    1.223533   -1.242254
    129          1           0       18.299977    2.150281    0.960224
    130          1           0       18.685183    0.662998    1.583700
    131          1           0       20.642343    0.119191    0.187076
    132          1           0       19.815360    2.960994   -0.999244
    133          1           0       21.274663    2.041343   -1.443270
    134          1           0       19.785966    1.411933   -1.901972
    135          1           0       21.186105    1.118311    2.232118
    136          1           0       22.237469    2.076927    1.104670
    137          1           0       20.732350    2.865124    1.556703
 ---------------------------------------------------------------------

 SCF Done:  E(RCAM-B3LYP) =  -2933.49066421     A.U. after   15 cycles

 Excitation energies and oscillator strengths:

 Excited State   1:      Singlet-A      2.0360 eV  608.95 nm  f=0.2779  <S**2>=0.000
     240 -> 242       -0.16413
     240 -> 243        0.21647
     241 -> 242        0.64354
 This state for optimization and/or second-order correction.
 Total Energy, E(TD-HF/TD-DFT) =  -2933.41584135
 Copying the excited state density for this state as the 1-particle RhoCI density.

 The electronic state is 1-A.
 Alpha  occ. eigenvalues --  -46.79887 -19.22946 -19.21724 -19.17035 -19.16813
 Alpha  occ. eigenvalues --  -19.16022 -14.36544 -14.34926 -14.34854 -14.34409
 Alpha  occ. eigenvalues --  -10.34835 -10.34004 -10.31119 -10.27789 -10.26119
 Alpha  occ. eigenvalues --  -10.25600 -10.25331 -10.24997 -10.24803 -10.24671
 Alpha  occ. eigenvalues --  -10.24311 -10.24058 -10.23805 -10.23743 -10.23610
 Alpha  occ. eigenvalues --  -10.23576 -10.23468 -10.23437 -10.23237 -10.23217
 Alpha  occ. eigenvalues --  -10.23122 -10.23068 -10.22796 -10.22788 -10.22577
 Alpha  occ. eigenvalues --  -10.22543 -10.22504 -10.22469 -10.22468 -10.22451
 Alpha  occ. eigenvalues --  -10.22451 -10.22331 -10.22316 -10.22313 -10.22187
 Alpha  occ. eigenvalues --  -10.22107 -10.22027 -10.21934 -10.21879 -10.21662
 Alpha  occ. eigenvalues --  -10.21372 -10.21329 -10.21323 -10.20789 -10.20680
 Alpha  occ. eigenvalues --  -10.20561 -10.20422 -10.20371 -10.20294 -10.20064
 Alpha  occ. eigenvalues --  -10.19877 -10.19540 -10.19158 -10.19128 -10.18743
 Alpha  occ. eigenvalues --   -3.08419  -1.83375  -1.82872  -1.82834  -1.14350
 Alpha  occ. eigenvalues --   -1.12877  -1.08673  -1.04751  -1.03711  -1.00871
 Alpha  occ. eigenvalues --   -1.00213  -0.98615  -0.96915  -0.86438  -0.86213
 Alpha  occ. eigenvalues --   -0.85903  -0.84613  -0.84210  -0.83792  -0.83749
 Alpha  occ. eigenvalues --   -0.83495  -0.83008  -0.82305  -0.81996  -0.81187
 Alpha  occ. eigenvalues --   -0.80580  -0.79977  -0.79341  -0.78565  -0.77180
 Alpha  occ. eigenvalues --   -0.76769  -0.76478  -0.75346  -0.74886  -0.73323
 Alpha  occ. eigenvalues --   -0.72963  -0.72660  -0.72084  -0.71493  -0.71007
 Alpha  occ. eigenvalues --   -0.70814  -0.70416  -0.69887  -0.69387  -0.68242
 Alpha  occ. eigenvalues --   -0.66948  -0.65833  -0.65456  -0.64403  -0.63639
 Alpha  occ. eigenvalues --   -0.62833  -0.62496  -0.60960  -0.59992  -0.59940
 Alpha  occ. eigenvalues --   -0.59801  -0.59059  -0.58716  -0.58268  -0.57890
 Alpha  occ. eigenvalues --   -0.57495  -0.56860  -0.56672  -0.55715  -0.55172
 Alpha  occ. eigenvalues --   -0.54521  -0.54035  -0.53478  -0.53326  -0.52985
 Alpha  occ. eigenvalues --   -0.52337  -0.51831  -0.51428  -0.51401  -0.51291
 Alpha  occ. eigenvalues --   -0.51080  -0.50454  -0.50126  -0.49900  -0.49525
 Alpha  occ. eigenvalues --   -0.49281  -0.49049  -0.49032  -0.48273  -0.48192
 Alpha  occ. eigenvalues --   -0.47768  -0.47546  -0.47219  -0.46964  -0.46609
 Alpha  occ. eigenvalues --   -0.46523  -0.46463  -0.46327  -0.46129  -0.45823
 Alpha  occ. eigenvalues --   -0.45644  -0.45464  -0.45226  -0.44950  -0.44697
 Alpha  occ. eigenvalues --   -0.44591  -0.44396  -0.44244  -0.44064  -0.43525
 Alpha  occ. eigenvalues --   -0.43453  -0.43207  -0.42967  -0.42864  -0.42474
 Alpha  occ. eigenvalues --   -0.42455  -0.42320  -0.41883  -0.41477  -0.41458
 Alpha  occ. eigenvalues --   -0.41371  -0.41156  -0.40951  -0.40852  -0.40804
 Alpha  occ. eigenvalues --   -0.40733  -0.40381  -0.40063  -0.39930  -0.39798
 Alpha  occ. eigenvalues --   -0.39685  -0.39550  -0.39207  -0.39129  -0.38602
 Alpha  occ. eigenvalues --   -0.38510  -0.38365  -0.38334  -0.38179  -0.37936
 Alpha  occ. eigenvalues --   -0.37712  -0.37596  -0.37528  -0.37276  -0.37117
 Alpha  occ. eigenvalues --   -0.36849  -0.36781  -0.36437  -0.36015  -0.35953
 Alpha  occ. eigenvalues --   -0.35878  -0.35760  -0.35292  -0.34904  -0.34624
 Alpha  occ. eigenvalues --   -0.34559  -0.34423  -0.33750  -0.33671  -0.33319
 Alpha  occ. eigenvalues --   -0.33073  -0.32923  -0.32813  -0.32715  -0.32370
 Alpha  occ. eigenvalues --   -0.32156  -0.31578  -0.31496  -0.30961  -0.30672
 Alpha  occ. eigenvalues --   -0.30268  -0.29920  -0.29309  -0.28379  -0.27241
 Alpha  occ. eigenvalues --   -0.26968  -0.26896  -0.25668  -0.24161  -0.21473
 Alpha  occ. eigenvalues --   -0.20003
 Alpha virt. eigenvalues --   -0.07265  -0.04051   0.01073   0.02904   0.03159
 Alpha virt. eigenvalues --    0.03727   0.03852   0.04970   0.05467   0.06067
 Alpha virt. eigenvalues --    0.07276   0.09090   0.09499   0.09794   0.10044

 Mulliken charges:
               1
     1  Mg   0.816819
     2  C    0.051510
     3  C   -0.196095
     4  C   -0.154936
     5  C   -0.153141
     6  N   -0.660561
     7  C    0.345873
     8  C   -0.187947
     9  C   -0.140691
    10  C    0.351429
    11  C   -0.292881
    12  C   -0.161242
    13  C   -0.269870
    14  C    0.621962
    15  O   -0.462470
    16  O   -0.474035
    17  N   -0.726662
    18  C    0.341488
    19  C   -0.055237
    20  C    0.022132
    21  C    0.311919
    22  C   -0.374807
    23  C   -0.048133
    24  C   -0.250343
    25  N   -0.664463
    26  C    0.329121
    27  C   -0.018550
    28  C    0.046083
    29  C    0.239336
    30  C   -0.360951
    31  C   -0.240574
    32  C   -0.312461
    33  N   -0.708269
    34  C    0.249672
    35  C    0.027125
    36  C    0.015629
    37  C    0.282713
    38  C   -0.397035
    39  C    0.367706
    40  O   -0.417417
    41  C   -0.333328
    42  C    0.648559
    43  O   -0.499409
    44  O   -0.426109
    45  C   -0.082808
    46  C    0.035454
    47  C   -0.098033
    48  C    0.120132
    49  C   -0.332225
    50  C   -0.240071
    51  C   -0.180592
    52  C   -0.146536
    53  C   -0.070695
    54  C   -0.270730
    55  C   -0.182949
    56  C   -0.165562
    57  C   -0.160796
    58  C   -0.053507
    59  C   -0.313239
    60  C   -0.152387
    61  C   -0.178790
    62  C   -0.159200
    63  C   -0.051203
    64  C   -0.309866
    65  C   -0.307651
    66  H    0.079833
    67  H    0.079604
    68  H    0.079487
    69  H    0.122814
    70  H    0.088390
    71  H    0.111703
    72  H    0.084812
    73  H    0.134710
    74  H    0.100297
    75  H    0.119799
    76  H    0.106271
    77  H    0.138452
    78  H    0.129006
    79  H    0.135093
    80  H    0.110316
    81  H    0.086248
    82  H    0.102872
    83  H    0.099919
    84  H    0.101512
    85  H    0.104918
    86  H    0.116918
    87  H    0.124723
    88  H    0.108531
    89  H    0.086255
    90  H    0.108023
    91  H    0.120947
    92  H    0.126740
    93  H    0.125687
    94  H    0.127096
    95  H    0.157677
    96  H    0.119851
    97  H    0.134986
    98  H    0.129851
    99  H    0.127625
   100  H    0.066288
   101  H    0.077104
   102  H    0.082242
   103  H    0.117349
   104  H    0.108346
   105  H    0.104144
   106  H    0.100679
   107  H    0.104236
   108  H    0.087196
   109  H    0.092103
   110  H    0.092796
   111  H    0.055676
   112  H    0.086086
   113  H    0.087853
   114  H    0.092769
   115  H    0.089151
   116  H    0.093921
   117  H    0.061094
   118  H    0.094588
   119  H    0.073844
   120  H    0.099362
   121  H    0.059285
   122  H    0.098674
   123  H    0.104674
   124  H    0.110555
   125  H    0.089409
   126  H    0.040341
   127  H    0.097858
   128  H    0.074470
   129  H    0.086522
   130  H    0.093696
   131  H    0.078200
   132  H    0.093946
   133  H    0.095686
   134  H    0.111398
   135  H    0.096761
   136  H    0.096959
   137  H    0.093570
 Sum of Mulliken charges =  -0.00000

 Dipole moment (field-independent basis, Debye):
    X=              2.5574    Y=              3.0346    Z=              1.1899  Tot=              4.1430
 Quadrupole moment (field-independent basis, Debye-Ang):
   XX=           -338.8271   YY=           -392.2752   ZZ=           -397.2013
   XY=            -14.4311   XZ=             15.1450   YZ=             -4.7935

 Normal termination of Gaussian 16 at Wed Sep 18 15:20:39 2019.
