 Gaussian 09, Revision D.01,
 Gaussian 09:  ES64L-G09RevD.01 24-Apr-2013

 -------------------------------------
 # td=(NStates=1) CAM-B3LYP/6-31G(d,p)
 -------------------------------------

 --
 TD
 --
 Symbolic Z-matrix:
 Charge =  0 Multiplicity = 1

                         Standard orientation:
 ---------------------------------------------------------------------
 Center     Atomic      Atomic             Coordinates (Angstroms)
 Number     Number       Type             X           Y           Z
 ---------------------------------------------------------------------
      1         12           0       -7.089958    0.589834    0.024656
      2          6           0       -4.909633   -1.975558    0.603830
      3          6           0       -4.789297    2.835394    1.090894
      4          6           0       -9.418148    3.048874   -0.451746
      5          6           0       -9.586740   -1.730737   -0.905738
      6          7           0       -5.180284    0.442911    0.656256
      7          6           0       -4.387811   -0.661872    0.764166
      8          6           0       -2.922530   -0.328607    1.293509
      9          6           0       -3.065378    1.044939    1.714745
     10          6           0       -4.408642    1.498266    1.182159
     11          6           0       -2.830155    1.316921    3.267457
     12          6           0       -1.918239   -0.539105    0.178269
     13          6           0       -0.424665   -0.394304    0.694413
     14          6           0        0.500662   -0.731175   -0.468547
     15          8           0        0.220092   -1.101677   -1.580267
     16          8           0        1.804521   -0.561651   -0.212588
     17          7           0       -7.117984    2.590655    0.292002
     18          6           0       -6.094781    3.380555    0.707058
     19          6           0       -6.518595    4.757541    0.770332
     20          6           0       -7.732637    4.773451    0.371959
     21          6           0       -8.213473    3.458526    0.026303
     22          6           0       -5.599617    5.885908    1.180312
     23          6           0       -8.575698    6.099267    0.116789
     24          6           0       -8.571750    7.159137    0.947462
     25          7           0       -9.185806    0.633625   -0.663541
     26          6           0       -9.912514    1.751931   -0.767722
     27          6           0      -11.215407    1.422420   -1.222024
     28          6           0      -11.258306    0.140041   -1.289314
     29          6           0       -9.921415   -0.367867   -1.039177
     30          6           0      -12.212148    2.508542   -1.586382
     31          6           0      -12.456975   -0.741310   -1.696211
     32          6           0      -12.347810   -1.149703   -3.179159
     33          7           0       -7.229825   -1.336355   -0.119259
     34          6           0       -8.331243   -2.161906   -0.482661
     35          6           0       -7.887691   -3.541025   -0.470714
     36          6           0       -6.560321   -3.552849   -0.013433
     37          6           0       -6.204808   -2.253543    0.143676
     38          6           0       -8.720861   -4.844394   -0.809003
     39          6           0       -5.277801   -4.322291    0.231673
     40          8           0       -5.085882   -5.559555    0.101033
     41          6           0       -4.231600   -3.238348    0.590152
     42          6           0       -3.594486   -3.762746    1.905447
     43          8           0       -3.739243   -3.084995    2.973610
     44          8           0       -2.647475   -4.698902    1.738417
     45          6           0       -2.045484   -5.200259    2.890463
     46          6           0        2.801767   -0.749397   -1.189597
     47          6           0        4.164622   -0.624889   -0.619065
     48          6           0        5.088784    0.264755   -1.054896
     49          6           0        5.087671    1.199792   -2.168013
     50          6           0        6.408327    0.264156   -0.221965
     51          6           0        7.662855   -0.127289   -0.882132
     52          6           0        8.943000   -0.209850   -0.054291
     53          6           0       10.242011   -0.547749   -0.714382
     54          6           0       10.201063   -2.051401   -1.290507
     55          6           0       11.574331   -0.365509    0.151136
     56          6           0       12.806155   -0.494521   -0.669741
     57          6           0       14.038421   -0.095962    0.225462
     58          6           0       15.406614   -0.152078   -0.439220
     59          6           0       15.837147   -1.547224   -1.056797
     60          6           0       16.460993    0.432854    0.510528
     61          6           0       17.778997    0.514625   -0.173580
     62          6           0       18.808739    1.329457    0.706674
     63          6           0       20.276613    1.405428    0.161650
     64          6           0       20.194604    2.127969   -1.241911
     65          6           0       21.134071    2.117487    1.058323
     66          1           0       -4.074901    3.535236    1.527619
     67          1           0      -10.123843    3.837735   -0.517343
     68          1           0      -10.303802   -2.431057   -1.397990
     69          1           0       -2.696916   -0.985170    2.097287
     70          1           0       -2.415449    1.750390    1.199272
     71          1           0       -1.750540    1.301872    3.675700
     72          1           0       -3.129371    2.290616    3.720109
     73          1           0       -3.524285    0.483998    3.686975
     74          1           0       -2.087878   -1.647472   -0.178160
     75          1           0       -2.293065    0.162646   -0.805789
     76          1           0       -0.125728    0.765815    1.036827
     77          1           0       -0.162502   -1.021146    1.565510
     78          1           0       -5.986167    6.838157    0.911585
     79          1           0       -5.741299    5.885336    2.237063
     80          1           0       -4.389641    5.823641    1.024180
     81          1           0       -9.154261    6.198325   -0.818660
     82          1           0       -9.230130    7.957118    0.440621
     83          1           0       -7.910391    7.332323    1.705075
     84          1           0      -11.755495    3.342378   -2.173590
     85          1           0      -13.200221    2.033987   -2.137182
     86          1           0      -12.568621    3.091432   -0.506715
     87          1           0      -12.556238   -1.700658   -1.119215
     88          1           0      -13.433322   -0.123533   -1.800010
     89          1           0      -13.437031   -1.534851   -3.646851
     90          1           0      -12.341368   -0.293327   -3.922490
     91          1           0      -11.510712   -1.718649   -3.375475
     92          1           0       -8.837640   -4.921201   -1.879888
     93          1           0       -8.079010   -5.700350   -0.478782
     94          1           0       -9.527901   -4.878419   -0.224381
     95          1           0       -3.409487   -3.450753   -0.074708
     96          1           0       -1.477085   -4.422052    3.437817
     97          1           0       -2.775692   -5.629357    3.558548
     98          1           0       -1.293493   -6.035461    2.575031
     99          1           0        2.649321   -1.684828   -1.462932
    100          1           0        2.710762   -0.213087   -2.165532
    101          1           0        4.285544   -1.231507    0.259827
    102          1           0        4.162143    1.343026   -2.732813
    103          1           0        5.326354    2.140915   -1.856048
    104          1           0        5.836006    0.712700   -2.844779
    105          1           0        6.658150    1.225278    0.336082
    106          1           0        6.155793   -0.382625    0.719374
    107          1           0        7.483155   -1.271816   -1.378652
    108          1           0        8.065945    0.580795   -1.780639
    109          1           0        9.118681    0.684901    0.478936
    110          1           0        8.661444   -0.969661    0.684488
    111          1           0       10.482644    0.089725   -1.545861
    112          1           0        9.439501   -1.972726   -1.966281
    113          1           0       11.101176   -2.360886   -1.768286
    114          1           0       10.075958   -2.856155   -0.480890
    115          1           0       11.530804    0.743053    0.641929
    116          1           0       11.625327   -0.934141    1.087635
    117          1           0       12.908714   -1.556653   -1.228946
    118          1           0       12.866331    0.323655   -1.501497
    119          1           0       13.758065    0.986841    0.733042
    120          1           0       14.090710   -0.899484    1.116811
    121          1           0       15.329481    0.621582   -1.199919
    122          1           0       16.024544   -2.478027   -0.167898
    123          1           0       14.893133   -1.770022   -1.714643
    124          1           0       16.662905   -1.524616   -1.862134
    125          1           0       16.100958    1.345887    0.798005
    126          1           0       16.503570   -0.228225    1.316142
    127          1           0       18.409099   -0.497740   -0.309190
    128          1           0       17.799122    1.060555   -1.107867
    129          1           0       18.519031    2.386843    0.851856
    130          1           0       18.733483    1.026285    1.779593
    131          1           0       20.764828    0.300401    0.001277
    132          1           0       19.437310    3.068711   -1.161964
    133          1           0       21.329893    2.733138   -1.539493
    134          1           0       19.850065    1.441087   -2.118823
    135          1           0       20.837207    1.695341    2.047617
    136          1           0       22.187438    2.066075    0.773157
    137          1           0       20.964836    3.129651    1.350142
 ---------------------------------------------------------------------

 SCF Done:  E(RCAM-B3LYP) =  -2932.68496130     A.U. after   17 cycles

 Excitation energies and oscillator strengths:

 Excited State   1:      Singlet-A      2.0777 eV  596.75 nm  f=0.2355  <S**2>=0.000
     240 -> 243        0.25895
     241 -> 242        0.65075
 This state for optimization and/or second-order correction.
 Total Energy, E(TD-HF/TD-KS) =  -2932.60860871
 Copying the excited state density for this state as the 1-particle RhoCI density.

 The electronic state is 1-A.
 Alpha  occ. eigenvalues --  -46.83348 -19.27713 -19.24888 -19.20624 -19.20462
 Alpha  occ. eigenvalues --  -19.20014 -14.41825 -14.39821 -14.38848 -14.38844
 Alpha  occ. eigenvalues --  -10.40122 -10.38939 -10.35896 -10.32025 -10.31535
 Alpha  occ. eigenvalues --  -10.31331 -10.30772 -10.30560 -10.29808 -10.29620
 Alpha  occ. eigenvalues --  -10.29163 -10.29152 -10.29021 -10.28762 -10.28563
 Alpha  occ. eigenvalues --  -10.28494 -10.28390 -10.28163 -10.28106 -10.28069
 Alpha  occ. eigenvalues --  -10.28025 -10.27977 -10.27963 -10.27644 -10.27628
 Alpha  occ. eigenvalues --  -10.27625 -10.27392 -10.27294 -10.27147 -10.27131
 Alpha  occ. eigenvalues --  -10.27105 -10.27087 -10.27044 -10.26986 -10.26962
 Alpha  occ. eigenvalues --  -10.26549 -10.26507 -10.26348 -10.26255 -10.26225
 Alpha  occ. eigenvalues --  -10.26103 -10.25893 -10.25864 -10.25607 -10.25563
 Alpha  occ. eigenvalues --  -10.25444 -10.25251 -10.25086 -10.24954 -10.24885
 Alpha  occ. eigenvalues --  -10.24726 -10.24720 -10.23867 -10.23498 -10.23294
 Alpha  occ. eigenvalues --   -3.12637  -1.87320  -1.86892  -1.86829  -1.19050
 Alpha  occ. eigenvalues --   -1.18639  -1.08791  -1.08470  -1.07136  -1.05782
 Alpha  occ. eigenvalues --   -1.03983  -1.03296  -1.01905  -0.93424  -0.91497
 Alpha  occ. eigenvalues --   -0.90713  -0.90559  -0.89462  -0.89401  -0.88757
 Alpha  occ. eigenvalues --   -0.88493  -0.88386  -0.87132  -0.86240  -0.85943
 Alpha  occ. eigenvalues --   -0.85234  -0.84501  -0.83867  -0.83182  -0.82596
 Alpha  occ. eigenvalues --   -0.81927  -0.81695  -0.80399  -0.79919  -0.78510
 Alpha  occ. eigenvalues --   -0.78127  -0.77107  -0.76618  -0.76328  -0.75092
 Alpha  occ. eigenvalues --   -0.74893  -0.74273  -0.73537  -0.73073  -0.72516
 Alpha  occ. eigenvalues --   -0.72026  -0.70169  -0.68693  -0.68482  -0.67548
 Alpha  occ. eigenvalues --   -0.66467  -0.65884  -0.65252  -0.64986  -0.64471
 Alpha  occ. eigenvalues --   -0.63770  -0.63255  -0.63030  -0.62581  -0.61919
 Alpha  occ. eigenvalues --   -0.61260  -0.60974  -0.60606  -0.60338  -0.59367
 Alpha  occ. eigenvalues --   -0.58817  -0.58484  -0.57693  -0.57268  -0.57072
 Alpha  occ. eigenvalues --   -0.56393  -0.55991  -0.55449  -0.54735  -0.54656
 Alpha  occ. eigenvalues --   -0.54344  -0.54116  -0.54010  -0.53216  -0.52692
 Alpha  occ. eigenvalues --   -0.52473  -0.52413  -0.52235  -0.52122  -0.51655
 Alpha  occ. eigenvalues --   -0.51392  -0.51228  -0.50941  -0.50792  -0.50631
 Alpha  occ. eigenvalues --   -0.50508  -0.50060  -0.49956  -0.49776  -0.49698
 Alpha  occ. eigenvalues --   -0.49296  -0.49227  -0.49013  -0.48783  -0.48266
 Alpha  occ. eigenvalues --   -0.47956  -0.47789  -0.47498  -0.47227  -0.47038
 Alpha  occ. eigenvalues --   -0.46931  -0.46508  -0.46304  -0.46011  -0.45790
 Alpha  occ. eigenvalues --   -0.45565  -0.45364  -0.45266  -0.45152  -0.44924
 Alpha  occ. eigenvalues --   -0.44780  -0.44538  -0.44352  -0.44131  -0.43922
 Alpha  occ. eigenvalues --   -0.43665  -0.43496  -0.43384  -0.43315  -0.43170
 Alpha  occ. eigenvalues --   -0.42708  -0.42544  -0.42454  -0.42379  -0.42264
 Alpha  occ. eigenvalues --   -0.41964  -0.41583  -0.41443  -0.41319  -0.41154
 Alpha  occ. eigenvalues --   -0.41046  -0.40857  -0.40561  -0.40282  -0.39928
 Alpha  occ. eigenvalues --   -0.39645  -0.39599  -0.39500  -0.39092  -0.38993
 Alpha  occ. eigenvalues --   -0.38524  -0.38476  -0.38217  -0.37783  -0.37446
 Alpha  occ. eigenvalues --   -0.37327  -0.37167  -0.36875  -0.36795  -0.36600
 Alpha  occ. eigenvalues --   -0.36311  -0.35903  -0.35891  -0.35646  -0.35478
 Alpha  occ. eigenvalues --   -0.35163  -0.35042  -0.34974  -0.33736  -0.33406
 Alpha  occ. eigenvalues --   -0.33157  -0.33080  -0.32475  -0.30798  -0.30133
 Alpha  occ. eigenvalues --   -0.29936  -0.29695  -0.29065  -0.28817  -0.23424
 Alpha  occ. eigenvalues --   -0.21272
 Alpha virt. eigenvalues --   -0.06246  -0.02948   0.01652   0.04351   0.04923
 Alpha virt. eigenvalues --    0.05931   0.06274   0.06285   0.06598   0.07118
 Alpha virt. eigenvalues --    0.07753   0.10419   0.10617   0.11433   0.11762

 Mulliken charges:
               1
     1  Mg   0.829391
     2  C    0.126209
     3  C   -0.212514
     4  C   -0.173712
     5  C   -0.157553
     6  N   -0.637202
     7  C    0.266043
     8  C   -0.130808
     9  C   -0.137077
    10  C    0.336038
    11  C   -0.316234
    12  C   -0.158864
    13  C   -0.268356
    14  C    0.603676
    15  O   -0.470820
    16  O   -0.482577
    17  N   -0.715565
    18  C    0.300047
    19  C    0.061425
    20  C   -0.016712
    21  C    0.301117
    22  C   -0.378439
    23  C   -0.094741
    24  C   -0.215651
    25  N   -0.648465
    26  C    0.274486
    27  C    0.084786
    28  C   -0.001678
    29  C    0.276116
    30  C   -0.355724
    31  C   -0.239437
    32  C   -0.304538
    33  N   -0.749980
    34  C    0.292265
    35  C   -0.067324
    36  C    0.056755
    37  C    0.250539
    38  C   -0.364053
    39  C    0.368666
    40  O   -0.483533
    41  C   -0.361193
    42  C    0.605712
    43  O   -0.494281
    44  O   -0.418245
    45  C   -0.085707
    46  C    0.043826
    47  C   -0.152943
    48  C    0.126988
    49  C   -0.359015
    50  C   -0.224211
    51  C   -0.153386
    52  C   -0.164087
    53  C   -0.064912
    54  C   -0.317131
    55  C   -0.167777
    56  C   -0.165179
    57  C   -0.164729
    58  C   -0.067196
    59  C   -0.292968
    60  C   -0.150283
    61  C   -0.173490
    62  C   -0.196180
    63  C   -0.026519
    64  C   -0.281742
    65  C   -0.302022
    66  H    0.074653
    67  H    0.085386
    68  H    0.106169
    69  H    0.138619
    70  H    0.115753
    71  H    0.103380
    72  H    0.111757
    73  H    0.123618
    74  H    0.113954
    75  H    0.104134
    76  H    0.122090
    77  H    0.149639
    78  H    0.124194
    79  H    0.136277
    80  H    0.108496
    81  H    0.107094
    82  H    0.095266
    83  H    0.104961
    84  H    0.125776
    85  H    0.095726
    86  H    0.085812
    87  H    0.109619
    88  H    0.097096
    89  H    0.068710
    90  H    0.102748
    91  H    0.117751
    92  H    0.131379
    93  H    0.142108
    94  H    0.135819
    95  H    0.179224
    96  H    0.123836
    97  H    0.137551
    98  H    0.117435
    99  H    0.118584
   100  H    0.104481
   101  H    0.093937
   102  H    0.112700
   103  H    0.132047
   104  H    0.131942
   105  H    0.091425
   106  H    0.091185
   107  H    0.065250
   108  H    0.069769
   109  H    0.091416
   110  H    0.093024
   111  H    0.087852
   112  H    0.114021
   113  H    0.099602
   114  H    0.091566
   115  H    0.056522
   116  H    0.098427
   117  H    0.091580
   118  H    0.081878
   119  H    0.074595
   120  H    0.065000
   121  H    0.084908
   122  H    0.072854
   123  H    0.090091
   124  H    0.111763
   125  H    0.096999
   126  H    0.099139
   127  H    0.083232
   128  H    0.099024
   129  H    0.084387
   130  H    0.079699
   131  H    0.067357
   132  H    0.085652
   133  H    0.052188
   134  H    0.100787
   135  H    0.090940
   136  H    0.104119
   137  H    0.104697
 Sum of Mulliken charges =   0.00000

 Dipole moment (field-independent basis, Debye):
    X=              1.9130    Y=              5.5180    Z=              0.7989  Tot=              5.8946
 Quadrupole moment (field-independent basis, Debye-Ang):
   XX=           -378.1987   YY=           -388.6785   ZZ=           -397.3539
   XY=            -22.4588   XZ=             15.1575   YZ=             -2.8489

 Normal termination of Gaussian 09 at Wed Jul  3 13:08:39 2019.
