 Gaussian 09, Revision D.01,
 Gaussian 09:  ES64L-G09RevD.01 24-Apr-2013

 -------------------------------------
 # td=(NStates=1) CAM-B3LYP/6-31G(d,p)
 -------------------------------------

 --
 TD
 --
 Symbolic Z-matrix:
 Charge =  0 Multiplicity = 1

                         Standard orientation:
 ---------------------------------------------------------------------
 Center     Atomic      Atomic             Coordinates (Angstroms)
 Number     Number       Type             X           Y           Z
 ---------------------------------------------------------------------
      1         12           0       -7.069207    0.630017    0.025442
      2          6           0       -4.775550   -1.882025    0.523659
      3          6           0       -4.799420    2.833253    1.157866
      4          6           0       -9.438690    3.111700   -0.320191
      5          6           0       -9.533655   -1.723560   -0.805939
      6          7           0       -5.115229    0.408574    0.749647
      7          6           0       -4.267712   -0.640993    0.776069
      8          6           0       -2.845635   -0.447665    1.216498
      9          6           0       -3.088606    1.076419    1.626204
     10          6           0       -4.376459    1.467615    1.093258
     11          6           0       -2.950879    1.301605    3.145144
     12          6           0       -1.862262   -0.492765    0.000442
     13          6           0       -0.410017   -0.413489    0.509611
     14          6           0        0.528318   -0.670855   -0.629260
     15          8           0        0.248006   -1.143720   -1.719719
     16          8           0        1.783463   -0.369730   -0.230458
     17          7           0       -7.177963    2.637760    0.355102
     18          6           0       -6.057872    3.360934    0.721306
     19          6           0       -6.402625    4.749640    0.688638
     20          6           0       -7.779318    4.824429    0.307517
     21          6           0       -8.087029    3.523412    0.096242
     22          6           0       -5.529394    5.900684    1.100418
     23          6           0       -8.485119    6.000476    0.203067
     24          6           0       -8.519521    7.203305    0.878483
     25          7           0       -9.134880    0.690945   -0.515795
     26          6           0       -9.880262    1.847567   -0.660978
     27          6           0      -11.204465    1.467743   -1.148842
     28          6           0      -11.165466    0.097740   -1.187438
     29          6           0       -9.854889   -0.422822   -0.721585
     30          6           0      -12.266126    2.439364   -1.672118
     31          6           0      -12.394109   -0.797748   -1.614159
     32          6           0      -12.314538   -1.300433   -3.060397
     33          7           0       -7.143913   -1.398555   -0.249220
     34          6           0       -8.142076   -2.215606   -0.533974
     35          6           0       -7.801642   -3.554935   -0.497715
     36          6           0       -6.434402   -3.522762   -0.041248
     37          6           0       -6.171216   -2.181125    0.088628
     38          6           0       -8.623857   -4.877251   -0.840176
     39          6           0       -5.321585   -4.361462    0.335177
     40          8           0       -5.240626   -5.571847    0.233470
     41          6           0       -4.141355   -3.330268    0.644656
     42          6           0       -3.503139   -3.680264    1.895414
     43          8           0       -3.682421   -2.998478    2.890967
     44          8           0       -2.786580   -4.756695    1.857573
     45          6           0       -2.291508   -5.377743    2.953314
     46          6           0        2.838505   -0.659241   -1.188592
     47          6           0        4.043158   -0.517551   -0.551030
     48          6           0        5.132251    0.336540   -0.961475
     49          6           0        4.980488    1.123135   -2.205427
     50          6           0        6.401518    0.523762   -0.209982
     51          6           0        7.631191   -0.119236   -1.008400
     52          6           0        8.866582   -0.166297   -0.177218
     53          6           0       10.167700   -0.492724   -0.955996
     54          6           0       10.202101   -1.865330   -1.619990
     55          6           0       11.377963   -0.217440   -0.085998
     56          6           0       12.753987   -0.486171   -0.682597
     57          6           0       13.933777   -0.081998    0.200392
     58          6           0       15.402939   -0.123477   -0.507051
     59          6           0       15.705154   -1.531936   -0.900508
     60          6           0       16.386303    0.478237    0.464795
     61          6           0       17.759002    0.533971   -0.093619
     62          6           0       18.714228    1.181802    0.842718
     63          6           0       20.176209    1.270969    0.325024
     64          6           0       20.380352    2.021830   -0.989393
     65          6           0       21.118319    1.860550    1.425638
     66          1           0       -4.110737    3.447331    1.559220
     67          1           0      -10.214777    3.960317   -0.421330
     68          1           0      -10.411891   -2.398414   -1.265113
     69          1           0       -2.635254   -1.103470    2.083236
     70          1           0       -2.259989    1.716916    1.156234
     71          1           0       -1.882310    1.308363    3.534306
     72          1           0       -3.029283    2.390530    3.500534
     73          1           0       -3.802497    0.605209    3.592254
     74          1           0       -1.889352   -1.497933   -0.504756
     75          1           0       -2.096632    0.379518   -0.592985
     76          1           0       -0.192161    0.604321    0.825742
     77          1           0       -0.278512   -0.986793    1.375680
     78          1           0       -5.626208    6.785048    0.591325
     79          1           0       -5.451483    6.409970    1.972915
     80          1           0       -4.543506    5.580181    0.834578
     81          1           0       -9.315778    5.934041   -0.425718
     82          1           0       -9.007778    8.016509    0.378463
     83          1           0       -7.918603    7.238206    1.760186
     84          1           0      -12.003649    3.114023   -2.557756
     85          1           0      -13.144251    1.846108   -2.039042
     86          1           0      -12.437709    2.998019   -0.793769
     87          1           0      -12.518499   -1.735501   -1.018275
     88          1           0      -13.368150   -0.218622   -1.693691
     89          1           0      -13.222414   -1.867462   -3.290063
     90          1           0      -12.198676   -0.490847   -3.728777
     91          1           0      -11.437443   -1.994599   -3.085063
     92          1           0       -9.113767   -4.732086   -1.931794
     93          1           0       -7.957843   -5.765944   -0.786789
     94          1           0       -9.373992   -5.056292   -0.005032
     95          1           0       -3.389480   -3.449929   -0.074893
     96          1           0       -1.952426   -4.686170    3.623027
     97          1           0       -3.134186   -5.987781    3.562362
     98          1           0       -1.521839   -6.189983    2.584197
     99          1           0        2.627142   -1.662495   -1.551833
    100          1           0        2.540825   -0.017108   -1.918372
    101          1           0        4.165102   -0.851531    0.395668
    102          1           0        3.983579    1.292872   -2.539654
    103          1           0        5.460810    2.038781   -1.995283
    104          1           0        5.354880    0.700576   -3.202743
    105          1           0        6.435498    1.535726   -0.034319
    106          1           0        6.399352    0.060757    0.726429
    107          1           0        7.311471   -1.202174   -1.242325
    108          1           0        7.724609    0.554712   -2.031437
    109          1           0        8.906366    0.804014    0.188935
    110          1           0        8.838758   -0.950495    0.672048
    111          1           0       10.268884    0.187715   -1.735989
    112          1           0        9.195176   -2.030456   -2.183675
    113          1           0       11.026684   -2.092697   -2.193827
    114          1           0       10.130727   -2.728237   -0.914403
    115          1           0       11.190541    0.745418    0.311411
    116          1           0       11.283742   -1.024306    0.600689
    117          1           0       12.923968   -1.675292   -0.757144
    118          1           0       12.829147   -0.076044   -1.742123
    119          1           0       13.770016    0.816424    0.570558
    120          1           0       13.970509   -0.699223    0.812359
    121          1           0       15.254816    0.499339   -1.336571
    122          1           0       15.636857   -2.086341   -0.013366
    123          1           0       15.106712   -2.028504   -1.702257
    124          1           0       16.778216   -1.562332   -1.170010
    125          1           0       16.224462    1.396163    0.719269
    126          1           0       16.452565   -0.249632    1.433000
    127          1           0       18.362769   -0.488819   -0.482879
    128          1           0       17.925886    1.128004   -1.064159
    129          1           0       18.300467    2.258684    1.180289
    130          1           0       18.619899    0.815352    1.758380
    131          1           0       20.589201    0.225381    0.253358
    132          1           0       20.229817    3.166866   -1.024453
    133          1           0       21.435190    1.687316   -1.662784
    134          1           0       19.747925    1.722368   -1.686312
    135          1           0       20.975202    1.367933    2.341236
    136          1           0       22.147860    1.829503    1.047255
    137          1           0       20.897231    2.922427    1.424246
 ---------------------------------------------------------------------

 SCF Done:  E(RCAM-B3LYP) =  -2932.65479817     A.U. after   18 cycles

 Excitation energies and oscillator strengths:

 Excited State   1:      Singlet-A      1.9002 eV  652.49 nm  f=0.3240  <S**2>=0.000
     240 -> 243        0.17799
     241 -> 242        0.67542
 This state for optimization and/or second-order correction.
 Total Energy, E(TD-HF/TD-KS) =  -2932.58496780
 Copying the excited state density for this state as the 1-particle RhoCI density.

 The electronic state is 1-A.
 Alpha  occ. eigenvalues --  -46.85423 -19.26845 -19.25360 -19.20964 -19.19855
 Alpha  occ. eigenvalues --  -19.19434 -14.42629 -14.39439 -14.38901 -14.38802
 Alpha  occ. eigenvalues --  -10.38927 -10.38440 -10.34615 -10.32145 -10.31021
 Alpha  occ. eigenvalues --  -10.30217 -10.29810 -10.29556 -10.29545 -10.29406
 Alpha  occ. eigenvalues --  -10.28460 -10.28396 -10.28372 -10.28310 -10.27975
 Alpha  occ. eigenvalues --  -10.27846 -10.27775 -10.27568 -10.27482 -10.27471
 Alpha  occ. eigenvalues --  -10.27462 -10.27435 -10.27248 -10.27144 -10.26990
 Alpha  occ. eigenvalues --  -10.26866 -10.26844 -10.26720 -10.26664 -10.26640
 Alpha  occ. eigenvalues --  -10.26598 -10.26351 -10.26301 -10.26243 -10.26156
 Alpha  occ. eigenvalues --  -10.26084 -10.25972 -10.25836 -10.25731 -10.25515
 Alpha  occ. eigenvalues --  -10.25465 -10.25352 -10.25075 -10.25047 -10.24934
 Alpha  occ. eigenvalues --  -10.24852 -10.24608 -10.24560 -10.24388 -10.24165
 Alpha  occ. eigenvalues --  -10.23813 -10.23726 -10.23604 -10.23546 -10.21237
 Alpha  occ. eigenvalues --   -3.14316  -1.89034  -1.88553  -1.88483  -1.21266
 Alpha  occ. eigenvalues --   -1.17747  -1.10378  -1.09267  -1.08898  -1.06790
 Alpha  occ. eigenvalues --   -1.06090  -1.05680  -1.02763  -0.91932  -0.91664
 Alpha  occ. eigenvalues --   -0.91520  -0.90589  -0.90124  -0.90034  -0.88810
 Alpha  occ. eigenvalues --   -0.88561  -0.87747  -0.87346  -0.86978  -0.86060
 Alpha  occ. eigenvalues --   -0.85464  -0.85171  -0.84332  -0.83702  -0.82713
 Alpha  occ. eigenvalues --   -0.82491  -0.81398  -0.80851  -0.80610  -0.79412
 Alpha  occ. eigenvalues --   -0.77557  -0.77371  -0.77188  -0.76379  -0.76212
 Alpha  occ. eigenvalues --   -0.76075  -0.75765  -0.75298  -0.73544  -0.72740
 Alpha  occ. eigenvalues --   -0.71042  -0.70169  -0.69453  -0.68884  -0.68186
 Alpha  occ. eigenvalues --   -0.67982  -0.66915  -0.65672  -0.64906  -0.64392
 Alpha  occ. eigenvalues --   -0.64183  -0.63819  -0.63660  -0.63187  -0.63158
 Alpha  occ. eigenvalues --   -0.62840  -0.61901  -0.61485  -0.60023  -0.59631
 Alpha  occ. eigenvalues --   -0.58764  -0.58498  -0.58375  -0.57887  -0.57651
 Alpha  occ. eigenvalues --   -0.56667  -0.56307  -0.56269  -0.55778  -0.55485
 Alpha  occ. eigenvalues --   -0.55359  -0.54960  -0.54308  -0.54113  -0.53738
 Alpha  occ. eigenvalues --   -0.53455  -0.52768  -0.52662  -0.52454  -0.52089
 Alpha  occ. eigenvalues --   -0.51915  -0.51767  -0.51087  -0.50975  -0.50726
 Alpha  occ. eigenvalues --   -0.50714  -0.50382  -0.50298  -0.49962  -0.49705
 Alpha  occ. eigenvalues --   -0.49449  -0.49343  -0.49109  -0.48955  -0.48484
 Alpha  occ. eigenvalues --   -0.48319  -0.48206  -0.47733  -0.47546  -0.47262
 Alpha  occ. eigenvalues --   -0.46896  -0.46607  -0.46098  -0.45867  -0.45667
 Alpha  occ. eigenvalues --   -0.45549  -0.45434  -0.45392  -0.45291  -0.45066
 Alpha  occ. eigenvalues --   -0.44836  -0.44739  -0.44568  -0.44449  -0.44182
 Alpha  occ. eigenvalues --   -0.43906  -0.43831  -0.43571  -0.43457  -0.43323
 Alpha  occ. eigenvalues --   -0.43225  -0.42884  -0.42802  -0.42681  -0.42405
 Alpha  occ. eigenvalues --   -0.42083  -0.41931  -0.41863  -0.41831  -0.41461
 Alpha  occ. eigenvalues --   -0.41416  -0.41087  -0.40890  -0.40714  -0.40579
 Alpha  occ. eigenvalues --   -0.40432  -0.40350  -0.40118  -0.39837  -0.39676
 Alpha  occ. eigenvalues --   -0.39591  -0.39303  -0.38915  -0.38655  -0.38429
 Alpha  occ. eigenvalues --   -0.38023  -0.37570  -0.37390  -0.36851  -0.36825
 Alpha  occ. eigenvalues --   -0.36401  -0.36082  -0.35983  -0.35546  -0.35382
 Alpha  occ. eigenvalues --   -0.35303  -0.35198  -0.35070  -0.33905  -0.33117
 Alpha  occ. eigenvalues --   -0.32972  -0.32743  -0.31814  -0.30974  -0.29604
 Alpha  occ. eigenvalues --   -0.28831  -0.28092  -0.27923  -0.26793  -0.22588
 Alpha  occ. eigenvalues --   -0.21482
 Alpha virt. eigenvalues --   -0.08031  -0.01511   0.01741   0.03510   0.04147
 Alpha virt. eigenvalues --    0.05178   0.06194   0.06483   0.06851   0.07132
 Alpha virt. eigenvalues --    0.08818   0.10098   0.11181   0.11947   0.11947

 Mulliken charges:
               1
     1  Mg   0.831532
     2  C    0.045694
     3  C   -0.178326
     4  C   -0.202768
     5  C   -0.167355
     6  N   -0.636322
     7  C    0.289120
     8  C   -0.151577
     9  C   -0.188573
    10  C    0.376478
    11  C   -0.298354
    12  C   -0.165333
    13  C   -0.275169
    14  C    0.615928
    15  O   -0.486571
    16  O   -0.497478
    17  N   -0.709840
    18  C    0.302793
    19  C   -0.021432
    20  C    0.089495
    21  C    0.315416
    22  C   -0.383420
    23  C   -0.122270
    24  C   -0.238713
    25  N   -0.714818
    26  C    0.314578
    27  C    0.000370
    28  C   -0.008929
    29  C    0.367073
    30  C   -0.349374
    31  C   -0.256794
    32  C   -0.302920
    33  N   -0.693382
    34  C    0.232642
    35  C    0.000805
    36  C   -0.001972
    37  C    0.286596
    38  C   -0.358460
    39  C    0.355694
    40  O   -0.461946
    41  C   -0.316372
    42  C    0.599215
    43  O   -0.497214
    44  O   -0.389295
    45  C   -0.086663
    46  C    0.030805
    47  C   -0.121048
    48  C    0.089080
    49  C   -0.365343
    50  C   -0.233519
    51  C   -0.173756
    52  C   -0.161358
    53  C   -0.069099
    54  C   -0.321966
    55  C   -0.153709
    56  C   -0.205612
    57  C   -0.133611
    58  C   -0.080241
    59  C   -0.314487
    60  C   -0.142555
    61  C   -0.172191
    62  C   -0.157865
    63  C   -0.064544
    64  C   -0.300862
    65  C   -0.306601
    66  H    0.075358
    67  H    0.088217
    68  H    0.105433
    69  H    0.146779
    70  H    0.090263
    71  H    0.107781
    72  H    0.098006
    73  H    0.125714
    74  H    0.128464
    75  H    0.116041
    76  H    0.131139
    77  H    0.147263
    78  H    0.125633
    79  H    0.132854
    80  H    0.105753
    81  H    0.083062
    82  H    0.111631
    83  H    0.099978
    84  H    0.119978
    85  H    0.110291
    86  H    0.132326
    87  H    0.106993
    88  H    0.098201
    89  H    0.102953
    90  H    0.115258
    91  H    0.095579
    92  H    0.103055
    93  H    0.149453
    94  H    0.121056
    95  H    0.162286
    96  H    0.135717
    97  H    0.104849
    98  H    0.118402
    99  H    0.131179
   100  H    0.124267
   101  H    0.087363
   102  H    0.117664
   103  H    0.111306
   104  H    0.115688
   105  H    0.112237
   106  H    0.107521
   107  H    0.100289
   108  H    0.080600
   109  H    0.099362
   110  H    0.086333
   111  H    0.088409
   112  H    0.087290
   113  H    0.120118
   114  H    0.086977
   115  H    0.088042
   116  H    0.093164
   117  H    0.069057
   118  H    0.074146
   119  H    0.084598
   120  H    0.090733
   121  H    0.088883
   122  H    0.103576
   123  H    0.105118
   124  H    0.099442
   125  H    0.106227
   126  H    0.069325
   127  H    0.063267
   128  H    0.087119
   129  H    0.050703
   130  H    0.101369
   131  H    0.089462
   132  H    0.097095
   133  H    0.059221
   134  H    0.121312
   135  H    0.102838
   136  H    0.099365
   137  H    0.100262
 Sum of Mulliken charges =   0.00000

 Dipole moment (field-independent basis, Debye):
    X=              3.1202    Y=              5.3780    Z=              0.4495  Tot=              6.2338
 Quadrupole moment (field-independent basis, Debye-Ang):
   XX=           -363.7730   YY=           -391.9186   ZZ=           -397.6042
   XY=            -24.3944   XZ=             16.0856   YZ=             -5.8442

 Normal termination of Gaussian 09 at Sat Jul  6 07:40:12 2019.
