 Gaussian 09, Revision D.01,
 Gaussian 09:  ES64L-G09RevD.01 24-Apr-2013

 -------------------------------------
 # td=(NStates=1) CAM-B3LYP/6-31G(d,p)
 -------------------------------------

 --
 TD
 --
 Symbolic Z-matrix:
 Charge =  0 Multiplicity = 1

                         Standard orientation:
 ---------------------------------------------------------------------
 Center     Atomic      Atomic             Coordinates (Angstroms)
 Number     Number       Type             X           Y           Z
 ---------------------------------------------------------------------
      1         12           0       -7.231658    0.620588    0.131062
      2          6           0       -4.868678   -1.870945    0.665158
      3          6           0       -4.801286    2.801396    1.069917
      4          6           0       -9.389120    3.092064   -0.556968
      5          6           0       -9.536550   -1.746640   -0.766325
      6          7           0       -5.186751    0.471871    0.605751
      7          6           0       -4.341997   -0.648052    0.733226
      8          6           0       -2.919794   -0.411845    1.172443
      9          6           0       -3.008068    1.071917    1.667274
     10          6           0       -4.418783    1.556577    1.046614
     11          6           0       -2.982836    1.247488    3.182889
     12          6           0       -1.947053   -0.645597    0.071887
     13          6           0       -0.420531   -0.512022    0.472343
     14          6           0        0.542145   -0.748998   -0.615887
     15          8           0        0.218700   -1.112679   -1.666452
     16          8           0        1.844696   -0.344756   -0.235289
     17          7           0       -7.180584    2.657961    0.326262
     18          6           0       -6.119370    3.409323    0.749658
     19          6           0       -6.466287    4.734193    0.734162
     20          6           0       -7.730710    4.883433    0.306956
     21          6           0       -8.180760    3.465291    0.014492
     22          6           0       -5.604222    5.813301    1.196390
     23          6           0       -8.617288    5.965893    0.168834
     24          6           0       -8.499846    7.137138    0.869660
     25          7           0       -9.204047    0.604090   -0.611512
     26          6           0       -9.953255    1.751026   -0.763444
     27          6           0      -11.328528    1.434856   -1.200281
     28          6           0      -11.248219    0.040150   -1.305085
     29          6           0       -9.955581   -0.374750   -0.986072
     30          6           0      -12.323484    2.420687   -1.394180
     31          6           0      -12.396521   -0.775226   -1.780664
     32          6           0      -12.273521   -1.149381   -3.154761
     33          7           0       -7.238832   -1.471737   -0.066387
     34          6           0       -8.364749   -2.231447   -0.427800
     35          6           0       -7.808389   -3.692019   -0.426963
     36          6           0       -6.515545   -3.578823   -0.038871
     37          6           0       -6.228628   -2.143945    0.196474
     38          6           0       -8.484077   -4.897163   -0.974182
     39          6           0       -5.304111   -4.381521    0.295189
     40          8           0       -5.079000   -5.558787    0.167944
     41          6           0       -4.211713   -3.218400    0.665798
     42          6           0       -3.509176   -3.600838    2.014450
     43          8           0       -3.664361   -2.894522    3.058740
     44          8           0       -2.744386   -4.694253    1.857674
     45          6           0       -2.134789   -5.259610    3.085398
     46          6           0        2.806524   -0.579521   -1.262830
     47          6           0        4.125585   -0.379614   -0.574891
     48          6           0        5.109275    0.359913   -1.045904
     49          6           0        5.099652    1.240310   -2.292531
     50          6           0        6.464971    0.487618   -0.225432
     51          6           0        7.605823   -0.147484   -1.028290
     52          6           0        8.867581   -0.136565   -0.205411
     53          6           0       10.270030   -0.641356   -0.942394
     54          6           0       10.173878   -2.124059   -1.370200
     55          6           0       11.472867   -0.350544   -0.074081
     56          6           0       12.823280   -0.580108   -0.691652
     57          6           0       14.037158   -0.011943    0.164241
     58          6           0       15.398900   -0.127218   -0.523422
     59          6           0       15.764856   -1.564448   -0.982173
     60          6           0       16.460987    0.419272    0.397333
     61          6           0       17.852391    0.457183   -0.136397
     62          6           0       18.804532    1.168087    0.799958
     63          6           0       20.221996    1.358703    0.302628
     64          6           0       20.382876    2.141148   -0.994590
     65          6           0       21.154319    2.055560    1.409110
     66          1           0       -4.070073    3.453722    1.648964
     67          1           0      -10.088227    3.927080   -0.849429
     68          1           0      -10.309675   -2.508608   -1.165434
     69          1           0       -2.565906   -1.041177    1.829982
     70          1           0       -2.404254    1.734130    1.198104
     71          1           0       -1.843253    1.343133    3.539589
     72          1           0       -3.387363    2.278013    3.399962
     73          1           0       -3.754739    0.719089    3.836472
     74          1           0       -2.036414   -1.666680   -0.339667
     75          1           0       -1.924332    0.157197   -0.583923
     76          1           0       -0.274229    0.434905    0.802205
     77          1           0        0.057261   -1.172014    1.350717
     78          1           0       -5.918399    6.754459    0.496801
     79          1           0       -5.638074    6.055794    2.379109
     80          1           0       -4.566797    5.642238    0.987108
     81          1           0       -9.606703    5.815838   -0.385570
     82          1           0       -9.221110    7.972794    0.679280
     83          1           0       -7.966973    7.645244    1.865925
     84          1           0      -12.220739    2.975343   -2.372339
     85          1           0      -13.419092    1.907201   -1.570411
     86          1           0      -12.359578    2.986930   -0.528697
     87          1           0      -12.661204   -1.492366   -1.007681
     88          1           0      -13.383879   -0.377932   -1.705798
     89          1           0      -13.109061   -1.932311   -3.467877
     90          1           0      -12.163786   -0.319571   -3.812316
     91          1           0      -11.342835   -1.781576   -3.143311
     92          1           0       -8.794408   -4.977872   -2.006717
     93          1           0       -7.765405   -5.614261   -0.515727
     94          1           0       -9.396403   -5.059768   -0.390103
     95          1           0       -3.306355   -3.215532    0.014985
     96          1           0       -1.656843   -4.481061    3.700993
     97          1           0       -2.777332   -5.683699    3.592064
     98          1           0       -1.389227   -6.103306    2.695642
     99          1           0        2.491116   -1.697526   -1.419198
    100          1           0        2.774056    0.141584   -2.194209
    101          1           0        4.317075   -0.844846    0.297906
    102          1           0        4.094116    1.315176   -2.757186
    103          1           0        5.608615    2.098966   -2.071347
    104          1           0        5.831737    0.681204   -2.950102
    105          1           0        6.661476    1.622653   -0.209781
    106          1           0        6.342701    0.023630    0.637699
    107          1           0        7.218082   -1.187040   -1.249676
    108          1           0        7.831206    0.317573   -1.877023
    109          1           0        9.206496    0.898578   -0.009264
    110          1           0        8.608374   -0.735077    0.824829
    111          1           0       10.406409   -0.100909   -1.743281
    112          1           0        9.192913   -2.166399   -2.026253
    113          1           0       11.285491   -2.426318   -1.929040
    114          1           0        9.927595   -2.781262   -0.368677
    115          1           0       11.450516    0.637509    0.021470
    116          1           0       11.569934   -0.867393    0.846404
    117          1           0       12.808319   -1.608999   -0.980554
    118          1           0       12.997506    0.043017   -1.525870
    119          1           0       14.101613    1.075523    0.381425
    120          1           0       13.850835   -0.541477    1.172456
    121          1           0       15.266314    0.406321   -1.437998
    122          1           0       16.068504   -2.223986   -0.085203
    123          1           0       15.115796   -2.084346   -1.673672
    124          1           0       16.754102   -1.544864   -1.524058
    125          1           0       16.147018    1.434894    0.890051
    126          1           0       16.711285   -0.373588    1.365770
    127          1           0       18.048717   -0.436353   -0.506190
    128          1           0       17.811222    1.015256   -1.172493
    129          1           0       18.583905    2.298818    1.049408
    130          1           0       18.729835    0.567976    1.760913
    131          1           0       20.805803    0.385774    0.050223
    132          1           0       20.067369    3.051771   -0.663699
    133          1           0       21.438144    2.184922   -1.308303
    134          1           0       19.554193    1.911442   -1.895217
    135          1           0       21.126940    1.887985    2.551215
    136          1           0       22.284100    1.900489    1.271134
    137          1           0       20.745228    3.006883    1.207221
 ---------------------------------------------------------------------

 SCF Done:  E(RCAM-B3LYP) =  -2932.58192045     A.U. after   15 cycles

 Excitation energies and oscillator strengths:

 Excited State   1:      Singlet-A      2.1956 eV  564.68 nm  f=0.2663  <S**2>=0.000
     240 -> 243       -0.21003
     241 -> 242        0.64577
     241 -> 243        0.10952
 This state for optimization and/or second-order correction.
 Total Energy, E(TD-HF/TD-KS) =  -2932.50123235
 Copying the excited state density for this state as the 1-particle RhoCI density.

 The electronic state is 1-A.
 Alpha  occ. eigenvalues --  -46.85131 -19.27576 -19.24681 -19.22243 -19.21743
 Alpha  occ. eigenvalues --  -19.20569 -14.40128 -14.39858 -14.39420 -14.39093
 Alpha  occ. eigenvalues --  -10.39809 -10.38422 -10.36846 -10.32226 -10.31596
 Alpha  occ. eigenvalues --  -10.30021 -10.29984 -10.29812 -10.29749 -10.29685
 Alpha  occ. eigenvalues --  -10.29193 -10.28910 -10.28590 -10.28493 -10.28296
 Alpha  occ. eigenvalues --  -10.28275 -10.28127 -10.28123 -10.27904 -10.27768
 Alpha  occ. eigenvalues --  -10.27099 -10.26979 -10.26969 -10.26842 -10.26798
 Alpha  occ. eigenvalues --  -10.26795 -10.26751 -10.26525 -10.26500 -10.26463
 Alpha  occ. eigenvalues --  -10.26278 -10.26263 -10.26262 -10.26244 -10.26058
 Alpha  occ. eigenvalues --  -10.25757 -10.25708 -10.25697 -10.25614 -10.25514
 Alpha  occ. eigenvalues --  -10.25448 -10.25319 -10.25186 -10.25103 -10.25055
 Alpha  occ. eigenvalues --  -10.24993 -10.24983 -10.24911 -10.24767 -10.24644
 Alpha  occ. eigenvalues --  -10.24353 -10.24258 -10.24047 -10.23944 -10.22707
 Alpha  occ. eigenvalues --   -3.13972  -1.88698  -1.88188  -1.88152  -1.18541
 Alpha  occ. eigenvalues --   -1.17045  -1.12839  -1.10676  -1.06856  -1.05939
 Alpha  occ. eigenvalues --   -1.04815  -1.04128  -1.01101  -0.91786  -0.91376
 Alpha  occ. eigenvalues --   -0.90980  -0.90505  -0.89763  -0.89675  -0.89464
 Alpha  occ. eigenvalues --   -0.89033  -0.88352  -0.87972  -0.87439  -0.86256
 Alpha  occ. eigenvalues --   -0.85438  -0.84926  -0.84473  -0.83478  -0.82599
 Alpha  occ. eigenvalues --   -0.82018  -0.81142  -0.80355  -0.79914  -0.78831
 Alpha  occ. eigenvalues --   -0.77995  -0.76692  -0.76199  -0.75834  -0.75299
 Alpha  occ. eigenvalues --   -0.74984  -0.74879  -0.74089  -0.73054  -0.72235
 Alpha  occ. eigenvalues --   -0.71192  -0.70641  -0.69458  -0.69153  -0.68315
 Alpha  occ. eigenvalues --   -0.67171  -0.66744  -0.65947  -0.65084  -0.64608
 Alpha  occ. eigenvalues --   -0.64258  -0.63441  -0.62709  -0.62076  -0.61590
 Alpha  occ. eigenvalues --   -0.61540  -0.60935  -0.60349  -0.59265  -0.59148
 Alpha  occ. eigenvalues --   -0.58510  -0.58240  -0.57610  -0.57190  -0.56838
 Alpha  occ. eigenvalues --   -0.56419  -0.56147  -0.55600  -0.55238  -0.55135
 Alpha  occ. eigenvalues --   -0.55029  -0.54880  -0.54542  -0.54165  -0.53537
 Alpha  occ. eigenvalues --   -0.53161  -0.52574  -0.52159  -0.51917  -0.51798
 Alpha  occ. eigenvalues --   -0.51474  -0.51255  -0.51137  -0.50938  -0.50764
 Alpha  occ. eigenvalues --   -0.50654  -0.50473  -0.50160  -0.50025  -0.49958
 Alpha  occ. eigenvalues --   -0.49464  -0.49234  -0.49168  -0.48914  -0.48758
 Alpha  occ. eigenvalues --   -0.48375  -0.48061  -0.47539  -0.47328  -0.47203
 Alpha  occ. eigenvalues --   -0.46862  -0.46641  -0.46553  -0.46366  -0.46072
 Alpha  occ. eigenvalues --   -0.45816  -0.45670  -0.45509  -0.45414  -0.45148
 Alpha  occ. eigenvalues --   -0.44968  -0.44734  -0.44714  -0.44398  -0.44201
 Alpha  occ. eigenvalues --   -0.44070  -0.44039  -0.43834  -0.43426  -0.43282
 Alpha  occ. eigenvalues --   -0.43021  -0.42898  -0.42718  -0.42462  -0.42226
 Alpha  occ. eigenvalues --   -0.41978  -0.41810  -0.41666  -0.41577  -0.41320
 Alpha  occ. eigenvalues --   -0.41082  -0.41014  -0.40832  -0.40605  -0.40118
 Alpha  occ. eigenvalues --   -0.39810  -0.39674  -0.39394  -0.39334  -0.38973
 Alpha  occ. eigenvalues --   -0.38745  -0.38582  -0.38117  -0.38031  -0.37454
 Alpha  occ. eigenvalues --   -0.37309  -0.36917  -0.36629  -0.36585  -0.36173
 Alpha  occ. eigenvalues --   -0.35985  -0.35689  -0.35384  -0.35332  -0.34916
 Alpha  occ. eigenvalues --   -0.34874  -0.34513  -0.34320  -0.34121  -0.33170
 Alpha  occ. eigenvalues --   -0.33102  -0.32647  -0.32420  -0.31531  -0.30905
 Alpha  occ. eigenvalues --   -0.30359  -0.29576  -0.27875  -0.27030  -0.23217
 Alpha  occ. eigenvalues --   -0.21357
 Alpha virt. eigenvalues --   -0.05867  -0.03414   0.02190   0.03826   0.05477
 Alpha virt. eigenvalues --    0.05816   0.07014   0.07311   0.07815   0.07881
 Alpha virt. eigenvalues --    0.08557   0.10896   0.11196   0.11578   0.11788

 Mulliken charges:
               1
     1  Mg   0.827211
     2  C    0.112141
     3  C   -0.224156
     4  C   -0.165207
     5  C   -0.188587
     6  N   -0.658935
     7  C    0.308068
     8  C   -0.099927
     9  C   -0.125553
    10  C    0.320283
    11  C   -0.307824
    12  C   -0.177195
    13  C   -0.288093
    14  C    0.606110
    15  O   -0.423251
    16  O   -0.510790
    17  N   -0.714847
    18  C    0.306952
    19  C    0.017920
    20  C    0.091162
    21  C    0.292893
    22  C   -0.366615
    23  C   -0.132440
    24  C   -0.243905
    25  N   -0.658513
    26  C    0.212539
    27  C    0.089145
    28  C   -0.027929
    29  C    0.304190
    30  C   -0.392619
    31  C   -0.243009
    32  C   -0.282732
    33  N   -0.718920
    34  C    0.289951
    35  C   -0.009809
    36  C   -0.006893
    37  C    0.326510
    38  C   -0.379975
    39  C    0.405171
    40  O   -0.431945
    41  C   -0.362338
    42  C    0.603510
    43  O   -0.499026
    44  O   -0.449949
    45  C   -0.079277
    46  C    0.028736
    47  C   -0.104233
    48  C    0.085235
    49  C   -0.351659
    50  C   -0.206315
    51  C   -0.169987
    52  C   -0.174120
    53  C   -0.063666
    54  C   -0.282443
    55  C   -0.156484
    56  C   -0.204926
    57  C   -0.171938
    58  C   -0.050241
    59  C   -0.323427
    60  C   -0.155595
    61  C   -0.157593
    62  C   -0.140388
    63  C   -0.088960
    64  C   -0.293753
    65  C   -0.312185
    66  H    0.072716
    67  H    0.088489
    68  H    0.094931
    69  H    0.120502
    70  H    0.108042
    71  H    0.095719
    72  H    0.100172
    73  H    0.134075
    74  H    0.119642
    75  H    0.119856
    76  H    0.144440
    77  H    0.110732
    78  H    0.101306
    79  H    0.101182
    80  H    0.115490
    81  H    0.107569
    82  H    0.091536
    83  H    0.113111
    84  H    0.124021
    85  H    0.090979
    86  H    0.135933
    87  H    0.098252
    88  H    0.098044
    89  H    0.079614
    90  H    0.119442
    91  H    0.090735
    92  H    0.146437
    93  H    0.149049
    94  H    0.123911
    95  H    0.156043
    96  H    0.140046
    97  H    0.150290
    98  H    0.119281
    99  H    0.109343
   100  H    0.096408
   101  H    0.075657
   102  H    0.110611
   103  H    0.123757
   104  H    0.118526
   105  H    0.089712
   106  H    0.103316
   107  H    0.096138
   108  H    0.102189
   109  H    0.090311
   110  H    0.066850
   111  H    0.093499
   112  H    0.092602
   113  H    0.073253
   114  H    0.083234
   115  H    0.093770
   116  H    0.092019
   117  H    0.099737
   118  H    0.085596
   119  H    0.087616
   120  H    0.077490
   121  H    0.097440
   122  H    0.095153
   123  H    0.108567
   124  H    0.091181
   125  H    0.080242
   126  H    0.050266
   127  H    0.114613
   128  H    0.057954
   129  H    0.071616
   130  H    0.093752
   131  H    0.070203
   132  H    0.105997
   133  H    0.111261
   134  H    0.083405
   135  H    0.095308
   136  H    0.095966
   137  H    0.104298
 Sum of Mulliken charges =   0.00000

 Dipole moment (field-independent basis, Debye):
    X=              0.7517    Y=              2.5246    Z=              0.6567  Tot=              2.7148
 Quadrupole moment (field-independent basis, Debye-Ang):
   XX=           -344.1516   YY=           -388.2712   ZZ=           -397.1323
   XY=             -5.1516   XZ=              1.0645   YZ=             -5.9443

 Normal termination of Gaussian 09 at Tue Jul  2 14:20:02 2019.
