 Gaussian 09, Revision D.01,
 Gaussian 09:  ES64L-G09RevD.01 24-Apr-2013

 -------------------------------------
 # td=(NStates=1) CAM-B3LYP/6-31G(d,p)
 -------------------------------------

 --
 TD
 --
 Symbolic Z-matrix:
 Charge =  0 Multiplicity = 1

                         Standard orientation:
 ---------------------------------------------------------------------
 Center     Atomic      Atomic             Coordinates (Angstroms)
 Number     Number       Type             X           Y           Z
 ---------------------------------------------------------------------
      1         12           0       -7.190129    0.586594    0.199000
      2          6           0       -4.767773   -1.992820    0.522660
      3          6           0       -4.888220    2.770593    1.136660
      4          6           0       -9.496754    3.068088   -0.325587
      5          6           0       -9.569267   -1.698253   -0.936428
      6          7           0       -5.152165    0.364676    0.671032
      7          6           0       -4.300444   -0.768112    0.813574
      8          6           0       -2.903211   -0.394187    1.253920
      9          6           0       -3.037849    0.983417    1.667840
     10          6           0       -4.481460    1.463103    1.152144
     11          6           0       -2.893782    1.176673    3.180316
     12          6           0       -1.896889   -0.592834    0.030575
     13          6           0       -0.420874   -0.354089    0.440913
     14          6           0        0.497620   -0.595837   -0.720612
     15          8           0        0.338505   -0.932401   -1.841845
     16          8           0        1.793156   -0.249626   -0.201195
     17          7           0       -7.177652    2.588443    0.399177
     18          6           0       -6.050401    3.280024    0.740111
     19          6           0       -6.372972    4.783677    0.644610
     20          6           0       -7.723937    4.853243    0.296428
     21          6           0       -8.185003    3.476067    0.178335
     22          6           0       -5.467568    5.800128    1.084042
     23          6           0       -8.661324    6.028943    0.150881
     24          6           0       -8.467294    7.220996    0.894654
     25          7           0       -9.103094    0.626789   -0.463680
     26          6           0       -9.867643    1.762075   -0.584485
     27          6           0      -11.199803    1.453668   -1.113917
     28          6           0      -11.255495    0.141102   -1.340085
     29          6           0       -9.961215   -0.380674   -0.894056
     30          6           0      -12.319086    2.462044   -1.379049
     31          6           0      -12.373914   -0.772465   -1.840050
     32          6           0      -12.145173   -1.221623   -3.285906
     33          7           0       -7.221307   -1.372818   -0.172762
     34          6           0       -8.223726   -2.279163   -0.544803
     35          6           0       -7.805853   -3.528828   -0.511396
     36          6           0       -6.498227   -3.584249   -0.078096
     37          6           0       -6.117370   -2.181558    0.071542
     38          6           0       -8.645621   -4.748842   -0.829500
     39          6           0       -5.382284   -4.406280    0.278436
     40          8           0       -5.229545   -5.622542    0.395732
     41          6           0       -4.192791   -3.415402    0.631376
     42          6           0       -3.532978   -3.557328    1.890417
     43          8           0       -3.678325   -3.014960    2.993584
     44          8           0       -2.783566   -4.716450    1.877609
     45          6           0       -2.252528   -5.021772    3.131361
     46          6           0        2.711306   -0.562200   -1.304524
     47          6           0        4.054995   -0.309140   -0.544796
     48          6           0        5.126956    0.338482   -1.078102
     49          6           0        5.047974    1.145802   -2.287460
     50          6           0        6.475315    0.313204   -0.269773
     51          6           0        7.640333   -0.267055   -1.033610
     52          6           0        8.895957   -0.255440   -0.192930
     53          6           0       10.163356   -0.430113   -1.003573
     54          6           0       10.235370   -1.956873   -1.478962
     55          6           0       11.395987   -0.181217   -0.144537
     56          6           0       12.780530   -0.557179   -0.701496
     57          6           0       13.945998    0.065989    0.012152
     58          6           0       15.398997   -0.314995   -0.524358
     59          6           0       15.614640   -1.836705   -0.786239
     60          6           0       16.435629    0.385452    0.310714
     61          6           0       17.747473    0.545883   -0.154671
     62          6           0       18.873760    1.285651    0.745637
     63          6           0       20.371209    1.391007    0.352736
     64          6           0       20.385335    2.223720   -0.912491
     65          6           0       21.203687    1.820330    1.490066
     66          1           0       -4.292515    3.609116    1.878453
     67          1           0      -10.285521    3.844872   -0.464601
     68          1           0      -10.161298   -2.344544   -1.306632
     69          1           0       -2.586972   -1.194797    2.144397
     70          1           0       -2.304148    1.531965    1.070827
     71          1           0       -1.964980    0.914763    3.608459
     72          1           0       -2.985004    2.167561    3.406042
     73          1           0       -3.566748    0.448531    3.719466
     74          1           0       -2.052907   -1.711486   -0.300241
     75          1           0       -2.366831   -0.087749   -0.855303
     76          1           0       -0.314824    0.755080    0.594448
     77          1           0       -0.053043   -0.841734    1.310910
     78          1           0       -5.660810    6.786275    0.734976
     79          1           0       -5.618788    5.834071    2.102526
     80          1           0       -4.289870    5.858589    0.983344
     81          1           0       -9.315137    5.995733   -0.619709
     82          1           0       -9.032132    7.935496    0.731575
     83          1           0       -7.784087    7.367386    1.661719
     84          1           0      -11.979077    3.094563   -2.106957
     85          1           0      -13.367212    2.136609   -1.928185
     86          1           0      -12.581660    3.007504   -0.342494
     87          1           0      -12.449546   -1.640763   -1.191760
     88          1           0      -13.354645   -0.127672   -1.744173
     89          1           0      -13.202694   -1.570561   -3.755691
     90          1           0      -12.191576   -0.261522   -3.721767
     91          1           0      -11.464974   -1.977942   -3.553656
     92          1           0       -8.963484   -4.655745   -1.846886
     93          1           0       -8.179505   -5.810800   -0.536947
     94          1           0       -9.519460   -4.766780   -0.382712
     95          1           0       -3.399014   -3.484054   -0.132457
     96          1           0       -1.599636   -4.168449    3.560837
     97          1           0       -3.012213   -5.452718    3.798317
     98          1           0       -1.466596   -5.943673    2.809148
     99          1           0        2.741045   -1.634046   -1.546867
    100          1           0        2.417481   -0.179188   -2.192635
    101          1           0        4.139705   -0.955664    0.258332
    102          1           0        3.994568    1.268203   -2.599130
    103          1           0        5.617192    2.048350   -2.174594
    104          1           0        5.752053    0.565802   -2.846926
    105          1           0        6.747571    1.432581    0.094333
    106          1           0        6.214455   -0.145923    0.637668
    107          1           0        7.406294   -1.383760   -1.372419
    108          1           0        7.937728    0.328647   -1.982618
    109          1           0        8.880601    0.676258    0.003720
    110          1           0        8.775047   -0.804014    0.614357
    111          1           0       10.165860    0.251158   -1.776198
    112          1           0        9.434798   -2.364309   -2.033852
    113          1           0       11.207605   -2.068250   -1.895893
    114          1           0       10.263441   -2.777361   -0.539979
    115          1           0       11.285652    0.882886    0.158524
    116          1           0       11.366050   -0.658537    0.966637
    117          1           0       12.677433   -1.650932   -0.812323
    118          1           0       12.955372   -0.046558   -1.582091
    119          1           0       13.852619    1.191755    0.020973
    120          1           0       13.897734   -0.358401    1.199039
    121          1           0       15.401072    0.415222   -1.366297
    122          1           0       15.634930   -2.490712    0.113934
    123          1           0       14.879899   -2.256348   -1.713804
    124          1           0       16.759590   -1.723589   -1.004603
    125          1           0       16.116526    1.376431    0.486263
    126          1           0       16.526034   -0.232003    1.252132
    127          1           0       18.460653   -0.461236   -0.274987
    128          1           0       17.595103    1.186735   -1.264045
    129          1           0       18.419773    2.461106    1.117550
    130          1           0       18.931732    0.835739    1.809532
    131          1           0       20.679284    0.310288    0.251973
    132          1           0       19.922489    3.171409   -0.807245
    133          1           0       21.339205    2.553309   -1.422471
    134          1           0       19.928403    1.567613   -1.761018
    135          1           0       21.211670    1.239654    2.515093
    136          1           0       22.340090    1.753470    1.276701
    137          1           0       20.967254    2.781379    1.848867
 ---------------------------------------------------------------------

 SCF Done:  E(RCAM-B3LYP) =  -2932.56332336     A.U. after   18 cycles

 Excitation energies and oscillator strengths:

 Excited State   1:      Singlet-A      2.0282 eV  611.31 nm  f=0.3029  <S**2>=0.000
     240 -> 243       -0.17732
     241 -> 242        0.67474
 This state for optimization and/or second-order correction.
 Total Energy, E(TD-HF/TD-KS) =  -2932.48878918
 Copying the excited state density for this state as the 1-particle RhoCI density.

 The electronic state is 1-A.
 Alpha  occ. eigenvalues --  -46.83745 -19.24835 -19.24645 -19.22879 -19.20579
 Alpha  occ. eigenvalues --  -19.19097 -14.42628 -14.40479 -14.39954 -14.38692
 Alpha  occ. eigenvalues --  -10.39325 -10.38591 -10.34679 -10.32344 -10.31455
 Alpha  occ. eigenvalues --  -10.31452 -10.31219 -10.30325 -10.29885 -10.29822
 Alpha  occ. eigenvalues --  -10.29158 -10.28950 -10.28879 -10.28550 -10.28509
 Alpha  occ. eigenvalues --  -10.28478 -10.28355 -10.28355 -10.28268 -10.28144
 Alpha  occ. eigenvalues --  -10.28024 -10.27835 -10.27705 -10.27656 -10.27611
 Alpha  occ. eigenvalues --  -10.27571 -10.27556 -10.27396 -10.27035 -10.26982
 Alpha  occ. eigenvalues --  -10.26750 -10.26738 -10.26712 -10.26666 -10.26649
 Alpha  occ. eigenvalues --  -10.26622 -10.26569 -10.26399 -10.26318 -10.26087
 Alpha  occ. eigenvalues --  -10.25887 -10.25646 -10.25624 -10.25551 -10.25249
 Alpha  occ. eigenvalues --  -10.25048 -10.24963 -10.24910 -10.24497 -10.24467
 Alpha  occ. eigenvalues --  -10.24394 -10.24383 -10.24202 -10.24046 -10.21744
 Alpha  occ. eigenvalues --   -3.13000  -1.87684  -1.87255  -1.87188  -1.17876
 Alpha  occ. eigenvalues --   -1.17491  -1.09077  -1.09039  -1.07449  -1.04725
 Alpha  occ. eigenvalues --   -1.03300  -1.03097  -1.01656  -0.92458  -0.91637
 Alpha  occ. eigenvalues --   -0.91024  -0.90526  -0.89871  -0.89589  -0.89382
 Alpha  occ. eigenvalues --   -0.88960  -0.88765  -0.87606  -0.86847  -0.86457
 Alpha  occ. eigenvalues --   -0.86012  -0.85189  -0.83694  -0.83510  -0.82869
 Alpha  occ. eigenvalues --   -0.81877  -0.81132  -0.80392  -0.79700  -0.79255
 Alpha  occ. eigenvalues --   -0.78304  -0.77537  -0.76319  -0.76264  -0.75664
 Alpha  occ. eigenvalues --   -0.74640  -0.74478  -0.74090  -0.73599  -0.72867
 Alpha  occ. eigenvalues --   -0.71528  -0.70816  -0.70253  -0.69561  -0.69347
 Alpha  occ. eigenvalues --   -0.67886  -0.65974  -0.65736  -0.64874  -0.64193
 Alpha  occ. eigenvalues --   -0.63795  -0.63123  -0.62781  -0.61994  -0.61535
 Alpha  occ. eigenvalues --   -0.60983  -0.60766  -0.60541  -0.60065  -0.59538
 Alpha  occ. eigenvalues --   -0.58923  -0.57949  -0.57638  -0.57392  -0.56486
 Alpha  occ. eigenvalues --   -0.56084  -0.55821  -0.55572  -0.55297  -0.55072
 Alpha  occ. eigenvalues --   -0.54793  -0.54163  -0.53856  -0.53702  -0.53624
 Alpha  occ. eigenvalues --   -0.53376  -0.52982  -0.52791  -0.52692  -0.52471
 Alpha  occ. eigenvalues --   -0.51944  -0.51605  -0.51211  -0.50929  -0.50713
 Alpha  occ. eigenvalues --   -0.50559  -0.50355  -0.50284  -0.50183  -0.49473
 Alpha  occ. eigenvalues --   -0.49248  -0.49098  -0.49028  -0.48629  -0.48330
 Alpha  occ. eigenvalues --   -0.47852  -0.47765  -0.47633  -0.47511  -0.47220
 Alpha  occ. eigenvalues --   -0.47162  -0.47031  -0.46701  -0.46399  -0.46303
 Alpha  occ. eigenvalues --   -0.45958  -0.45495  -0.45439  -0.45346  -0.45187
 Alpha  occ. eigenvalues --   -0.45024  -0.44947  -0.44615  -0.44446  -0.44081
 Alpha  occ. eigenvalues --   -0.43879  -0.43706  -0.43509  -0.43381  -0.43336
 Alpha  occ. eigenvalues --   -0.43202  -0.42923  -0.42763  -0.42695  -0.42169
 Alpha  occ. eigenvalues --   -0.42086  -0.42018  -0.41926  -0.41496  -0.41213
 Alpha  occ. eigenvalues --   -0.41202  -0.40846  -0.40750  -0.40313  -0.40146
 Alpha  occ. eigenvalues --   -0.39798  -0.39530  -0.39358  -0.39068  -0.38719
 Alpha  occ. eigenvalues --   -0.38617  -0.38310  -0.38183  -0.38047  -0.37949
 Alpha  occ. eigenvalues --   -0.37349  -0.37140  -0.36856  -0.36522  -0.36483
 Alpha  occ. eigenvalues --   -0.36441  -0.35862  -0.35299  -0.35121  -0.34950
 Alpha  occ. eigenvalues --   -0.34888  -0.34711  -0.34502  -0.34209  -0.33897
 Alpha  occ. eigenvalues --   -0.33216  -0.32939  -0.31880  -0.31721  -0.30078
 Alpha  occ. eigenvalues --   -0.29515  -0.28557  -0.28355  -0.28128  -0.23627
 Alpha  occ. eigenvalues --   -0.21636
 Alpha virt. eigenvalues --   -0.07499  -0.01970   0.01232   0.02758   0.04733
 Alpha virt. eigenvalues --    0.05754   0.05892   0.06407   0.07075   0.07927
 Alpha virt. eigenvalues --    0.08182   0.09872   0.10574   0.11185   0.11193

 Mulliken charges:
               1
     1  Mg   0.810370
     2  C    0.058790
     3  C   -0.211231
     4  C   -0.212336
     5  C   -0.136260
     6  N   -0.635853
     7  C    0.285218
     8  C   -0.154263
     9  C   -0.125643
    10  C    0.342684
    11  C   -0.313679
    12  C   -0.193076
    13  C   -0.260782
    14  C    0.619041
    15  O   -0.443519
    16  O   -0.515543
    17  N   -0.712643
    18  C    0.339713
    19  C    0.036740
    20  C    0.000432
    21  C    0.305279
    22  C   -0.420672
    23  C   -0.096146
    24  C   -0.203846
    25  N   -0.694782
    26  C    0.351989
    27  C   -0.006225
    28  C    0.079704
    29  C    0.282239
    30  C   -0.369280
    31  C   -0.248604
    32  C   -0.299170
    33  N   -0.721283
    34  C    0.255140
    35  C    0.012884
    36  C    0.032411
    37  C    0.240333
    38  C   -0.369370
    39  C    0.355099
    40  O   -0.473781
    41  C   -0.308941
    42  C    0.628126
    43  O   -0.497796
    44  O   -0.440534
    45  C   -0.060255
    46  C   -0.006069
    47  C   -0.139520
    48  C    0.101885
    49  C   -0.348028
    50  C   -0.216461
    51  C   -0.189218
    52  C   -0.127733
    53  C   -0.060326
    54  C   -0.318210
    55  C   -0.175528
    56  C   -0.166360
    57  C   -0.171577
    58  C   -0.049471
    59  C   -0.306484
    60  C   -0.148717
    61  C   -0.142620
    62  C   -0.155271
    63  C   -0.040718
    64  C   -0.301304
    65  C   -0.314577
    66  H    0.086052
    67  H    0.092343
    68  H    0.047486
    69  H    0.118458
    70  H    0.104640
    71  H    0.115866
    72  H    0.108557
    73  H    0.129031
    74  H    0.096068
    75  H    0.126241
    76  H    0.148059
    77  H    0.157165
    78  H    0.131364
    79  H    0.147637
    80  H    0.113634
    81  H    0.107936
    82  H    0.098040
    83  H    0.107794
    84  H    0.140210
    85  H    0.097758
    86  H    0.111789
    87  H    0.116322
    88  H    0.098183
    89  H    0.075974
    90  H    0.124025
    91  H    0.129295
    92  H    0.114959
    93  H    0.129166
    94  H    0.127971
    95  H    0.170550
    96  H    0.112403
    97  H    0.133415
    98  H    0.081626
    99  H    0.117180
   100  H    0.132443
   101  H    0.089043
   102  H    0.114599
   103  H    0.114152
   104  H    0.127050
   105  H    0.073914
   106  H    0.110448
   107  H    0.080239
   108  H    0.079848
   109  H    0.094325
   110  H    0.100977
   111  H    0.092091
   112  H    0.109019
   113  H    0.108166
   114  H    0.063658
   115  H    0.076469
   116  H    0.067117
   117  H    0.108204
   118  H    0.096711
   119  H    0.085910
   120  H    0.037458
   121  H    0.078989
   122  H    0.114980
   123  H    0.095177
   124  H    0.099620
   125  H    0.104960
   126  H    0.082593
   127  H    0.065827
   128  H    0.048528
   129  H    0.024782
   130  H    0.081685
   131  H    0.090615
   132  H    0.114621
   133  H    0.086854
   134  H    0.102737
   135  H    0.088493
   136  H    0.094768
   137  H    0.111360
 Sum of Mulliken charges =   0.00000

 Dipole moment (field-independent basis, Debye):
    X=             -0.6208    Y=              8.2000    Z=             -0.0175  Tot=              8.2235
 Quadrupole moment (field-independent basis, Debye-Ang):
   XX=           -322.7293   YY=           -395.6127   ZZ=           -397.6588
   XY=            -43.1601   XZ=             14.5756   YZ=              3.9699

 Normal termination of Gaussian 09 at Sun Jul  7 01:04:34 2019.
