 Gaussian 09, Revision D.01,
 Gaussian 09:  ES64L-G09RevD.01 24-Apr-2013

 -------------------------------------
 # td=(NStates=1) CAM-B3LYP/6-31G(d,p)
 -------------------------------------

 --
 TD
 --
 Symbolic Z-matrix:
 Charge =  0 Multiplicity = 1

                         Standard orientation:
 ---------------------------------------------------------------------
 Center     Atomic      Atomic             Coordinates (Angstroms)
 Number     Number       Type             X           Y           Z
 ---------------------------------------------------------------------
      1         12           0       -7.172101    0.640725   -0.053286
      2          6           0       -4.804730   -1.985330    0.499403
      3          6           0       -4.817244    2.908219    1.256647
      4          6           0       -9.448496    3.085344   -0.377797
      5          6           0       -9.554638   -1.733205   -0.776559
      6          7           0       -5.070189    0.546148    0.757954
      7          6           0       -4.429692   -0.635427    0.776984
      8          6           0       -2.938928   -0.343062    1.192819
      9          6           0       -3.102693    1.088271    1.747910
     10          6           0       -4.359578    1.575247    1.159325
     11          6           0       -2.970674    1.274871    3.351163
     12          6           0       -1.885723   -0.568166   -0.007823
     13          6           0       -0.455678   -0.459786    0.594838
     14          6           0        0.488258   -0.681787   -0.528587
     15          8           0        0.234627   -1.071725   -1.676003
     16          8           0        1.857956   -0.420286   -0.148158
     17          7           0       -7.097199    2.566060    0.279835
     18          6           0       -6.090989    3.322820    0.729995
     19          6           0       -6.419640    4.671090    0.810104
     20          6           0       -7.768542    4.835236    0.381891
     21          6           0       -8.204578    3.411586    0.054409
     22          6           0       -5.436374    5.837741    1.062815
     23          6           0       -8.523311    5.979935    0.098525
     24          6           0       -8.452848    7.196264    0.709515
     25          7           0       -9.112093    0.638557   -0.552490
     26          6           0       -9.804171    1.811717   -0.658777
     27          6           0      -11.176247    1.419074   -1.153364
     28          6           0      -11.223891    0.042506   -1.202727
     29          6           0       -9.925566   -0.426499   -0.802603
     30          6           0      -12.231627    2.422113   -1.388053
     31          6           0      -12.302987   -0.706383   -1.668417
     32          6           0      -12.410204   -1.168118   -3.169887
     33          7           0       -7.266181   -1.357732   -0.214126
     34          6           0       -8.219624   -2.254843   -0.556719
     35          6           0       -7.783295   -3.634088   -0.568926
     36          6           0       -6.412907   -3.523067   -0.084967
     37          6           0       -6.094028   -2.185185    0.063752
     38          6           0       -8.567228   -4.956994   -0.841955
     39          6           0       -5.305280   -4.439188    0.170139
     40          8           0       -5.109859   -5.617067    0.109077
     41          6           0       -4.178137   -3.332037    0.567563
     42          6           0       -3.595486   -3.628195    1.941173
     43          8           0       -3.764371   -3.152750    2.989066
     44          8           0       -2.716897   -4.725820    1.743895
     45          6           0       -2.056214   -5.338265    2.882694
     46          6           0        2.767319   -0.652795   -1.188461
     47          6           0        4.089191   -0.398042   -0.477235
     48          6           0        4.993132    0.439490   -0.865355
     49          6           0        5.014524    1.394318   -2.172428
     50          6           0        6.416879    0.472709   -0.224659
     51          6           0        7.612301   -0.002245   -0.959506
     52          6           0        8.901507    0.071436   -0.191758
     53          6           0       10.204095   -0.443536   -0.984933
     54          6           0       10.145054   -1.913184   -1.332697
     55          6           0       11.385658   -0.112254   -0.160069
     56          6           0       12.786682   -0.471786   -0.729476
     57          6           0       13.853701   -0.241805    0.132495
     58          6           0       15.335656   -0.297353   -0.448737
     59          6           0       15.827629   -1.672241   -0.906946
     60          6           0       16.297413    0.387178    0.478519
     61          6           0       17.726865    0.634825   -0.123234
     62          6           0       18.789972    1.338700    0.847994
     63          6           0       20.275620    1.227232    0.287847
     64          6           0       20.397404    1.872146   -1.169853
     65          6           0       21.186518    1.935520    1.274622
     66          1           0       -4.188555    3.792911    1.617715
     67          1           0      -10.272066    3.927510   -0.382704
     68          1           0      -10.446175   -2.373733   -0.976421
     69          1           0       -2.596529   -0.890794    1.964666
     70          1           0       -2.288213    1.657051    1.309781
     71          1           0       -1.954757    1.088003    3.620699
     72          1           0       -3.081779    2.467517    3.499573
     73          1           0       -3.582621    0.455417    3.629527
     74          1           0       -2.169115   -1.456544   -0.513522
     75          1           0       -1.981316    0.103302   -0.832782
     76          1           0       -0.371496    0.489846    1.075809
     77          1           0       -0.339895   -1.354825    1.290441
     78          1           0       -5.583949    6.762456    0.314614
     79          1           0       -5.805785    6.102522    2.158336
     80          1           0       -4.300478    5.394080    1.074398
     81          1           0       -9.201221    5.988411   -0.806792
     82          1           0       -9.080237    7.947907    0.417057
     83          1           0       -7.712059    7.346367    1.477861
     84          1           0      -11.800528    3.106703   -2.253778
     85          1           0      -13.175718    1.869913   -1.586796
     86          1           0      -12.596950    2.957927   -0.450275
     87          1           0      -12.406421   -1.729184   -1.151108
     88          1           0      -13.327046   -0.318970   -1.409820
     89          1           0      -13.311805   -1.793655   -3.351153
     90          1           0      -12.557807   -0.343349   -3.783827
     91          1           0      -11.559774   -1.680405   -3.473707
     92          1           0       -8.825064   -4.971760   -1.789659
     93          1           0       -7.949726   -5.744880   -0.561533
     94          1           0       -9.439235   -5.022385   -0.190082
     95          1           0       -3.178719   -3.109703   -0.186244
     96          1           0       -1.677255   -4.682386    3.484892
     97          1           0       -2.804594   -5.634990    3.542909
     98          1           0       -1.512172   -6.273741    2.501388
     99          1           0        2.758199   -1.599726   -1.634238
    100          1           0        2.815046   -0.021879   -2.203795
    101          1           0        4.139965   -1.032902    0.431116
    102          1           0        4.016843    1.567894   -2.628130
    103          1           0        5.258309    2.363009   -1.850578
    104          1           0        5.546505    0.787443   -2.915282
    105          1           0        6.651710    1.496464    0.125991
    106          1           0        6.258333   -0.220571    0.676841
    107          1           0        7.274272   -0.989816   -1.231131
    108          1           0        7.772540    0.419098   -1.933387
    109          1           0        9.102024    1.058908    0.243417
    110          1           0        8.801658   -0.497991    0.779196
    111          1           0       10.121080   -0.077556   -1.886825
    112          1           0        9.182290   -2.029860   -1.819453
    113          1           0       10.961148   -2.130879   -2.025372
    114          1           0       10.371515   -2.580639   -0.430139
    115          1           0       11.207537    1.040000    0.047958
    116          1           0       11.307564   -0.566232    0.883062
    117          1           0       12.730327   -1.644645   -1.088214
    118          1           0       12.881829    0.236778   -1.787473
    119          1           0       13.675486    0.929294    0.576412
    120          1           0       13.990288   -0.835823    1.093046
    121          1           0       15.582599    0.374087   -1.381976
    122          1           0       15.863683   -2.298100   -0.002356
    123          1           0       15.110113   -2.194319   -1.544885
    124          1           0       16.698117   -1.736559   -1.216766
    125          1           0       15.803081    1.263318    0.934823
    126          1           0       16.503693   -0.487836    1.254785
    127          1           0       18.273104   -0.507318   -0.350995
    128          1           0       17.626406    1.046419   -1.137769
    129          1           0       18.576340    2.324200    0.999780
    130          1           0       18.598459    0.818565    1.821672
    131          1           0       20.572380    0.113711    0.397474
    132          1           0       19.894343    2.857937   -1.039159
    133          1           0       21.343835    1.593666   -1.533579
    134          1           0       19.756490    1.411329   -1.841785
    135          1           0       21.145408    1.430627    2.249501
    136          1           0       22.306754    1.968524    0.951256
    137          1           0       21.208206    3.031760    1.231924
 ---------------------------------------------------------------------

 SCF Done:  E(RCAM-B3LYP) =  -2932.64200521     A.U. after   18 cycles

 Excitation energies and oscillator strengths:

 Excited State   1:      Singlet-A      1.9627 eV  631.72 nm  f=0.2966  <S**2>=0.000
     240 -> 243       -0.23011
     241 -> 242        0.66099
 This state for optimization and/or second-order correction.
 Total Energy, E(TD-HF/TD-KS) =  -2932.56987880
 Copying the excited state density for this state as the 1-particle RhoCI density.

 The electronic state is 1-A.
 Alpha  occ. eigenvalues --  -46.83703 -19.26100 -19.23525 -19.22555 -19.22024
 Alpha  occ. eigenvalues --  -19.21485 -14.42133 -14.39951 -14.39458 -14.39258
 Alpha  occ. eigenvalues --  -10.40413 -10.39084 -10.36009 -10.31185 -10.30832
 Alpha  occ. eigenvalues --  -10.30762 -10.30392 -10.29963 -10.29909 -10.29811
 Alpha  occ. eigenvalues --  -10.29508 -10.29326 -10.29117 -10.29057 -10.28514
 Alpha  occ. eigenvalues --  -10.28463 -10.28422 -10.27647 -10.27588 -10.27541
 Alpha  occ. eigenvalues --  -10.27487 -10.27442 -10.27405 -10.27373 -10.27331
 Alpha  occ. eigenvalues --  -10.27242 -10.27060 -10.27022 -10.26934 -10.26856
 Alpha  occ. eigenvalues --  -10.26812 -10.26750 -10.26724 -10.26704 -10.26356
 Alpha  occ. eigenvalues --  -10.26291 -10.26183 -10.25946 -10.25901 -10.25702
 Alpha  occ. eigenvalues --  -10.25672 -10.25628 -10.25542 -10.25374 -10.25289
 Alpha  occ. eigenvalues --  -10.24952 -10.24864 -10.24626 -10.24614 -10.24535
 Alpha  occ. eigenvalues --  -10.24439 -10.24307 -10.24178 -10.24079 -10.22480
 Alpha  occ. eigenvalues --   -3.12965  -1.87645  -1.87256  -1.87114  -1.17718
 Alpha  occ. eigenvalues --   -1.16515  -1.12683  -1.08995  -1.08567  -1.05639
 Alpha  occ. eigenvalues --   -1.03963  -1.03130  -1.01772  -0.93470  -0.91230
 Alpha  occ. eigenvalues --   -0.90327  -0.90235  -0.89886  -0.89414  -0.88890
 Alpha  occ. eigenvalues --   -0.88871  -0.87525  -0.87457  -0.86207  -0.85735
 Alpha  occ. eigenvalues --   -0.85261  -0.84097  -0.83447  -0.83314  -0.83098
 Alpha  occ. eigenvalues --   -0.81476  -0.80679  -0.80228  -0.79809  -0.78130
 Alpha  occ. eigenvalues --   -0.77781  -0.77082  -0.76262  -0.76229  -0.75911
 Alpha  occ. eigenvalues --   -0.75661  -0.74969  -0.74658  -0.73307  -0.72688
 Alpha  occ. eigenvalues --   -0.71931  -0.71071  -0.70505  -0.69159  -0.68641
 Alpha  occ. eigenvalues --   -0.67989  -0.66173  -0.66026  -0.64955  -0.64322
 Alpha  occ. eigenvalues --   -0.64277  -0.63773  -0.62582  -0.62078  -0.62015
 Alpha  occ. eigenvalues --   -0.61343  -0.60622  -0.60331  -0.59573  -0.58763
 Alpha  occ. eigenvalues --   -0.58593  -0.58040  -0.57492  -0.56710  -0.56578
 Alpha  occ. eigenvalues --   -0.56214  -0.55650  -0.54860  -0.54645  -0.54374
 Alpha  occ. eigenvalues --   -0.54063  -0.53661  -0.53586  -0.53370  -0.53213
 Alpha  occ. eigenvalues --   -0.53042  -0.52742  -0.52474  -0.52217  -0.51629
 Alpha  occ. eigenvalues --   -0.51376  -0.51281  -0.51017  -0.50972  -0.50642
 Alpha  occ. eigenvalues --   -0.50598  -0.50487  -0.50192  -0.49976  -0.49802
 Alpha  occ. eigenvalues --   -0.49696  -0.49478  -0.49219  -0.49011  -0.48703
 Alpha  occ. eigenvalues --   -0.48345  -0.48283  -0.48128  -0.47890  -0.47498
 Alpha  occ. eigenvalues --   -0.47415  -0.46934  -0.46874  -0.46584  -0.46292
 Alpha  occ. eigenvalues --   -0.45977  -0.45792  -0.45644  -0.45442  -0.45386
 Alpha  occ. eigenvalues --   -0.45129  -0.44936  -0.44843  -0.44476  -0.44307
 Alpha  occ. eigenvalues --   -0.43977  -0.43756  -0.43649  -0.43553  -0.43385
 Alpha  occ. eigenvalues --   -0.43144  -0.43062  -0.42876  -0.42492  -0.42156
 Alpha  occ. eigenvalues --   -0.42098  -0.41996  -0.41889  -0.41699  -0.41464
 Alpha  occ. eigenvalues --   -0.41315  -0.41162  -0.40873  -0.40446  -0.40436
 Alpha  occ. eigenvalues --   -0.40095  -0.39913  -0.39835  -0.39227  -0.39000
 Alpha  occ. eigenvalues --   -0.38858  -0.38311  -0.38025  -0.37857  -0.37610
 Alpha  occ. eigenvalues --   -0.37271  -0.37194  -0.36980  -0.36430  -0.36223
 Alpha  occ. eigenvalues --   -0.35681  -0.35373  -0.35255  -0.35112  -0.34939
 Alpha  occ. eigenvalues --   -0.34610  -0.34429  -0.34421  -0.34301  -0.34009
 Alpha  occ. eigenvalues --   -0.33404  -0.32972  -0.32346  -0.30945  -0.30587
 Alpha  occ. eigenvalues --   -0.30314  -0.29026  -0.28083  -0.27319  -0.23391
 Alpha  occ. eigenvalues --   -0.21045
 Alpha virt. eigenvalues --   -0.07098  -0.03140   0.00706   0.03628   0.04115
 Alpha virt. eigenvalues --    0.05386   0.05885   0.07238   0.07625   0.08510
 Alpha virt. eigenvalues --    0.08632   0.10228   0.10669   0.10939   0.11360

 Mulliken charges:
               1
     1  Mg   0.831152
     2  C    0.104252
     3  C   -0.193084
     4  C   -0.178407
     5  C   -0.185743
     6  N   -0.616686
     7  C    0.282851
     8  C   -0.160896
     9  C   -0.194115
    10  C    0.356342
    11  C   -0.298965
    12  C   -0.188087
    13  C   -0.267366
    14  C    0.618322
    15  O   -0.461101
    16  O   -0.494261
    17  N   -0.747666
    18  C    0.353277
    19  C   -0.009484
    20  C    0.027385
    21  C    0.297362
    22  C   -0.345492
    23  C   -0.120556
    24  C   -0.231663
    25  N   -0.745466
    26  C    0.330401
    27  C   -0.002314
    28  C    0.104511
    29  C    0.332835
    30  C   -0.373429
    31  C   -0.311866
    32  C   -0.307374
    33  N   -0.712122
    34  C    0.278518
    35  C    0.004860
    36  C   -0.046512
    37  C    0.280537
    38  C   -0.351827
    39  C    0.396302
    40  O   -0.431124
    41  C   -0.359190
    42  C    0.612134
    43  O   -0.427667
    44  O   -0.499533
    45  C   -0.072376
    46  C    0.026121
    47  C   -0.132749
    48  C    0.084292
    49  C   -0.359663
    50  C   -0.220898
    51  C   -0.174998
    52  C   -0.181537
    53  C   -0.042279
    54  C   -0.311070
    55  C   -0.166260
    56  C   -0.146039
    57  C   -0.148148
    58  C   -0.059043
    59  C   -0.298410
    60  C   -0.161237
    61  C   -0.180403
    62  C   -0.170155
    63  C   -0.064232
    64  C   -0.318839
    65  C   -0.302983
    66  H    0.084530
    67  H    0.115234
    68  H    0.089344
    69  H    0.106062
    70  H    0.091633
    71  H    0.114978
    72  H    0.105181
    73  H    0.144536
    74  H    0.122395
    75  H    0.122106
    76  H    0.152968
    77  H    0.154077
    78  H    0.126247
    79  H    0.121979
    80  H    0.098149
    81  H    0.098825
    82  H    0.105100
    83  H    0.098839
    84  H    0.115951
    85  H    0.109404
    86  H    0.120526
    87  H    0.094938
    88  H    0.102494
    89  H    0.100388
    90  H    0.116359
    91  H    0.117726
    92  H    0.136495
    93  H    0.148810
    94  H    0.122836
    95  H    0.145488
    96  H    0.123112
    97  H    0.121185
    98  H    0.128113
    99  H    0.127514
   100  H    0.086185
   101  H    0.093247
   102  H    0.103446
   103  H    0.126554
   104  H    0.131548
   105  H    0.086549
   106  H    0.085718
   107  H    0.101160
   108  H    0.093563
   109  H    0.089050
   110  H    0.082764
   111  H    0.095777
   112  H    0.099604
   113  H    0.103326
   114  H    0.088735
   115  H    0.072407
   116  H    0.086666
   117  H    0.074307
   118  H    0.065930
   119  H    0.056437
   120  H    0.096562
   121  H    0.060157
   122  H    0.082671
   123  H    0.100910
   124  H    0.114612
   125  H    0.094745
   126  H    0.064305
   127  H    0.050109
   128  H    0.093149
   129  H    0.101190
   130  H    0.091768
   131  H    0.076567
   132  H    0.108468
   133  H    0.116367
   134  H    0.113541
   135  H    0.105731
   136  H    0.073588
   137  H    0.100926
 Sum of Mulliken charges =   0.00000

 Dipole moment (field-independent basis, Debye):
    X=             -0.9508    Y=              4.9516    Z=             -0.2126  Tot=              5.0465
 Quadrupole moment (field-independent basis, Debye-Ang):
   XX=           -344.3413   YY=           -391.3842   ZZ=           -397.4982
   XY=            -23.8359   XZ=             10.9637   YZ=             -3.4204

 Normal termination of Gaussian 09 at Fri Jul  5 08:07:12 2019.
