 Gaussian 16, Revision A.03,
 Gaussian 16:  ES64L-G16RevA.03 25-Dec-2016

 ----------------------------------------------------------------------
 # td=(NStates=1) iop(3/107=0140000000,3/108=0140000000) CAM-B3LYP/6-31
 G(d,p)
 ----------------------------------------------------------------------

 --
 TD
 --
 Symbolic Z-matrix:
 Charge =  0 Multiplicity = 1

                         Standard orientation:
 ---------------------------------------------------------------------
 Center     Atomic      Atomic             Coordinates (Angstroms)
 Number     Number       Type             X           Y           Z
 ---------------------------------------------------------------------
      1         12           0       -7.012073    0.560340    0.202479
      2          6           0       -4.881892   -1.955094    0.530114
      3          6           0       -4.805025    2.842086    1.286392
      4          6           0       -9.347650    3.165694   -0.438452
      5          6           0       -9.581578   -1.647604   -1.003494
      6          7           0       -5.063652    0.437035    0.828996
      7          6           0       -4.355763   -0.699185    0.817921
      8          6           0       -2.972215   -0.416689    1.208568
      9          6           0       -3.009158    1.062884    1.739453
     10          6           0       -4.347026    1.539733    1.234402
     11          6           0       -2.923738    1.134416    3.237310
     12          6           0       -1.930571   -0.557910    0.177139
     13          6           0       -0.539504   -0.431467    0.515579
     14          6           0        0.417735   -0.813486   -0.589071
     15          8           0        0.118574   -1.131120   -1.643269
     16          8           0        1.688516   -0.540376   -0.131354
     17          7           0       -7.101885    2.599114    0.438825
     18          6           0       -6.083552    3.315846    0.862096
     19          6           0       -6.370031    4.756910    0.806822
     20          6           0       -7.687698    4.722848    0.446727
     21          6           0       -8.007696    3.390616    0.067641
     22          6           0       -5.390347    5.817028    1.146361
     23          6           0       -8.522245    5.925043    0.299619
     24          6           0       -8.385116    7.240181    0.762975
     25          7           0       -9.059632    0.750167   -0.605492
     26          6           0       -9.806448    1.859075   -0.705975
     27          6           0      -11.103007    1.587991   -1.310779
     28          6           0      -11.174035    0.212829   -1.344020
     29          6           0       -9.857129   -0.350187   -1.000491
     30          6           0      -12.089778    2.559734   -1.603682
     31          6           0      -12.270348   -0.549442   -1.915398
     32          6           0      -12.150963   -0.977091   -3.295979
     33          7           0       -7.137437   -1.345836   -0.196230
     34          6           0       -8.236142   -2.164539   -0.620130
     35          6           0       -7.814643   -3.556018   -0.550607
     36          6           0       -6.514100   -3.513403   -0.130332
     37          6           0       -6.169546   -2.125225    0.107552
     38          6           0       -8.643308   -4.652490   -0.910300
     39          6           0       -5.310914   -4.329642    0.197710
     40          8           0       -5.176121   -5.558373    0.166634
     41          6           0       -4.224896   -3.380895    0.579734
     42          6           0       -3.579032   -3.739087    2.000952
     43          8           0       -3.921039   -3.198296    3.001474
     44          8           0       -2.651081   -4.785156    1.838745
     45          6           0       -2.186963   -5.369916    3.077592
     46          6           0        2.780863   -0.751787   -1.173233
     47          6           0        4.087278   -0.472606   -0.536120
     48          6           0        5.026040    0.391887   -0.922359
     49          6           0        5.049799    1.139367   -2.187493
     50          6           0        6.293182    0.442199   -0.148589
     51          6           0        7.617449   -0.254301   -0.904150
     52          6           0        8.920362   -0.172974   -0.043708
     53          6           0       10.194085   -0.561819   -0.862810
     54          6           0       10.088734   -1.973041   -1.286250
     55          6           0       11.427328   -0.306637   -0.036571
     56          6           0       12.735422   -0.555741   -0.772819
     57          6           0       13.941481   -0.068823    0.031963
     58          6           0       15.274090   -0.111011   -0.593061
     59          6           0       15.715001   -1.560806   -1.171589
     60          6           0       16.327535    0.477235    0.380446
     61          6           0       17.735227    0.665050   -0.226105
     62          6           0       18.758509    1.379513    0.663932
     63          6           0       20.247045    1.313169    0.305124
     64          6           0       20.352945    2.183183   -1.066561
     65          6           0       21.087404    1.989336    1.348882
     66          1           0       -4.172594    3.428753    1.719531
     67          1           0      -10.068817    3.885102   -0.600300
     68          1           0      -10.359791   -2.454108   -1.190509
     69          1           0       -2.705201   -1.007690    2.112674
     70          1           0       -2.126317    1.583037    1.230073
     71          1           0       -2.028990    0.612501    3.459213
     72          1           0       -3.114793    2.144229    3.553827
     73          1           0       -3.613027    0.418932    3.740346
     74          1           0       -2.044512   -1.519837   -0.495528
     75          1           0       -2.233048    0.210787   -0.529871
     76          1           0       -0.141974    0.587825    0.794232
     77          1           0       -0.548926   -1.183653    1.376140
     78          1           0       -5.746921    6.798805    0.863271
     79          1           0       -5.591049    6.000272    2.210064
     80          1           0       -4.442332    5.476418    0.787784
     81          1           0       -9.317687    5.802854   -0.296942
     82          1           0       -9.030301    8.027619    0.508266
     83          1           0       -7.456511    7.252868    1.461783
     84          1           0      -11.563543    3.136342   -2.407466
     85          1           0      -13.080598    1.989999   -1.800063
     86          1           0      -12.326813    3.086341   -0.537301
     87          1           0      -12.461063   -1.512611   -1.291301
     88          1           0      -13.396590   -0.188763   -1.685346
     89          1           0      -13.008099   -1.706013   -3.676004
     90          1           0      -12.245441   -0.254408   -3.957792
     91          1           0      -11.313224   -1.396935   -3.709330
     92          1           0       -8.956140   -4.827563   -1.965787
     93          1           0       -8.157247   -5.571878   -0.709211
     94          1           0       -9.524529   -4.709109   -0.494167
     95          1           0       -3.523834   -3.610266   -0.303214
     96          1           0       -1.614941   -4.635875    3.546182
     97          1           0       -3.044141   -5.459688    3.533566
     98          1           0       -1.593918   -6.305876    2.938451
     99          1           0        2.833001   -1.803315   -1.553483
    100          1           0        2.646815   -0.148042   -2.105544
    101          1           0        4.266253   -1.198245    0.264106
    102          1           0        4.136001    1.190784   -2.720539
    103          1           0        5.378673    2.249826   -2.097347
    104          1           0        5.603902    0.676485   -2.758188
    105          1           0        6.516654    1.541609    0.156133
    106          1           0        6.077871   -0.028520    0.758888
    107          1           0        7.370790   -1.354360   -1.130152
    108          1           0        7.775870    0.030950   -1.845899
    109          1           0        8.985598    0.766906    0.311339
    110          1           0        8.825953   -0.772926    0.888396
    111          1           0       10.262554    0.168703   -1.673601
    112          1           0        9.233887   -2.311289   -1.734342
    113          1           0       10.955489   -2.461520   -1.750463
    114          1           0       10.011934   -2.653101   -0.396905
    115          1           0       11.402699    0.553836    0.674966
    116          1           0       11.242084   -0.974938    0.720759
    117          1           0       12.775429   -1.608645   -0.969924
    118          1           0       12.845928   -0.095411   -1.937224
    119          1           0       13.762547    0.964571    0.368843
    120          1           0       13.879263   -0.681016    1.104411
    121          1           0       15.311509    0.412128   -1.489735
    122          1           0       15.685575   -2.315438   -0.388449
    123          1           0       14.775956   -1.887927   -1.736347
    124          1           0       16.775166   -1.592837   -1.551475
    125          1           0       15.977696    1.276605    1.051066
    126          1           0       16.234095   -0.512055    1.008202
    127          1           0       18.156438   -0.370398   -0.707286
    128          1           0       17.429530    1.197394   -1.152658
    129          1           0       18.606568    2.497196    0.787688
    130          1           0       18.718998    0.923484    1.584744
    131          1           0       20.449213    0.171330    0.127868
    132          1           0       20.175126    3.190387   -0.946860
    133          1           0       21.416276    1.790105   -1.124903
    134          1           0       19.600204    1.693753   -1.801244
    135          1           0       21.002913    1.559514    2.363918
    136          1           0       22.081498    2.102208    1.139327
    137          1           0       20.746544    3.043308    1.629092
 ---------------------------------------------------------------------

 SCF Done:  E(RCAM-B3LYP) =  -2933.48403934     A.U. after   16 cycles

 Excitation energies and oscillator strengths:

 Excited State   1:      Singlet-A      2.0226 eV  613.01 nm  f=0.3208  <S**2>=0.000
     240 -> 243        0.20898
     241 -> 242        0.67258
 This state for optimization and/or second-order correction.
 Total Energy, E(TD-HF/TD-DFT) =  -2933.40971170
 Copying the excited state density for this state as the 1-particle RhoCI density.

 The electronic state is 1-A.
 Alpha  occ. eigenvalues --  -46.79923 -19.21377 -19.21230 -19.18304 -19.17366
 Alpha  occ. eigenvalues --  -19.14776 -14.37401 -14.35367 -14.34987 -14.34592
 Alpha  occ. eigenvalues --  -10.35562 -10.33698 -10.29455 -10.27655 -10.25919
 Alpha  occ. eigenvalues --  -10.25661 -10.25197 -10.25109 -10.25102 -10.24765
 Alpha  occ. eigenvalues --  -10.24618 -10.23963 -10.23812 -10.23359 -10.23146
 Alpha  occ. eigenvalues --  -10.23041 -10.23013 -10.22881 -10.22741 -10.22714
 Alpha  occ. eigenvalues --  -10.22590 -10.22428 -10.22416 -10.22277 -10.22264
 Alpha  occ. eigenvalues --  -10.22255 -10.22087 -10.22085 -10.21943 -10.21934
 Alpha  occ. eigenvalues --  -10.21809 -10.21738 -10.21734 -10.21708 -10.21586
 Alpha  occ. eigenvalues --  -10.21513 -10.21242 -10.21169 -10.21123 -10.21081
 Alpha  occ. eigenvalues --  -10.21059 -10.20978 -10.20940 -10.20800 -10.20789
 Alpha  occ. eigenvalues --  -10.20513 -10.20325 -10.20137 -10.20036 -10.20003
 Alpha  occ. eigenvalues --  -10.19955 -10.19906 -10.19676 -10.19114 -10.19075
 Alpha  occ. eigenvalues --   -3.08622  -1.83563  -1.83083  -1.83039  -1.14013
 Alpha  occ. eigenvalues --   -1.12299  -1.05445  -1.05075  -1.03988  -1.02910
 Alpha  occ. eigenvalues --   -0.99903  -0.98689  -0.96918  -0.86904  -0.86737
 Alpha  occ. eigenvalues --   -0.86363  -0.86046  -0.84757  -0.84617  -0.84270
 Alpha  occ. eigenvalues --   -0.84020  -0.83427  -0.83221  -0.83127  -0.81491
 Alpha  occ. eigenvalues --   -0.79969  -0.79550  -0.79038  -0.78186  -0.77483
 Alpha  occ. eigenvalues --   -0.77028  -0.76468  -0.76146  -0.75306  -0.74575
 Alpha  occ. eigenvalues --   -0.74037  -0.73066  -0.72823  -0.72294  -0.71260
 Alpha  occ. eigenvalues --   -0.70872  -0.70790  -0.69954  -0.69079  -0.68229
 Alpha  occ. eigenvalues --   -0.66967  -0.66414  -0.65786  -0.64748  -0.63459
 Alpha  occ. eigenvalues --   -0.63314  -0.63112  -0.61120  -0.60859  -0.60852
 Alpha  occ. eigenvalues --   -0.60348  -0.59986  -0.58579  -0.58287  -0.58181
 Alpha  occ. eigenvalues --   -0.57707  -0.56879  -0.56575  -0.56299  -0.55801
 Alpha  occ. eigenvalues --   -0.55429  -0.54847  -0.53840  -0.53492  -0.52789
 Alpha  occ. eigenvalues --   -0.52360  -0.51922  -0.51664  -0.51438  -0.51095
 Alpha  occ. eigenvalues --   -0.51007  -0.50121  -0.49978  -0.49694  -0.49344
 Alpha  occ. eigenvalues --   -0.49288  -0.49080  -0.48919  -0.48787  -0.48735
 Alpha  occ. eigenvalues --   -0.48236  -0.48202  -0.47883  -0.47649  -0.47617
 Alpha  occ. eigenvalues --   -0.47222  -0.46683  -0.46636  -0.46566  -0.46215
 Alpha  occ. eigenvalues --   -0.46095  -0.45838  -0.45582  -0.45480  -0.45323
 Alpha  occ. eigenvalues --   -0.45195  -0.45018  -0.44762  -0.44407  -0.44050
 Alpha  occ. eigenvalues --   -0.43909  -0.43510  -0.43067  -0.43040  -0.42699
 Alpha  occ. eigenvalues --   -0.42616  -0.42508  -0.42388  -0.42173  -0.41871
 Alpha  occ. eigenvalues --   -0.41723  -0.41577  -0.41451  -0.41346  -0.41040
 Alpha  occ. eigenvalues --   -0.40804  -0.40659  -0.40371  -0.40300  -0.40152
 Alpha  occ. eigenvalues --   -0.40030  -0.39929  -0.39544  -0.39408  -0.39290
 Alpha  occ. eigenvalues --   -0.38830  -0.38745  -0.38644  -0.38512  -0.38386
 Alpha  occ. eigenvalues --   -0.38148  -0.38073  -0.37836  -0.37500  -0.37282
 Alpha  occ. eigenvalues --   -0.37092  -0.36852  -0.36472  -0.36083  -0.35881
 Alpha  occ. eigenvalues --   -0.35799  -0.35609  -0.35253  -0.34827  -0.34244
 Alpha  occ. eigenvalues --   -0.34136  -0.33983  -0.33877  -0.33790  -0.33752
 Alpha  occ. eigenvalues --   -0.32911  -0.32815  -0.32693  -0.32573  -0.32284
 Alpha  occ. eigenvalues --   -0.32198  -0.31690  -0.31102  -0.30812  -0.30678
 Alpha  occ. eigenvalues --   -0.29701  -0.29595  -0.29368  -0.28605  -0.27089
 Alpha  occ. eigenvalues --   -0.27018  -0.25974  -0.25074  -0.24644  -0.21645
 Alpha  occ. eigenvalues --   -0.19533
 Alpha virt. eigenvalues --   -0.06990  -0.02918   0.00396   0.02238   0.03768
 Alpha virt. eigenvalues --    0.03849   0.04530   0.05336   0.05476   0.05771
 Alpha virt. eigenvalues --    0.06775   0.09312   0.09628   0.09632   0.10042

 Mulliken charges:
               1
     1  Mg   0.811426
     2  C    0.083677
     3  C   -0.158490
     4  C   -0.159592
     5  C   -0.172281
     6  N   -0.680301
     7  C    0.338228
     8  C   -0.181848
     9  C   -0.156222
    10  C    0.333531
    11  C   -0.309222
    12  C   -0.165926
    13  C   -0.259410
    14  C    0.613840
    15  O   -0.411738
    16  O   -0.501851
    17  N   -0.667979
    18  C    0.296677
    19  C    0.017155
    20  C   -0.022217
    21  C    0.331749
    22  C   -0.374181
    23  C   -0.061893
    24  C   -0.249105
    25  N   -0.693254
    26  C    0.316607
    27  C    0.048329
    28  C    0.024532
    29  C    0.333286
    30  C   -0.374116
    31  C   -0.269027
    32  C   -0.296253
    33  N   -0.769252
    34  C    0.209735
    35  C    0.023476
    36  C    0.019887
    37  C    0.354498
    38  C   -0.405899
    39  C    0.357153
    40  O   -0.483662
    41  C   -0.290931
    42  C    0.620170
    43  O   -0.437249
    44  O   -0.477468
    45  C   -0.075037
    46  C   -0.004550
    47  C   -0.131228
    48  C    0.129444
    49  C   -0.354522
    50  C   -0.232247
    51  C   -0.191773
    52  C   -0.177638
    53  C   -0.057932
    54  C   -0.319904
    55  C   -0.180805
    56  C   -0.164540
    57  C   -0.156692
    58  C   -0.067023
    59  C   -0.334265
    60  C   -0.168181
    61  C   -0.178064
    62  C   -0.146662
    63  C   -0.082043
    64  C   -0.301171
    65  C   -0.311484
    66  H    0.052323
    67  H    0.080813
    68  H    0.104543
    69  H    0.100002
    70  H    0.092978
    71  H    0.115899
    72  H    0.112751
    73  H    0.125244
    74  H    0.107788
    75  H    0.102763
    76  H    0.131034
    77  H    0.120733
    78  H    0.126423
    79  H    0.134846
    80  H    0.125431
    81  H    0.071128
    82  H    0.111309
    83  H    0.068976
    84  H    0.131826
    85  H    0.110535
    86  H    0.109603
    87  H    0.087872
    88  H    0.083696
    89  H    0.074824
    90  H    0.120659
    91  H    0.119327
    92  H    0.118750
    93  H    0.143776
    94  H    0.131274
    95  H    0.160805
    96  H    0.124289
    97  H    0.139808
    98  H    0.128486
    99  H    0.123202
   100  H    0.113780
   101  H    0.088961
   102  H    0.107710
   103  H    0.098348
   104  H    0.142302
   105  H    0.085627
   106  H    0.107790
   107  H    0.083706
   108  H    0.111115
   109  H    0.101390
   110  H    0.085029
   111  H    0.087238
   112  H    0.111535
   113  H    0.101914
   114  H    0.090309
   115  H    0.080375
   116  H    0.101515
   117  H    0.108170
   118  H    0.055362
   119  H    0.096750
   120  H    0.057316
   121  H    0.093346
   122  H    0.101233
   123  H    0.098355
   124  H    0.106830
   125  H    0.091969
   126  H    0.076686
   127  H    0.067801
   128  H    0.093763
   129  H    0.078533
   130  H    0.095850
   131  H    0.075465
   132  H    0.114486
   133  H    0.100702
   134  H    0.094779
   135  H    0.098739
   136  H    0.111915
   137  H    0.091319
 Sum of Mulliken charges =  -0.00000

 Dipole moment (field-independent basis, Debye):
    X=              2.3742    Y=              3.6848    Z=              0.7456  Tot=              4.4464
 Quadrupole moment (field-independent basis, Debye-Ang):
   XX=           -357.9831   YY=           -397.6989   ZZ=           -394.0239
   XY=            -18.2040   XZ=             16.6267   YZ=             -2.1009

 Normal termination of Gaussian 16 at Mon Sep 16 12:40:43 2019.
