 Gaussian 16, Revision A.03,
 Gaussian 16:  ES64L-G16RevA.03 25-Dec-2016

 ----------------------------------------------------------------------
 # td=(NStates=1) iop(3/107=0140000000,3/108=0140000000) CAM-B3LYP/6-31
 G(d,p)
 ----------------------------------------------------------------------

 --
 TD
 --
 Symbolic Z-matrix:
 Charge =  0 Multiplicity = 1

                         Standard orientation:
 ---------------------------------------------------------------------
 Center     Atomic      Atomic             Coordinates (Angstroms)
 Number     Number       Type             X           Y           Z
 ---------------------------------------------------------------------
      1         12           0       -7.215270    0.554091    0.109830
      2          6           0       -4.864034   -1.894899    0.540626
      3          6           0       -4.828870    2.745451    1.162648
      4          6           0       -9.437297    3.055723   -0.405285
      5          6           0       -9.527594   -1.817426   -0.826118
      6          7           0       -5.164615    0.367678    0.843150
      7          6           0       -4.277427   -0.738633    0.863620
      8          6           0       -2.984268   -0.392316    1.291572
      9          6           0       -3.033827    1.066882    1.689260
     10          6           0       -4.434766    1.415470    1.155425
     11          6           0       -2.926673    1.276427    3.156039
     12          6           0       -1.994598   -0.633735    0.135801
     13          6           0       -0.522863   -0.368667    0.650633
     14          6           0        0.472008   -0.711860   -0.471951
     15          8           0        0.243320   -1.039471   -1.617053
     16          8           0        1.829980   -0.312270   -0.049999
     17          7           0       -7.087438    2.597605    0.325295
     18          6           0       -6.054229    3.316592    0.817448
     19          6           0       -6.417487    4.791624    0.777426
     20          6           0       -7.693318    4.792122    0.337830
     21          6           0       -8.148025    3.366687    0.046036
     22          6           0       -5.466076    5.803200    1.060991
     23          6           0       -8.497639    5.979577    0.097110
     24          6           0       -8.436981    7.145138    0.898609
     25          7           0       -9.119278    0.641923   -0.483161
     26          6           0       -9.845462    1.810726   -0.690193
     27          6           0      -11.144977    1.477801   -1.066044
     28          6           0      -11.233717    0.098941   -1.308928
     29          6           0       -9.912390   -0.375972   -0.881513
     30          6           0      -12.271737    2.386774   -1.457833
     31          6           0      -12.337140   -0.807540   -1.900027
     32          6           0      -12.251632   -1.110773   -3.352700
     33          7           0       -7.330194   -1.421274   -0.164774
     34          6           0       -8.210115   -2.258987   -0.468324
     35          6           0       -7.826383   -3.593976   -0.461366
     36          6           0       -6.472736   -3.568302   -0.048744
     37          6           0       -6.223535   -2.171335    0.097235
     38          6           0       -8.618737   -4.776041   -0.794857
     39          6           0       -5.358461   -4.332386    0.238599
     40          8           0       -5.099898   -5.578704    0.162578
     41          6           0       -4.150940   -3.300816    0.596399
     42          6           0       -3.385407   -3.673722    1.856533
     43          8           0       -3.639906   -3.077718    2.896614
     44          8           0       -2.628201   -4.697054    1.665125
     45          6           0       -2.021295   -5.248930    2.916814
     46          6           0        2.791147   -0.410300   -1.212552
     47          6           0        4.142068   -0.177190   -0.587991
     48          6           0        5.138910    0.606821   -1.008051
     49          6           0        5.117713    1.358890   -2.260907
     50          6           0        6.439936    0.512521   -0.262593
     51          6           0        7.687753   -0.022288   -1.072980
     52          6           0        8.947344   -0.053293   -0.251838
     53          6           0       10.229198   -0.556853   -0.906609
     54          6           0       10.156390   -1.996073   -1.291642
     55          6           0       11.435285   -0.325272    0.076635
     56          6           0       12.673504   -0.515945   -0.794380
     57          6           0       13.910817   -0.095254    0.105902
     58          6           0       15.365109   -0.246046   -0.487535
     59          6           0       15.543279   -1.724288   -0.848849
     60          6           0       16.363523    0.321542    0.411222
     61          6           0       17.786214    0.480773   -0.170038
     62          6           0       18.773390    1.108537    0.769090
     63          6           0       20.198283    1.261461    0.276473
     64          6           0       20.334473    2.027136   -1.053123
     65          6           0       20.991561    2.034963    1.322518
     66          1           0       -4.063971    3.594742    1.555667
     67          1           0      -10.165891    3.890975   -0.340331
     68          1           0      -10.426505   -2.304710   -1.264695
     69          1           0       -2.619440   -1.023533    2.111676
     70          1           0       -2.272602    1.790676    1.154807
     71          1           0       -1.908658    0.940839    3.462331
     72          1           0       -2.934568    2.349589    3.459698
     73          1           0       -3.696378    0.745231    3.685192
     74          1           0       -2.196581   -1.665918   -0.206341
     75          1           0       -2.235468   -0.026878   -0.783776
     76          1           0       -0.372262    0.774564    0.821549
     77          1           0       -0.257583   -0.986790    1.467024
     78          1           0       -5.568043    6.660312    0.252000
     79          1           0       -5.670774    6.192793    2.101251
     80          1           0       -4.337741    5.529504    0.993234
     81          1           0       -8.997519    5.768456   -0.763941
     82          1           0       -8.998677    7.825233    0.702801
     83          1           0       -7.829418    7.403536    1.821544
     84          1           0      -11.972131    2.852443   -2.429800
     85          1           0      -13.396341    1.972378   -1.212276
     86          1           0      -12.357040    3.125041   -0.540317
     87          1           0      -12.252677   -1.664333   -1.244943
     88          1           0      -13.311709   -0.305162   -1.923743
     89          1           0      -13.156405   -1.681398   -3.528933
     90          1           0      -11.851596   -0.255146   -4.086964
     91          1           0      -11.483988   -1.947793   -3.512421
     92          1           0       -8.949292   -4.643387   -1.842057
     93          1           0       -7.927699   -5.665065   -0.849237
     94          1           0       -9.660343   -5.065460   -0.277452
     95          1           0       -3.528863   -3.652299   -0.187077
     96          1           0       -1.506609   -4.318815    3.446881
     97          1           0       -2.830984   -5.652861    3.525432
     98          1           0       -1.214110   -5.979878    2.761892
     99          1           0        2.815413   -1.425230   -1.564349
    100          1           0        2.555826    0.287031   -1.974457
    101          1           0        4.190905   -0.704848    0.328832
    102          1           0        4.127785    1.297399   -2.932824
    103          1           0        5.387397    2.505535   -2.162756
    104          1           0        5.954000    0.781203   -2.831556
    105          1           0        6.779700    1.356702    0.332118
    106          1           0        6.252477   -0.300941    0.581984
    107          1           0        7.393381   -1.036712   -1.387644
    108          1           0        7.746153    0.658587   -1.986492
    109          1           0        9.141651    1.017885   -0.057455
    110          1           0        8.674631   -0.603838    0.628487
    111          1           0       10.404874   -0.024057   -1.967698
    112          1           0        9.208283   -2.317347   -1.805229
    113          1           0       10.904117   -2.232769   -2.077534
    114          1           0       10.297885   -2.721981   -0.434514
    115          1           0       11.462637    0.769521    0.610612
    116          1           0       11.155240   -1.207902    0.868748
    117          1           0       12.738439   -1.642376   -0.987248
    118          1           0       12.831549    0.218401   -1.607542
    119          1           0       13.544531    0.932584    0.199142
    120          1           0       13.972760   -0.799103    1.014896
    121          1           0       15.503463    0.448423   -1.215891
    122          1           0       15.781544   -2.365331   -0.064120
    123          1           0       14.695471   -2.116814   -1.400363
    124          1           0       16.490651   -1.703028   -1.463239
    125          1           0       16.014424    1.372311    0.572346
    126          1           0       16.259874   -0.190624    1.238616
    127          1           0       18.110749   -0.366602   -0.352897
    128          1           0       17.562137    1.146338   -1.113874
    129          1           0       18.312265    2.081751    1.041911
    130          1           0       18.720744    0.570109    1.784010
    131          1           0       20.402969    0.172393    0.238954
    132          1           0       20.116821    3.123331   -0.923111
    133          1           0       21.270639    2.027403   -1.590861
    134          1           0       19.599581    1.501040   -1.911296
    135          1           0       20.819056    1.403298    2.149171
    136          1           0       22.011982    2.016429    0.972920
    137          1           0       20.467805    3.130091    1.468725
 ---------------------------------------------------------------------

 SCF Done:  E(RCAM-B3LYP) =  -2933.51058795     A.U. after   16 cycles

 Excitation energies and oscillator strengths:

 Excited State   1:      Singlet-A      2.0216 eV  613.29 nm  f=0.2543  <S**2>=0.000
     240 -> 243        0.20610
     241 -> 242        0.67332
 This state for optimization and/or second-order correction.
 Total Energy, E(TD-HF/TD-DFT) =  -2933.43629520
 Copying the excited state density for this state as the 1-particle RhoCI density.

 The electronic state is 1-A.
 Alpha  occ. eigenvalues --  -46.80132 -19.23323 -19.20267 -19.18089 -19.15115
 Alpha  occ. eigenvalues --  -19.14656 -14.37491 -14.35420 -14.35310 -14.34492
 Alpha  occ. eigenvalues --  -10.34950 -10.33686 -10.29499 -10.28671 -10.26015
 Alpha  occ. eigenvalues --  -10.25946 -10.25619 -10.25509 -10.24962 -10.24801
 Alpha  occ. eigenvalues --  -10.24786 -10.24547 -10.23867 -10.23758 -10.23754
 Alpha  occ. eigenvalues --  -10.23596 -10.23526 -10.23401 -10.23242 -10.23174
 Alpha  occ. eigenvalues --  -10.23164 -10.23027 -10.22834 -10.22659 -10.22634
 Alpha  occ. eigenvalues --  -10.22335 -10.22290 -10.22221 -10.22190 -10.22169
 Alpha  occ. eigenvalues --  -10.22129 -10.22069 -10.21977 -10.21964 -10.21853
 Alpha  occ. eigenvalues --  -10.21852 -10.21798 -10.21629 -10.21581 -10.21478
 Alpha  occ. eigenvalues --  -10.21415 -10.21360 -10.21297 -10.21166 -10.20578
 Alpha  occ. eigenvalues --  -10.20569 -10.20535 -10.20530 -10.20419 -10.20328
 Alpha  occ. eigenvalues --  -10.20227 -10.19496 -10.19475 -10.19260 -10.18367
 Alpha  occ. eigenvalues --   -3.08797  -1.83733  -1.83280  -1.83198  -1.14152
 Alpha  occ. eigenvalues --   -1.09877  -1.03421  -1.02602  -1.01950  -1.01465
 Alpha  occ. eigenvalues --   -0.99973  -0.98847  -0.97552  -0.87096  -0.86310
 Alpha  occ. eigenvalues --   -0.85950  -0.85786  -0.84668  -0.84471  -0.84020
 Alpha  occ. eigenvalues --   -0.83720  -0.83169  -0.83114  -0.81901  -0.80820
 Alpha  occ. eigenvalues --   -0.80189  -0.79532  -0.78715  -0.78369  -0.78029
 Alpha  occ. eigenvalues --   -0.76737  -0.76241  -0.76022  -0.75047  -0.73862
 Alpha  occ. eigenvalues --   -0.73007  -0.72188  -0.71242  -0.71216  -0.70861
 Alpha  occ. eigenvalues --   -0.70166  -0.70152  -0.69010  -0.68339  -0.67699
 Alpha  occ. eigenvalues --   -0.66858  -0.66166  -0.65760  -0.64792  -0.64530
 Alpha  occ. eigenvalues --   -0.64305  -0.61793  -0.61182  -0.60944  -0.59692
 Alpha  occ. eigenvalues --   -0.59673  -0.58731  -0.58244  -0.57960  -0.57802
 Alpha  occ. eigenvalues --   -0.57399  -0.56458  -0.56172  -0.55279  -0.54599
 Alpha  occ. eigenvalues --   -0.54375  -0.53980  -0.53719  -0.52392  -0.52175
 Alpha  occ. eigenvalues --   -0.52131  -0.51789  -0.51545  -0.51171  -0.51111
 Alpha  occ. eigenvalues --   -0.50964  -0.50543  -0.50326  -0.50092  -0.49161
 Alpha  occ. eigenvalues --   -0.49101  -0.48931  -0.48830  -0.48664  -0.48253
 Alpha  occ. eigenvalues --   -0.47782  -0.47381  -0.47213  -0.47118  -0.46946
 Alpha  occ. eigenvalues --   -0.46735  -0.46477  -0.46301  -0.46054  -0.45896
 Alpha  occ. eigenvalues --   -0.45538  -0.45431  -0.45123  -0.45075  -0.44652
 Alpha  occ. eigenvalues --   -0.44561  -0.44401  -0.44065  -0.43867  -0.43607
 Alpha  occ. eigenvalues --   -0.43368  -0.43283  -0.42868  -0.42674  -0.42374
 Alpha  occ. eigenvalues --   -0.42147  -0.41802  -0.41722  -0.41569  -0.41499
 Alpha  occ. eigenvalues --   -0.41171  -0.41098  -0.40817  -0.40502  -0.40318
 Alpha  occ. eigenvalues --   -0.40194  -0.40136  -0.40056  -0.39724  -0.39554
 Alpha  occ. eigenvalues --   -0.39388  -0.39115  -0.39057  -0.38882  -0.38778
 Alpha  occ. eigenvalues --   -0.38745  -0.38500  -0.38340  -0.38238  -0.38080
 Alpha  occ. eigenvalues --   -0.37980  -0.37707  -0.37255  -0.37074  -0.36923
 Alpha  occ. eigenvalues --   -0.36919  -0.36563  -0.36277  -0.35903  -0.35464
 Alpha  occ. eigenvalues --   -0.35402  -0.35250  -0.35003  -0.34872  -0.34783
 Alpha  occ. eigenvalues --   -0.34605  -0.34223  -0.33949  -0.33862  -0.33685
 Alpha  occ. eigenvalues --   -0.33623  -0.33109  -0.33075  -0.32702  -0.32166
 Alpha  occ. eigenvalues --   -0.32094  -0.31725  -0.30729  -0.30589  -0.30231
 Alpha  occ. eigenvalues --   -0.30032  -0.29862  -0.28708  -0.28459  -0.26769
 Alpha  occ. eigenvalues --   -0.26153  -0.25630  -0.25561  -0.24983  -0.21677
 Alpha  occ. eigenvalues --   -0.19713
 Alpha virt. eigenvalues --   -0.06978  -0.03457  -0.00651   0.01491   0.02807
 Alpha virt. eigenvalues --    0.04587   0.04825   0.04979   0.05024   0.05559
 Alpha virt. eigenvalues --    0.07031   0.08836   0.09502   0.09622   0.09739

 Mulliken charges:
               1
     1  Mg   0.820675
     2  C    0.021128
     3  C   -0.211844
     4  C   -0.185494
     5  C   -0.168802
     6  N   -0.635158
     7  C    0.346492
     8  C   -0.167448
     9  C   -0.134325
    10  C    0.379473
    11  C   -0.301191
    12  C   -0.183759
    13  C   -0.253587
    14  C    0.586885
    15  O   -0.438554
    16  O   -0.526612
    17  N   -0.725036
    18  C    0.302588
    19  C    0.098310
    20  C   -0.043529
    21  C    0.343577
    22  C   -0.401623
    23  C   -0.096504
    24  C   -0.220964
    25  N   -0.713119
    26  C    0.343038
    27  C   -0.011838
    28  C    0.030665
    29  C    0.268833
    30  C   -0.376957
    31  C   -0.235407
    32  C   -0.301831
    33  N   -0.696935
    34  C    0.308501
    35  C    0.049971
    36  C    0.112659
    37  C    0.250920
    38  C   -0.402448
    39  C    0.273097
    40  O   -0.508181
    41  C   -0.315575
    42  C    0.624335
    43  O   -0.502402
    44  O   -0.419524
    45  C   -0.100114
    46  C    0.030138
    47  C   -0.142367
    48  C    0.163679
    49  C   -0.365870
    50  C   -0.237244
    51  C   -0.186785
    52  C   -0.153228
    53  C   -0.048410
    54  C   -0.317161
    55  C   -0.149291
    56  C   -0.181758
    57  C   -0.172423
    58  C   -0.054383
    59  C   -0.323920
    60  C   -0.170823
    61  C   -0.148119
    62  C   -0.174930
    63  C   -0.056970
    64  C   -0.299784
    65  C   -0.282870
    66  H    0.063096
    67  H    0.097384
    68  H    0.082019
    69  H    0.133295
    70  H    0.090490
    71  H    0.105309
    72  H    0.104760
    73  H    0.132857
    74  H    0.122319
    75  H    0.117094
    76  H    0.142867
    77  H    0.144908
    78  H    0.116430
    79  H    0.124562
    80  H    0.109564
    81  H    0.098708
    82  H    0.097684
    83  H    0.103722
    84  H    0.133530
    85  H    0.105516
    86  H    0.098563
    87  H    0.115219
    88  H    0.108399
    89  H    0.114558
    90  H    0.109940
    91  H    0.090957
    92  H    0.122478
    93  H    0.142337
    94  H    0.111337
    95  H    0.153816
    96  H    0.123048
    97  H    0.154767
    98  H    0.137483
    99  H    0.130705
   100  H    0.113384
   101  H    0.090642
   102  H    0.096332
   103  H    0.106689
   104  H    0.118068
   105  H    0.100439
   106  H    0.077916
   107  H    0.095615
   108  H    0.084412
   109  H    0.088120
   110  H    0.091558
   111  H    0.063236
   112  H    0.098225
   113  H    0.106486
   114  H    0.089924
   115  H    0.071705
   116  H    0.078745
   117  H    0.098835
   118  H    0.103656
   119  H    0.079370
   120  H    0.073046
   121  H    0.075041
   122  H    0.108250
   123  H    0.106841
   124  H    0.093508
   125  H    0.078284
   126  H    0.082854
   127  H    0.094860
   128  H    0.077718
   129  H    0.074986
   130  H    0.077562
   131  H    0.086303
   132  H    0.098368
   133  H    0.108641
   134  H    0.067123
   135  H    0.104335
   136  H    0.104933
   137  H    0.084404
 Sum of Mulliken charges =  -0.00000

 Dipole moment (field-independent basis, Debye):
    X=              1.2563    Y=              4.3505    Z=              0.2762  Tot=              4.5367
 Quadrupole moment (field-independent basis, Debye-Ang):
   XX=           -343.6227   YY=           -392.9642   ZZ=           -396.2621
   XY=            -30.4612   XZ=              9.7387   YZ=             -5.0694

 Normal termination of Gaussian 16 at Sun Sep 22 09:05:44 2019.
