 Gaussian 16, Revision A.03,
 Gaussian 16:  ES64L-G16RevA.03 25-Dec-2016

 -------------------------------------
 # td=(NStates=1) CAM-B3LYP/6-31G(d,p)
 -------------------------------------

 --
 TD
 --
 Symbolic Z-matrix:
 Charge =  0 Multiplicity = 1

                         Standard orientation:
 ---------------------------------------------------------------------
 Center     Atomic      Atomic             Coordinates (Angstroms)
 Number     Number       Type             X           Y           Z
 ---------------------------------------------------------------------
      1         12           0       -7.159540    0.706683    0.065307
      2          6           0       -4.874547   -1.940008    0.430864
      3          6           0       -4.853582    2.799444    1.043871
      4          6           0       -9.462947    3.053781   -0.346771
      5          6           0       -9.589668   -1.703348   -0.830074
      6          7           0       -5.100001    0.450963    0.639676
      7          6           0       -4.330823   -0.656732    0.634989
      8          6           0       -2.973110   -0.398382    1.158141
      9          6           0       -3.021297    1.108378    1.599356
     10          6           0       -4.365481    1.539333    1.035032
     11          6           0       -2.762671    1.403151    3.041504
     12          6           0       -1.923212   -0.641411    0.022789
     13          6           0       -0.472520   -0.484002    0.532318
     14          6           0        0.502184   -0.830470   -0.521747
     15          8           0        0.251825   -1.158216   -1.713335
     16          8           0        1.759401   -0.697531   -0.014500
     17          7           0       -7.052657    2.606563    0.206524
     18          6           0       -6.062614    3.308606    0.686685
     19          6           0       -6.326003    4.818987    0.703514
     20          6           0       -7.756739    4.769980    0.255140
     21          6           0       -8.089056    3.503077   -0.043589
     22          6           0       -5.402795    5.872580    1.125136
     23          6           0       -8.607468    6.027174    0.136971
     24          6           0       -8.376766    7.097520    0.873548
     25          7           0       -9.128711    0.668937   -0.516638
     26          6           0       -9.861097    1.794694   -0.766028
     27          6           0      -11.289503    1.513654   -1.119456
     28          6           0      -11.270333    0.121378   -1.208417
     29          6           0      -10.016587   -0.400822   -0.837557
     30          6           0      -12.382633    2.466008   -1.430287
     31          6           0      -12.461930   -0.762053   -1.555224
     32          6           0      -12.430882   -1.110170   -3.068235
     33          7           0       -7.234314   -1.311243   -0.130751
     34          6           0       -8.347192   -2.155070   -0.477414
     35          6           0       -7.914725   -3.594802   -0.456105
     36          6           0       -6.543456   -3.477200   -0.078415
     37          6           0       -6.209495   -2.104105    0.108784
     38          6           0       -8.643200   -4.766827   -0.743342
     39          6           0       -5.339147   -4.376568    0.219758
     40          8           0       -5.205546   -5.602333    0.207858
     41          6           0       -4.155660   -3.296261    0.607156
     42          6           0       -3.493265   -3.658879    1.902113
     43          8           0       -3.618695   -2.978887    2.911892
     44          8           0       -2.748312   -4.739938    1.853320
     45          6           0       -2.138381   -5.253666    2.968172
     46          6           0        2.731123   -0.824971   -1.125905
     47          6           0        4.120196   -0.512917   -0.334618
     48          6           0        5.143088    0.262604   -0.892544
     49          6           0        5.045244    1.030306   -2.172595
     50          6           0        6.472287    0.441062   -0.219286
     51          6           0        7.652058   -0.113262   -0.911090
     52          6           0        8.937702   -0.073489   -0.131237
     53          6           0       10.124290   -0.500527   -0.957640
     54          6           0       10.076422   -1.992516   -1.444526
     55          6           0       11.423664   -0.219501   -0.177712
     56          6           0       12.845551   -0.442182   -0.805603
     57          6           0       14.058830   -0.135044    0.106518
     58          6           0       15.423128   -0.157212   -0.494931
     59          6           0       15.772688   -1.519879   -1.061768
     60          6           0       16.484980    0.356993    0.487976
     61          6           0       17.782535    0.587603   -0.207306
     62          6           0       18.775691    1.285884    0.722352
     63          6           0       20.298251    1.372987    0.337106
     64          6           0       20.350662    2.154251   -0.965428
     65          6           0       21.255567    1.820979    1.437305
     66          1           0       -3.929632    3.507333    1.466517
     67          1           0      -10.222879    3.835474   -0.471060
     68          1           0      -10.432851   -2.400885   -1.035140
     69          1           0       -2.879611   -1.108994    2.077518
     70          1           0       -2.342167    1.838796    0.979163
     71          1           0       -1.637713    1.131030    3.168259
     72          1           0       -3.109290    2.305877    3.631592
     73          1           0       -3.401584    0.647800    3.637687
     74          1           0       -1.984327   -1.964655   -0.106351
     75          1           0       -2.178165   -0.125877   -0.881085
     76          1           0       -0.392168    0.580046    0.736953
     77          1           0       -0.216768   -1.071307    1.414765
     78          1           0       -5.990026    6.814917    0.810202
     79          1           0       -5.426445    5.789852    2.321787
     80          1           0       -4.480048    5.621552    0.544550
     81          1           0       -9.404040    5.910380   -0.417570
     82          1           0       -9.156755    7.817420    0.941172
     83          1           0       -7.556611    7.097043    1.709483
     84          1           0      -12.133890    3.198658   -2.180331
     85          1           0      -13.249919    1.907945   -1.702351
     86          1           0      -12.888964    2.961532   -0.294142
     87          1           0      -12.426090   -1.682927   -0.922517
     88          1           0      -13.386131   -0.348173   -1.335030
     89          1           0      -13.430570   -1.707006   -3.448610
     90          1           0      -12.354187   -0.056381   -3.701078
     91          1           0      -11.467158   -1.617476   -3.309666
     92          1           0       -8.980327   -4.611715   -1.814669
     93          1           0       -7.930132   -5.586273   -0.811942
     94          1           0       -9.432426   -5.009309   -0.320797
     95          1           0       -3.290902   -3.297104   -0.126177
     96          1           0       -1.468793   -4.476033    3.340695
     97          1           0       -2.715656   -5.500801    3.778713
     98          1           0       -1.521917   -5.975740    2.637708
     99          1           0        2.638380   -1.828516   -1.750146
    100          1           0        2.597036    0.005282   -1.858078
    101          1           0        4.104466   -0.954393    0.614713
    102          1           0        3.930280    1.059215   -2.437239
    103          1           0        5.486209    1.979170   -2.121787
    104          1           0        5.501671    0.463217   -3.015616
    105          1           0        6.784170    1.511344    0.185027
    106          1           0        6.398374   -0.060242    0.902879
    107          1           0        7.372741   -1.305362   -1.095109
    108          1           0        7.724495    0.343408   -2.005214
    109          1           0        8.892368    1.169540    0.270090
    110          1           0        8.914516   -0.718977    0.723643
    111          1           0       10.171670    0.241523   -1.828562
    112          1           0        9.040565   -2.207431   -1.952593
    113          1           0       10.933391   -2.232155   -2.122020
    114          1           0       10.116508   -2.663133   -0.501459
    115          1           0       11.545791    0.802085    0.064567
    116          1           0       11.405802   -0.917174    0.675623
    117          1           0       12.784564   -1.436066   -1.200311
    118          1           0       13.043451    0.230859   -1.847298
    119          1           0       13.803758    0.756515    0.726015
    120          1           0       14.148132   -0.790419    0.933819
    121          1           0       15.169885    0.723623   -1.433313
    122          1           0       15.793994   -2.304692   -0.263877
    123          1           0       15.096774   -1.677992   -1.875102
    124          1           0       16.657697   -1.496908   -1.776317
    125          1           0       15.991526    1.390763    0.843043
    126          1           0       16.557904   -0.338475    1.264408
    127          1           0       18.107671   -0.439227   -0.448805
    128          1           0       17.882333    1.280672   -1.108500
    129          1           0       18.281214    2.257524    0.834050
    130          1           0       18.791280    1.044682    1.751596
    131          1           0       20.522909    0.392793    0.187189
    132          1           0       20.165814    3.276866   -1.003552
    133          1           0       21.435727    2.311748   -1.277826
    134          1           0       19.979462    1.472348   -1.855930
    135          1           0       21.340686    1.221109    2.363435
    136          1           0       22.272455    1.870426    1.209976
    137          1           0       20.883206    2.721145    2.019596
 ---------------------------------------------------------------------

 SCF Done:  E(RCAM-B3LYP) =  -2932.64624315     A.U. after   16 cycles

 Excitation energies and oscillator strengths:

 Excited State   1:      Singlet-A      2.0105 eV  616.68 nm  f=0.2262  <S**2>=0.000
     240 -> 242       -0.10842
     240 -> 243        0.24453
     241 -> 242        0.64488
 This state for optimization and/or second-order correction.
 Total Energy, E(TD-HF/TD-DFT) =  -2932.57235779
 Copying the excited state density for this state as the 1-particle RhoCI density.

 The electronic state is 1-A.
 Alpha  occ. eigenvalues --  -46.82990 -19.27224 -19.26910 -19.21519 -19.21123
 Alpha  occ. eigenvalues --  -19.20338 -14.41028 -14.39267 -14.39004 -14.38879
 Alpha  occ. eigenvalues --  -10.39505 -10.39440 -10.36678 -10.33451 -10.30315
 Alpha  occ. eigenvalues --  -10.29821 -10.29745 -10.29590 -10.29247 -10.29140
 Alpha  occ. eigenvalues --  -10.29048 -10.28984 -10.28701 -10.28621 -10.28503
 Alpha  occ. eigenvalues --  -10.28355 -10.28317 -10.28290 -10.28126 -10.27885
 Alpha  occ. eigenvalues --  -10.27777 -10.27680 -10.27618 -10.27585 -10.27476
 Alpha  occ. eigenvalues --  -10.27387 -10.27191 -10.27184 -10.27146 -10.27033
 Alpha  occ. eigenvalues --  -10.26988 -10.26967 -10.26885 -10.26864 -10.26843
 Alpha  occ. eigenvalues --  -10.26554 -10.26403 -10.26284 -10.26189 -10.26186
 Alpha  occ. eigenvalues --  -10.26121 -10.26058 -10.26048 -10.25940 -10.25754
 Alpha  occ. eigenvalues --  -10.25631 -10.25383 -10.25271 -10.24937 -10.24821
 Alpha  occ. eigenvalues --  -10.24711 -10.24564 -10.24486 -10.24274 -10.23487
 Alpha  occ. eigenvalues --   -3.12343  -1.87024  -1.86588  -1.86550  -1.20427
 Alpha  occ. eigenvalues --   -1.17329  -1.10539  -1.09364  -1.07366  -1.04631
 Alpha  occ. eigenvalues --   -1.03638  -1.02814  -1.01419  -0.91740  -0.91292
 Alpha  occ. eigenvalues --   -0.90777  -0.89914  -0.89222  -0.89125  -0.88795
 Alpha  occ. eigenvalues --   -0.88413  -0.88250  -0.87651  -0.87525  -0.86196
 Alpha  occ. eigenvalues --   -0.85135  -0.84781  -0.83982  -0.83128  -0.82727
 Alpha  occ. eigenvalues --   -0.82577  -0.81076  -0.80392  -0.79724  -0.78834
 Alpha  occ. eigenvalues --   -0.78067  -0.77427  -0.76456  -0.76014  -0.75748
 Alpha  occ. eigenvalues --   -0.75319  -0.74946  -0.74387  -0.72984  -0.72017
 Alpha  occ. eigenvalues --   -0.70955  -0.69947  -0.68775  -0.68691  -0.67717
 Alpha  occ. eigenvalues --   -0.66727  -0.66266  -0.65342  -0.64827  -0.64230
 Alpha  occ. eigenvalues --   -0.63863  -0.63363  -0.63048  -0.62278  -0.62210
 Alpha  occ. eigenvalues --   -0.61152  -0.60818  -0.60362  -0.59739  -0.59353
 Alpha  occ. eigenvalues --   -0.58589  -0.58028  -0.57623  -0.57247  -0.56958
 Alpha  occ. eigenvalues --   -0.56444  -0.55989  -0.55200  -0.55192  -0.54968
 Alpha  occ. eigenvalues --   -0.54739  -0.54427  -0.53904  -0.53446  -0.53185
 Alpha  occ. eigenvalues --   -0.52875  -0.52178  -0.52112  -0.51858  -0.51516
 Alpha  occ. eigenvalues --   -0.51318  -0.51105  -0.51067  -0.50546  -0.50423
 Alpha  occ. eigenvalues --   -0.50283  -0.50191  -0.49989  -0.49914  -0.49518
 Alpha  occ. eigenvalues --   -0.49251  -0.49050  -0.48591  -0.48502  -0.48347
 Alpha  occ. eigenvalues --   -0.48191  -0.47870  -0.47762  -0.47518  -0.47269
 Alpha  occ. eigenvalues --   -0.46734  -0.46691  -0.46336  -0.46184  -0.46104
 Alpha  occ. eigenvalues --   -0.45923  -0.45809  -0.45718  -0.45612  -0.45018
 Alpha  occ. eigenvalues --   -0.44843  -0.44684  -0.44483  -0.44387  -0.44258
 Alpha  occ. eigenvalues --   -0.44053  -0.43871  -0.43716  -0.43519  -0.43281
 Alpha  occ. eigenvalues --   -0.43044  -0.42861  -0.42786  -0.42565  -0.42341
 Alpha  occ. eigenvalues --   -0.42209  -0.42004  -0.41774  -0.41460  -0.41417
 Alpha  occ. eigenvalues --   -0.40936  -0.40895  -0.40639  -0.40364  -0.40080
 Alpha  occ. eigenvalues --   -0.39843  -0.39552  -0.38984  -0.38681  -0.38456
 Alpha  occ. eigenvalues --   -0.38265  -0.38169  -0.38055  -0.37485  -0.37233
 Alpha  occ. eigenvalues --   -0.36821  -0.36680  -0.36401  -0.36283  -0.36086
 Alpha  occ. eigenvalues --   -0.36028  -0.35955  -0.35850  -0.35731  -0.35573
 Alpha  occ. eigenvalues --   -0.35309  -0.34732  -0.34451  -0.33811  -0.33627
 Alpha  occ. eigenvalues --   -0.33606  -0.33068  -0.31948  -0.30749  -0.29989
 Alpha  occ. eigenvalues --   -0.29318  -0.29224  -0.27926  -0.26447  -0.22656
 Alpha  occ. eigenvalues --   -0.20768
 Alpha virt. eigenvalues --   -0.06322  -0.02760   0.01504   0.04249   0.04712
 Alpha virt. eigenvalues --    0.05640   0.05798   0.06337   0.06668   0.07031
 Alpha virt. eigenvalues --    0.08202   0.09831   0.10460   0.11174   0.11553

 Mulliken charges:
               1
     1  Mg   0.821391
     2  C    0.045811
     3  C   -0.218514
     4  C   -0.157208
     5  C   -0.182854
     6  N   -0.633869
     7  C    0.319714
     8  C   -0.197995
     9  C   -0.131673
    10  C    0.330615
    11  C   -0.304751
    12  C   -0.146439
    13  C   -0.264173
    14  C    0.627617
    15  O   -0.501501
    16  O   -0.480493
    17  N   -0.730713
    18  C    0.336392
    19  C    0.005405
    20  C   -0.043112
    21  C    0.283265
    22  C   -0.367061
    23  C   -0.012575
    24  C   -0.265108
    25  N   -0.669676
    26  C    0.258612
    27  C    0.046519
    28  C    0.005881
    29  C    0.292967
    30  C   -0.366214
    31  C   -0.233539
    32  C   -0.290517
    33  N   -0.735899
    34  C    0.253535
    35  C    0.057504
    36  C   -0.066472
    37  C    0.389963
    38  C   -0.379720
    39  C    0.391587
    40  O   -0.457163
    41  C   -0.319815
    42  C    0.610152
    43  O   -0.488880
    44  O   -0.414451
    45  C   -0.075635
    46  C    0.002636
    47  C   -0.136723
    48  C    0.114955
    49  C   -0.360155
    50  C   -0.222421
    51  C   -0.144342
    52  C   -0.131572
    53  C   -0.065548
    54  C   -0.313555
    55  C   -0.168758
    56  C   -0.180525
    57  C   -0.159747
    58  C   -0.044259
    59  C   -0.315076
    60  C   -0.160939
    61  C   -0.169378
    62  C   -0.190982
    63  C   -0.028099
    64  C   -0.319361
    65  C   -0.336871
    66  H    0.064256
    67  H    0.089010
    68  H    0.091942
    69  H    0.153750
    70  H    0.092459
    71  H    0.101155
    72  H    0.120772
    73  H    0.114472
    74  H    0.054333
    75  H    0.136815
    76  H    0.144924
    77  H    0.146902
    78  H    0.123425
    79  H    0.120509
    80  H    0.131556
    81  H    0.078905
    82  H    0.102126
    83  H    0.103983
    84  H    0.136333
    85  H    0.128400
    86  H    0.073527
    87  H    0.100226
    88  H    0.110690
    89  H    0.085041
    90  H    0.085073
    91  H    0.115140
    92  H    0.119099
    93  H    0.152316
    94  H    0.138287
    95  H    0.159251
    96  H    0.108345
    97  H    0.137411
    98  H    0.129593
    99  H    0.139599
   100  H    0.124736
   101  H    0.106543
   102  H    0.097650
   103  H    0.130047
   104  H    0.126191
   105  H    0.083924
   106  H    0.069728
   107  H    0.070818
   108  H    0.084273
   109  H    0.048490
   110  H    0.102008
   111  H    0.078968
   112  H    0.100413
   113  H    0.116282
   114  H    0.092800
   115  H    0.101094
   116  H    0.084698
   117  H    0.096839
   118  H    0.045234
   119  H    0.084856
   120  H    0.083152
   121  H    0.030304
   122  H    0.102955
   123  H    0.114028
   124  H    0.102018
   125  H    0.072392
   126  H    0.102287
   127  H    0.089180
   128  H    0.103072
   129  H    0.084197
   130  H    0.079105
   131  H    0.103577
   132  H    0.106879
   133  H    0.079485
   134  H    0.099775
   135  H    0.096205
   136  H    0.112974
   137  H    0.093008
 Sum of Mulliken charges =  -0.00000

 Dipole moment (field-independent basis, Debye):
    X=              0.9282    Y=              2.2365    Z=              0.9058  Tot=              2.5854
 Quadrupole moment (field-independent basis, Debye-Ang):
   XX=           -333.9231   YY=           -395.9775   ZZ=           -397.3925
   XY=            -23.1778   XZ=             12.0701   YZ=             -3.1727

 Normal termination of Gaussian 16 at Thu Jun 27 03:04:17 2019.
