 Gaussian 16, Revision A.03,
 Gaussian 16:  ES64L-G16RevA.03 25-Dec-2016

 ----------------------------------------------------------------------
 # td=(NStates=1) iop(3/107=0140000000,3/108=0140000000) CAM-B3LYP/6-31
 G(d,p)
 ----------------------------------------------------------------------

 --
 TD
 --
 Symbolic Z-matrix:
 Charge =  0 Multiplicity = 1

                         Standard orientation:
 ---------------------------------------------------------------------
 Center     Atomic      Atomic             Coordinates (Angstroms)
 Number     Number       Type             X           Y           Z
 ---------------------------------------------------------------------
      1         12           0       -7.129356    0.679697    0.104298
      2          6           0       -4.870554   -2.008276    0.519635
      3          6           0       -4.824121    2.782004    1.202312
      4          6           0       -9.463182    3.243305   -0.223365
      5          6           0       -9.506962   -1.723153   -0.876123
      6          7           0       -5.116320    0.363384    0.708587
      7          6           0       -4.372429   -0.708355    0.816716
      8          6           0       -2.900519   -0.535970    1.291818
      9          6           0       -2.954942    0.992714    1.732936
     10          6           0       -4.412911    1.413768    1.251950
     11          6           0       -2.903110    1.130249    3.204459
     12          6           0       -1.896471   -0.669052    0.144412
     13          6           0       -0.444992   -0.569089    0.624661
     14          6           0        0.478794   -0.720215   -0.587751
     15          8           0        0.271875   -0.957073   -1.754068
     16          8           0        1.791934   -0.386174   -0.273111
     17          7           0       -7.147524    2.690639    0.369902
     18          6           0       -5.920582    3.301950    0.818627
     19          6           0       -6.279121    4.765104    0.787272
     20          6           0       -7.609134    4.844909    0.462636
     21          6           0       -8.161955    3.521390    0.161823
     22          6           0       -5.253428    5.854987    1.101305
     23          6           0       -8.377160    6.075426    0.168671
     24          6           0       -8.265423    7.316907    0.683088
     25          7           0       -9.029816    0.776122   -0.491555
     26          6           0       -9.876218    1.899598   -0.608609
     27          6           0      -11.321401    1.528165   -1.059127
     28          6           0      -11.161517    0.171177   -1.271340
     29          6           0       -9.831672   -0.257726   -0.966310
     30          6           0      -12.444106    2.430917   -1.322182
     31          6           0      -12.357931   -0.686018   -1.653099
     32          6           0      -12.353254   -1.123152   -3.187980
     33          7           0       -7.257121   -1.408782   -0.254269
     34          6           0       -8.243359   -2.161067   -0.636867
     35          6           0       -7.937192   -3.577966   -0.470832
     36          6           0       -6.595905   -3.683827   -0.107647
     37          6           0       -6.222676   -2.232844    0.012030
     38          6           0       -8.876099   -4.745589   -0.825557
     39          6           0       -5.416133   -4.492974    0.253933
     40          8           0       -5.314054   -5.679700    0.416351
     41          6           0       -4.201411   -3.427174    0.578391
     42          6           0       -3.488416   -3.682846    1.843524
     43          8           0       -3.643171   -3.123763    2.916480
     44          8           0       -2.659878   -4.760453    1.678759
     45          6           0       -2.104049   -5.344535    2.853720
     46          6           0        2.783879   -0.599726   -1.337368
     47          6           0        4.088487   -0.467298   -0.824614
     48          6           0        5.084277    0.324234   -1.117142
     49          6           0        5.085652    1.420809   -2.291309
     50          6           0        6.430922    0.363974   -0.360409
     51          6           0        7.615704   -0.214689   -1.090243
     52          6           0        8.945731   -0.071819   -0.220245
     53          6           0       10.230648   -0.554374   -0.954885
     54          6           0       10.081508   -1.960387   -1.495007
     55          6           0       11.390531   -0.221013   -0.028770
     56          6           0       12.803149   -0.451906   -0.635461
     57          6           0       13.987683   -0.165618    0.223514
     58          6           0       15.369341   -0.207250   -0.413149
     59          6           0       15.668201   -1.600761   -0.921373
     60          6           0       16.450553    0.296254    0.510674
     61          6           0       17.787683    0.617603   -0.223299
     62          6           0       18.752314    1.172013    0.874285
     63          6           0       20.173836    1.364299    0.339776
     64          6           0       20.257793    2.085657   -1.093970
     65          6           0       21.121038    1.964840    1.443521
     66          1           0       -4.051839    3.543823    1.638555
     67          1           0      -10.132256    4.101274   -0.349846
     68          1           0      -10.204977   -2.388076   -1.239854
     69          1           0       -2.784802   -1.291159    2.122392
     70          1           0       -2.248911    1.574223    1.180256
     71          1           0       -1.812684    0.812084    3.544064
     72          1           0       -2.914123    2.344623    3.676076
     73          1           0       -3.604425    0.514304    3.786378
     74          1           0       -2.035907   -1.562088   -0.300041
     75          1           0       -2.214123   -0.028082   -0.697944
     76          1           0       -0.335287    0.486343    0.962046
     77          1           0       -0.232301   -1.182587    1.506580
     78          1           0       -5.476710    6.684604    0.483630
     79          1           0       -5.548761    6.303811    2.149630
     80          1           0       -4.331301    5.517657    0.981811
     81          1           0       -9.049266    5.919505   -0.565048
     82          1           0       -8.777092    8.183602    0.300478
     83          1           0       -7.377996    7.415792    1.392759
     84          1           0      -12.338198    3.141168   -2.290310
     85          1           0      -13.372944    2.155374   -1.377703
     86          1           0      -12.532423    3.231154   -0.532487
     87          1           0      -12.323724   -1.569250   -0.920352
     88          1           0      -13.296262   -0.178929   -1.491515
     89          1           0      -13.173414   -1.936732   -3.275880
     90          1           0      -12.685205   -0.243937   -3.855117
     91          1           0      -11.239975   -1.437950   -3.467635
     92          1           0       -9.232016   -4.399421   -1.944055
     93          1           0       -8.185220   -5.647382   -1.347268
     94          1           0       -9.777761   -5.110017   -0.159898
     95          1           0       -3.486365   -3.737862   -0.117459
     96          1           0       -1.770437   -4.404478    3.348534
     97          1           0       -2.790909   -5.797234    3.341412
     98          1           0       -1.292547   -6.128489    2.494044
     99          1           0        2.654579   -1.616350   -1.681412
    100          1           0        2.428784    0.173500   -2.127041
    101          1           0        4.291661   -0.973598    0.150703
    102          1           0        4.171545    1.597658   -2.572453
    103          1           0        5.369190    2.269958   -1.965091
    104          1           0        5.625083    1.027401   -3.328046
    105          1           0        6.378698    1.523798   -0.274651
    106          1           0        6.428957    0.083978    0.729182
    107          1           0        7.421466   -1.460776   -1.284280
    108          1           0        7.825109    0.377289   -1.970088
    109          1           0        9.127666    0.836629    0.120265
    110          1           0        8.783064   -0.757743    0.564159
    111          1           0       10.485817    0.058486   -1.956780
    112          1           0        9.340640   -2.004095   -2.200820
    113          1           0       11.112322   -2.359579   -1.743873
    114          1           0        9.612686   -2.501830   -0.567735
    115          1           0       11.482107    0.738579    0.369900
    116          1           0       11.299644   -0.855007    0.855835
    117          1           0       12.878881   -1.601084   -0.980690
    118          1           0       12.799764    0.077749   -1.530325
    119          1           0       13.776915    0.899984    0.601166
    120          1           0       13.893714   -0.702862    1.173275
    121          1           0       15.235129    0.378849   -1.537715
    122          1           0       15.561992   -2.288778    0.001428
    123          1           0       14.886333   -2.023947   -1.403666
    124          1           0       16.502091   -1.536485   -1.602293
    125          1           0       16.176955    1.281052    0.991846
    126          1           0       16.284737   -0.498914    1.419661
    127          1           0       18.249513   -0.409600   -0.263124
    128          1           0       17.616538    0.998496   -1.210879
    129          1           0       18.111247    2.256951    0.950616
    130          1           0       18.603122    0.646284    1.770428
    131          1           0       20.768354    0.422167    0.278469
    132          1           0       19.809552    3.171665   -0.666569
    133          1           0       21.382280    2.071657   -1.372674
    134          1           0       19.429081    1.454014   -1.734171
    135          1           0       21.082040    1.539728    2.417154
    136          1           0       22.294131    1.966847    0.858687
    137          1           0       20.846527    2.898154    1.679919
 ---------------------------------------------------------------------

 SCF Done:  E(RCAM-B3LYP) =  -2933.39719840     A.U. after   16 cycles

 Excitation energies and oscillator strengths:

 Excited State   1:      Singlet-A      2.0232 eV  612.82 nm  f=0.1956  <S**2>=0.000
     240 -> 243        0.25583
     241 -> 242        0.65621
 This state for optimization and/or second-order correction.
 Total Energy, E(TD-HF/TD-DFT) =  -2933.32284852
 Copying the excited state density for this state as the 1-particle RhoCI density.

 The electronic state is 1-A.
 Alpha  occ. eigenvalues --  -46.80490 -19.21411 -19.20051 -19.17282 -19.17016
 Alpha  occ. eigenvalues --  -19.16969 -14.39047 -14.35980 -14.35620 -14.34698
 Alpha  occ. eigenvalues --  -10.34792 -10.34580 -10.31973 -10.27510 -10.26793
 Alpha  occ. eigenvalues --  -10.26536 -10.26247 -10.26094 -10.25413 -10.25130
 Alpha  occ. eigenvalues --  -10.25094 -10.24993 -10.24705 -10.24586 -10.24496
 Alpha  occ. eigenvalues --  -10.24301 -10.24098 -10.24074 -10.24041 -10.23955
 Alpha  occ. eigenvalues --  -10.23848 -10.23654 -10.23115 -10.23070 -10.23047
 Alpha  occ. eigenvalues --  -10.22733 -10.22671 -10.22600 -10.22576 -10.22573
 Alpha  occ. eigenvalues --  -10.22435 -10.22428 -10.22345 -10.22293 -10.22272
 Alpha  occ. eigenvalues --  -10.22261 -10.22255 -10.22098 -10.21971 -10.21883
 Alpha  occ. eigenvalues --  -10.21713 -10.21530 -10.21500 -10.21448 -10.21388
 Alpha  occ. eigenvalues --  -10.21376 -10.20745 -10.20739 -10.20632 -10.20457
 Alpha  occ. eigenvalues --  -10.20450 -10.20238 -10.20115 -10.19751 -10.19203
 Alpha  occ. eigenvalues --   -3.09072  -1.84010  -1.83576  -1.83443  -1.12762
 Alpha  occ. eigenvalues --   -1.11898  -1.07633  -1.04375  -1.02862  -1.00858
 Alpha  occ. eigenvalues --   -1.00070  -0.97365  -0.95884  -0.86569  -0.86077
 Alpha  occ. eigenvalues --   -0.85889  -0.85417  -0.84695  -0.84462  -0.83145
 Alpha  occ. eigenvalues --   -0.82905  -0.82834  -0.82022  -0.81844  -0.81159
 Alpha  occ. eigenvalues --   -0.80281  -0.79559  -0.78610  -0.78280  -0.77226
 Alpha  occ. eigenvalues --   -0.76812  -0.76641  -0.75793  -0.75322  -0.73230
 Alpha  occ. eigenvalues --   -0.72972  -0.72506  -0.71947  -0.71744  -0.71240
 Alpha  occ. eigenvalues --   -0.70403  -0.70158  -0.69496  -0.68765  -0.67295
 Alpha  occ. eigenvalues --   -0.66982  -0.66092  -0.64583  -0.64429  -0.64103
 Alpha  occ. eigenvalues --   -0.62386  -0.62264  -0.61782  -0.60365  -0.60252
 Alpha  occ. eigenvalues --   -0.60126  -0.58566  -0.58397  -0.58340  -0.57909
 Alpha  occ. eigenvalues --   -0.56541  -0.56453  -0.56189  -0.55554  -0.55179
 Alpha  occ. eigenvalues --   -0.54431  -0.54255  -0.54030  -0.53245  -0.52538
 Alpha  occ. eigenvalues --   -0.52122  -0.51826  -0.51587  -0.51381  -0.50776
 Alpha  occ. eigenvalues --   -0.50510  -0.50410  -0.50327  -0.50208  -0.49534
 Alpha  occ. eigenvalues --   -0.49187  -0.49031  -0.48634  -0.48387  -0.48283
 Alpha  occ. eigenvalues --   -0.48109  -0.47730  -0.47471  -0.47157  -0.46797
 Alpha  occ. eigenvalues --   -0.46568  -0.46366  -0.46223  -0.46099  -0.45849
 Alpha  occ. eigenvalues --   -0.45782  -0.45448  -0.45396  -0.45274  -0.45008
 Alpha  occ. eigenvalues --   -0.44663  -0.44435  -0.43962  -0.43911  -0.43424
 Alpha  occ. eigenvalues --   -0.43333  -0.43267  -0.42991  -0.42920  -0.42687
 Alpha  occ. eigenvalues --   -0.42569  -0.42166  -0.42103  -0.41838  -0.41632
 Alpha  occ. eigenvalues --   -0.41401  -0.41169  -0.41062  -0.40861  -0.40739
 Alpha  occ. eigenvalues --   -0.40505  -0.40452  -0.40302  -0.40210  -0.40142
 Alpha  occ. eigenvalues --   -0.39968  -0.39840  -0.39730  -0.39507  -0.39368
 Alpha  occ. eigenvalues --   -0.38866  -0.38780  -0.38674  -0.38353  -0.38269
 Alpha  occ. eigenvalues --   -0.37945  -0.37735  -0.37172  -0.37111  -0.36886
 Alpha  occ. eigenvalues --   -0.36571  -0.36445  -0.36285  -0.36042  -0.35550
 Alpha  occ. eigenvalues --   -0.35348  -0.35296  -0.35277  -0.34987  -0.34556
 Alpha  occ. eigenvalues --   -0.34431  -0.34083  -0.33428  -0.33031  -0.32897
 Alpha  occ. eigenvalues --   -0.32571  -0.32558  -0.32308  -0.31957  -0.31887
 Alpha  occ. eigenvalues --   -0.31820  -0.31468  -0.30801  -0.30739  -0.30311
 Alpha  occ. eigenvalues --   -0.30177  -0.30159  -0.29709  -0.28245  -0.27835
 Alpha  occ. eigenvalues --   -0.27602  -0.27509  -0.25800  -0.24621  -0.21937
 Alpha  occ. eigenvalues --   -0.19347
 Alpha virt. eigenvalues --   -0.06353  -0.04681  -0.00523   0.01985   0.02901
 Alpha virt. eigenvalues --    0.03556   0.04648   0.04808   0.04968   0.04996
 Alpha virt. eigenvalues --    0.06791   0.08593   0.08787   0.09180   0.09494

 Mulliken charges:
               1
     1  Mg   0.821883
     2  C    0.056467
     3  C   -0.214570
     4  C   -0.169670
     5  C   -0.155983
     6  N   -0.602084
     7  C    0.295440
     8  C   -0.165961
     9  C   -0.124072
    10  C    0.288367
    11  C   -0.284111
    12  C   -0.175115
    13  C   -0.269512
    14  C    0.603256
    15  O   -0.461382
    16  O   -0.506433
    17  N   -0.773980
    18  C    0.364124
    19  C    0.014049
    20  C   -0.039550
    21  C    0.377181
    22  C   -0.360467
    23  C   -0.060807
    24  C   -0.252882
    25  N   -0.666987
    26  C    0.232229
    27  C    0.074984
    28  C    0.012604
    29  C    0.272567
    30  C   -0.384790
    31  C   -0.243024
    32  C   -0.302790
    33  N   -0.670441
    34  C    0.325716
    35  C   -0.026040
    36  C    0.074088
    37  C    0.215416
    38  C   -0.376688
    39  C    0.352224
    40  O   -0.427853
    41  C   -0.304620
    42  C    0.619287
    43  O   -0.485938
    44  O   -0.465047
    45  C   -0.071247
    46  C    0.030607
    47  C   -0.109481
    48  C    0.081754
    49  C   -0.341831
    50  C   -0.215284
    51  C   -0.160172
    52  C   -0.168243
    53  C   -0.056513
    54  C   -0.298528
    55  C   -0.174482
    56  C   -0.175233
    57  C   -0.173600
    58  C   -0.050720
    59  C   -0.290323
    60  C   -0.156640
    61  C   -0.197500
    62  C   -0.150117
    63  C   -0.069340
    64  C   -0.284740
    65  C   -0.296076
    66  H    0.087817
    67  H    0.089869
    68  H    0.083287
    69  H    0.136884
    70  H    0.113228
    71  H    0.089107
    72  H    0.065148
    73  H    0.139867
    74  H    0.125969
    75  H    0.119219
    76  H    0.142126
    77  H    0.147656
    78  H    0.134902
    79  H    0.116177
    80  H    0.114597
    81  H    0.080989
    82  H    0.106370
    83  H    0.078535
    84  H    0.102743
    85  H    0.129892
    86  H    0.113709
    87  H    0.098534
    88  H    0.104665
    89  H    0.099497
    90  H    0.106488
    91  H    0.102779
    92  H    0.102192
    93  H    0.115094
    94  H    0.133156
    95  H    0.160981
    96  H    0.124133
    97  H    0.145513
    98  H    0.113059
    99  H    0.127302
   100  H    0.112049
   101  H    0.083510
   102  H    0.117266
   103  H    0.121831
   104  H    0.094648
   105  H    0.085451
   106  H    0.090212
   107  H    0.071301
   108  H    0.108359
   109  H    0.100882
   110  H    0.099012
   111  H    0.048721
   112  H    0.125127
   113  H    0.101314
   114  H    0.073805
   115  H    0.098263
   116  H    0.083643
   117  H    0.059898
   118  H    0.100097
   119  H    0.071594
   120  H    0.086893
   121  H    0.031907
   122  H    0.076161
   123  H    0.112573
   124  H    0.106561
   125  H    0.081384
   126  H    0.072935
   127  H    0.102170
   128  H    0.115046
   129  H    0.048121
   130  H    0.112654
   131  H    0.091465
   132  H    0.087070
   133  H    0.108985
   134  H    0.100479
   135  H    0.106572
   136  H    0.047563
   137  H    0.111620
 Sum of Mulliken charges =  -0.00000

 Dipole moment (field-independent basis, Debye):
    X=              1.1487    Y=              3.2050    Z=              0.3611  Tot=              3.4237
 Quadrupole moment (field-independent basis, Debye-Ang):
   XX=           -363.0446   YY=           -397.9960   ZZ=           -399.9755
   XY=            -18.9468   XZ=             18.2119   YZ=             -3.4841

 Normal termination of Gaussian 16 at Sat Sep 14 16:05:33 2019.
