 Gaussian 09, Revision D.01,
 Gaussian 09:  ES64L-G09RevD.01 24-Apr-2013

 -------------------------------------
 # td=(NStates=1) CAM-B3LYP/6-31G(d,p)
 -------------------------------------

 --
 TD
 --
 Symbolic Z-matrix:
 Charge =  0 Multiplicity = 1

                         Standard orientation:
 ---------------------------------------------------------------------
 Center     Atomic      Atomic             Coordinates (Angstroms)
 Number     Number       Type             X           Y           Z
 ---------------------------------------------------------------------
      1         12           0       -7.038879    0.652459   -0.019099
      2          6           0       -4.797491   -1.973984    0.483142
      3          6           0       -4.761350    2.785104    1.229673
      4          6           0       -9.354734    3.025532   -0.483863
      5          6           0       -9.528921   -1.815183   -0.854673
      6          7           0       -5.080929    0.319887    0.699850
      7          6           0       -4.315014   -0.723216    0.874091
      8          6           0       -2.867391   -0.406777    1.312482
      9          6           0       -3.030836    1.063606    1.698339
     10          6           0       -4.423437    1.438714    1.155189
     11          6           0       -2.794078    1.344874    3.208323
     12          6           0       -1.926642   -0.695491    0.154735
     13          6           0       -0.470886   -0.421962    0.571370
     14          6           0        0.528424   -0.601017   -0.576598
     15          8           0        0.231838   -0.848721   -1.742403
     16          8           0        1.835710   -0.462127   -0.137305
     17          7           0       -7.013774    2.591297    0.268174
     18          6           0       -5.987329    3.339433    0.648924
     19          6           0       -6.376984    4.760650    0.787191
     20          6           0       -7.676581    4.807420    0.225894
     21          6           0       -8.099485    3.517716   -0.043676
     22          6           0       -5.523757    5.978214    1.091572
     23          6           0       -8.552874    5.918179    0.112876
     24          6           0       -8.565078    7.027722    0.936775
     25          7           0       -9.104737    0.638041   -0.550073
     26          6           0       -9.837598    1.755819   -0.703500
     27          6           0      -11.266756    1.473514   -1.065400
     28          6           0      -11.259047    0.080968   -1.259161
     29          6           0       -9.934654   -0.432447   -0.846989
     30          6           0      -12.380067    2.430613   -1.130151
     31          6           0      -12.445367   -0.721366   -1.629375
     32          6           0      -12.510981   -1.181680   -3.113790
     33          7           0       -7.182673   -1.404274   -0.154819
     34          6           0       -8.239478   -2.268205   -0.500410
     35          6           0       -7.809254   -3.663810   -0.487463
     36          6           0       -6.516347   -3.537319   -0.106833
     37          6           0       -6.124012   -2.183782   -0.001243
     38          6           0       -8.701100   -4.808437   -0.892607
     39          6           0       -5.319358   -4.361555    0.197548
     40          8           0       -5.272454   -5.569979    0.340994
     41          6           0       -4.096523   -3.331669    0.610842
     42          6           0       -3.533624   -3.632488    1.909492
     43          8           0       -3.739389   -3.026172    2.895249
     44          8           0       -2.762174   -4.720325    1.870694
     45          6           0       -2.119147   -5.133764    3.023338
     46          6           0        2.751721   -0.536948   -1.219182
     47          6           0        4.126799   -0.413912   -0.614674
     48          6           0        5.069605    0.456542   -1.038243
     49          6           0        5.078429    1.342619   -2.335253
     50          6           0        6.383035    0.520090   -0.316617
     51          6           0        7.645471   -0.032717   -1.059349
     52          6           0        8.927178    0.031204   -0.277945
     53          6           0       10.138710   -0.552654   -1.064256
     54          6           0       10.062467   -1.972938   -1.366958
     55          6           0       11.377529   -0.196960   -0.161513
     56          6           0       12.823379   -0.484348   -0.821537
     57          6           0       13.907138   -0.126535    0.118828
     58          6           0       15.296405   -0.144514   -0.558011
     59          6           0       15.644117   -1.496060   -1.226843
     60          6           0       16.437538    0.307969    0.431935
     61          6           0       17.907255    0.517759   -0.095389
     62          6           0       18.766547    1.139978    0.938941
     63          6           0       20.202636    1.302589    0.311900
     64          6           0       20.521732    1.987532   -0.832177
     65          6           0       21.107661    1.732305    1.510972
     66          1           0       -4.210483    3.500725    1.512425
     67          1           0      -10.078142    3.787800   -0.567701
     68          1           0      -10.245573   -2.421634   -1.141341
     69          1           0       -2.685383   -1.205837    2.141552
     70          1           0       -2.339711    1.737713    1.087580
     71          1           0       -1.880983    0.705450    3.377916
     72          1           0       -2.924151    2.342804    3.403165
     73          1           0       -3.714966    0.855742    3.919790
     74          1           0       -2.028349   -1.578597   -0.376533
     75          1           0       -2.275476    0.070354   -0.552787
     76          1           0       -0.428095    0.590935    1.108990
     77          1           0       -0.154202   -1.311627    1.301374
     78          1           0       -5.753769    6.869423    0.565322
     79          1           0       -5.631474    6.112903    2.101839
     80          1           0       -4.521020    5.652650    0.673943
     81          1           0       -9.263886    5.876136   -0.761454
     82          1           0       -9.396913    7.639570    0.614577
     83          1           0       -7.912263    7.030977    1.728003
     84          1           0      -12.324570    3.108041   -1.985632
     85          1           0      -13.419024    2.060695   -1.047223
     86          1           0      -12.228182    3.186666   -0.293500
     87          1           0      -12.345111   -1.561278   -0.964718
     88          1           0      -13.507110   -0.302706   -1.625541
     89          1           0      -13.115146   -2.053492   -3.581982
     90          1           0      -12.450027   -0.418858   -3.910417
     91          1           0      -11.617298   -1.702544   -3.387280
     92          1           0       -9.002654   -4.621324   -1.804371
     93          1           0       -8.049465   -5.701074   -0.834350
     94          1           0       -9.652373   -4.959233   -0.299545
     95          1           0       -3.434963   -3.479304   -0.356538
     96          1           0       -1.418983   -4.306784    3.438595
     97          1           0       -3.106060   -5.302273    3.786331
     98          1           0       -1.664152   -5.993750    2.832541
     99          1           0        2.406082   -1.494901   -1.709379
    100          1           0        2.439826    0.216946   -2.080992
    101          1           0        4.151891   -0.791802    0.455538
    102          1           0        4.027470    1.744209   -2.473539
    103          1           0        5.887087    2.160686   -2.116364
    104          1           0        5.463262    0.819772   -3.451289
    105          1           0        6.452204    1.524928   -0.018994
    106          1           0        6.263208   -0.010095    0.610888
    107          1           0        7.500976   -1.098149   -1.505186
    108          1           0        7.893203    0.481477   -1.951804
    109          1           0        9.002719    1.105488    0.168039
    110          1           0        8.822834   -0.600176    0.568187
    111          1           0       10.415505    0.032064   -2.104439
    112          1           0        9.154572   -2.200765   -1.880133
    113          1           0       10.925730   -2.485794   -1.742970
    114          1           0        9.748411   -2.443473   -0.423559
    115          1           0       11.577348    0.920329    0.284754
    116          1           0       11.319503   -0.800519    0.852644
    117          1           0       12.835019   -1.692983   -1.141551
    118          1           0       12.894924    0.042349   -1.791426
    119          1           0       14.118042    1.016650    0.679159
    120          1           0       13.992807   -0.927618    0.883112
    121          1           0       15.368093    0.456963   -1.485341
    122          1           0       15.562129   -2.080357   -0.359281
    123          1           0       15.023038   -1.907549   -1.969044
    124          1           0       16.711151   -1.563239   -1.574815
    125          1           0       16.235530    1.288300    1.094352
    126          1           0       16.533188   -0.545189    1.240347
    127          1           0       18.256855   -0.633419   -0.360376
    128          1           0       17.800304    1.194634   -0.982728
    129          1           0       18.436188    2.118107    1.132074
    130          1           0       18.876564    0.502821    1.950390
    131          1           0       20.476639    0.200320    0.305674
    132          1           0       20.439337    3.124946   -0.776213
    133          1           0       21.520900    1.632053   -1.004629
    134          1           0       19.800102    1.686201   -1.607220
    135          1           0       20.900533    1.014246    2.357514
    136          1           0       22.169932    1.857128    1.318791
    137          1           0       20.824368    2.692017    1.912053
 ---------------------------------------------------------------------

 SCF Done:  E(RCAM-B3LYP) =  -2932.69138979     A.U. after   15 cycles

 Excitation energies and oscillator strengths:

 Excited State   1:      Singlet-A      2.0180 eV  614.39 nm  f=0.2637  <S**2>=0.000
     240 -> 243       -0.24763
     241 -> 242        0.65686
 This state for optimization and/or second-order correction.
 Total Energy, E(TD-HF/TD-KS) =  -2932.61722889
 Copying the excited state density for this state as the 1-particle RhoCI density.

 The electronic state is 1-A.
 Alpha  occ. eigenvalues --  -46.84593 -19.26307 -19.25681 -19.21951 -19.21186
 Alpha  occ. eigenvalues --  -19.20955 -14.41686 -14.39663 -14.39393 -14.39334
 Alpha  occ. eigenvalues --  -10.40011 -10.38758 -10.35913 -10.32021 -10.31875
 Alpha  occ. eigenvalues --  -10.30777 -10.30525 -10.29742 -10.29597 -10.29596
 Alpha  occ. eigenvalues --  -10.29473 -10.29091 -10.28997 -10.28933 -10.28851
 Alpha  occ. eigenvalues --  -10.28641 -10.28561 -10.27961 -10.27901 -10.27727
 Alpha  occ. eigenvalues --  -10.27675 -10.27158 -10.27136 -10.27122 -10.27050
 Alpha  occ. eigenvalues --  -10.27033 -10.27002 -10.26993 -10.26893 -10.26748
 Alpha  occ. eigenvalues --  -10.26745 -10.26744 -10.26571 -10.26562 -10.26506
 Alpha  occ. eigenvalues --  -10.26469 -10.26437 -10.26263 -10.25936 -10.25911
 Alpha  occ. eigenvalues --  -10.25863 -10.25713 -10.25694 -10.25688 -10.25636
 Alpha  occ. eigenvalues --  -10.25538 -10.25357 -10.25351 -10.25158 -10.25025
 Alpha  occ. eigenvalues --  -10.24714 -10.24208 -10.24067 -10.23691 -10.23243
 Alpha  occ. eigenvalues --   -3.13624  -1.88325  -1.87865  -1.87805  -1.20224
 Alpha  occ. eigenvalues --   -1.17885  -1.11397  -1.11283  -1.09349  -1.05492
 Alpha  occ. eigenvalues --   -1.03987  -1.02852  -1.01959  -0.91781  -0.91133
 Alpha  occ. eigenvalues --   -0.90915  -0.90567  -0.89646  -0.89625  -0.88742
 Alpha  occ. eigenvalues --   -0.88704  -0.88184  -0.87670  -0.87382  -0.85509
 Alpha  occ. eigenvalues --   -0.84733  -0.84229  -0.83868  -0.83224  -0.82731
 Alpha  occ. eigenvalues --   -0.81954  -0.81238  -0.80766  -0.80168  -0.78811
 Alpha  occ. eigenvalues --   -0.78005  -0.77216  -0.76504  -0.76465  -0.75687
 Alpha  occ. eigenvalues --   -0.75349  -0.74743  -0.73913  -0.73121  -0.72656
 Alpha  occ. eigenvalues --   -0.71208  -0.70412  -0.69945  -0.68775  -0.68110
 Alpha  occ. eigenvalues --   -0.67485  -0.66004  -0.65007  -0.64783  -0.64429
 Alpha  occ. eigenvalues --   -0.63383  -0.63111  -0.62339  -0.62063  -0.61733
 Alpha  occ. eigenvalues --   -0.61502  -0.60650  -0.60358  -0.59619  -0.59252
 Alpha  occ. eigenvalues --   -0.58828  -0.58520  -0.57834  -0.57573  -0.56537
 Alpha  occ. eigenvalues --   -0.56309  -0.55845  -0.55368  -0.55030  -0.54607
 Alpha  occ. eigenvalues --   -0.54428  -0.54097  -0.54053  -0.53540  -0.53274
 Alpha  occ. eigenvalues --   -0.52888  -0.52584  -0.52574  -0.52128  -0.51984
 Alpha  occ. eigenvalues --   -0.51706  -0.51648  -0.51502  -0.51238  -0.50439
 Alpha  occ. eigenvalues --   -0.50304  -0.50177  -0.50146  -0.50044  -0.49867
 Alpha  occ. eigenvalues --   -0.49693  -0.49443  -0.49093  -0.48975  -0.48841
 Alpha  occ. eigenvalues --   -0.48193  -0.48039  -0.47912  -0.47845  -0.47483
 Alpha  occ. eigenvalues --   -0.47048  -0.46987  -0.46806  -0.46277  -0.46085
 Alpha  occ. eigenvalues --   -0.45952  -0.45785  -0.45665  -0.45461  -0.45007
 Alpha  occ. eigenvalues --   -0.44756  -0.44645  -0.44598  -0.44528  -0.44469
 Alpha  occ. eigenvalues --   -0.44193  -0.43876  -0.43658  -0.43533  -0.43155
 Alpha  occ. eigenvalues --   -0.42908  -0.42718  -0.42601  -0.42448  -0.42315
 Alpha  occ. eigenvalues --   -0.42137  -0.42022  -0.41912  -0.41691  -0.41510
 Alpha  occ. eigenvalues --   -0.41371  -0.41151  -0.40999  -0.40747  -0.40358
 Alpha  occ. eigenvalues --   -0.40048  -0.39974  -0.39917  -0.39040  -0.38952
 Alpha  occ. eigenvalues --   -0.38914  -0.38208  -0.38033  -0.37826  -0.37702
 Alpha  occ. eigenvalues --   -0.37433  -0.37119  -0.37066  -0.36780  -0.36545
 Alpha  occ. eigenvalues --   -0.36048  -0.35720  -0.35666  -0.35316  -0.35098
 Alpha  occ. eigenvalues --   -0.34992  -0.34665  -0.34435  -0.34381  -0.34040
 Alpha  occ. eigenvalues --   -0.33454  -0.32743  -0.31728  -0.31055  -0.30210
 Alpha  occ. eigenvalues --   -0.29765  -0.29591  -0.27921  -0.26910  -0.22862
 Alpha  occ. eigenvalues --   -0.21181
 Alpha virt. eigenvalues --   -0.06618  -0.02762   0.01879   0.04044   0.04907
 Alpha virt. eigenvalues --    0.05208   0.05450   0.05800   0.06837   0.07534
 Alpha virt. eigenvalues --    0.08610   0.10742   0.11062   0.11187   0.11628

 Mulliken charges:
               1
     1  Mg   0.827197
     2  C   -0.000467
     3  C   -0.133593
     4  C   -0.172811
     5  C   -0.135088
     6  N   -0.635085
     7  C    0.327098
     8  C   -0.161514
     9  C   -0.165798
    10  C    0.339890
    11  C   -0.281648
    12  C   -0.155867
    13  C   -0.264836
    14  C    0.616303
    15  O   -0.474005
    16  O   -0.482891
    17  N   -0.710844
    18  C    0.279519
    19  C   -0.053921
    20  C    0.049415
    21  C    0.275711
    22  C   -0.361867
    23  C   -0.125411
    24  C   -0.221905
    25  N   -0.679061
    26  C    0.309253
    27  C    0.064982
    28  C    0.001092
    29  C    0.268994
    30  C   -0.391241
    31  C   -0.245171
    32  C   -0.338518
    33  N   -0.710256
    34  C    0.243116
    35  C    0.044279
    36  C   -0.022980
    37  C    0.341737
    38  C   -0.364364
    39  C    0.349342
    40  O   -0.442308
    41  C   -0.335298
    42  C    0.647540
    43  O   -0.456739
    44  O   -0.439667
    45  C   -0.061221
    46  C    0.015977
    47  C   -0.138844
    48  C    0.108638
    49  C   -0.334046
    50  C   -0.230662
    51  C   -0.177407
    52  C   -0.167036
    53  C   -0.055303
    54  C   -0.309964
    55  C   -0.161926
    56  C   -0.179649
    57  C   -0.140679
    58  C   -0.077532
    59  C   -0.320812
    60  C   -0.176320
    61  C   -0.166444
    62  C   -0.163147
    63  C   -0.053214
    64  C   -0.292220
    65  C   -0.316346
    66  H    0.045947
    67  H    0.074311
    68  H    0.069919
    69  H    0.126335
    70  H    0.103995
    71  H    0.114763
    72  H    0.123026
    73  H    0.090403
    74  H    0.126058
    75  H    0.112491
    76  H    0.136234
    77  H    0.121863
    78  H    0.133588
    79  H    0.135228
    80  H    0.111361
    81  H    0.092257
    82  H    0.106155
    83  H    0.102731
    84  H    0.126730
    85  H    0.125367
    86  H    0.116586
    87  H    0.109632
    88  H    0.113692
    89  H    0.095043
    90  H    0.111720
    91  H    0.102459
    92  H    0.142916
    93  H    0.144980
    94  H    0.124730
    95  H    0.155724
    96  H    0.107570
    97  H    0.099394
    98  H    0.133378
    99  H    0.124666
   100  H    0.105836
   101  H    0.103147
   102  H    0.117600
   103  H    0.106182
   104  H    0.095307
   105  H    0.105814
   106  H    0.096012
   107  H    0.084177
   108  H    0.104291
   109  H    0.088801
   110  H    0.099907
   111  H    0.058190
   112  H    0.111086
   113  H    0.117389
   114  H    0.097663
   115  H    0.076870
   116  H    0.071382
   117  H    0.069886
   118  H    0.099141
   119  H    0.071747
   120  H    0.097257
   121  H    0.081710
   122  H    0.098709
   123  H    0.109210
   124  H    0.095200
   125  H    0.068363
   126  H    0.069708
   127  H    0.074754
   128  H    0.096572
   129  H    0.098232
   130  H    0.080840
   131  H    0.084134
   132  H    0.091879
   133  H    0.117402
   134  H    0.097235
   135  H    0.085989
   136  H    0.091732
   137  H    0.095233
 Sum of Mulliken charges =   0.00000

 Dipole moment (field-independent basis, Debye):
    X=              1.0150    Y=              3.4786    Z=             -0.5927  Tot=              3.6718
 Quadrupole moment (field-independent basis, Debye-Ang):
   XX=           -356.0679   YY=           -392.2084   ZZ=           -400.1828
   XY=            -16.9199   XZ=             13.2632   YZ=              1.6064

 Normal termination of Gaussian 09 at Wed Jul  3 10:57:28 2019.
