 Gaussian 16, Revision A.03,
 Gaussian 16:  ES64L-G16RevA.03 25-Dec-2016

 ----------------------------------------------------------------------
 # td=(NStates=1) iop(3/107=0140000000,3/108=0140000000) CAM-B3LYP/6-31
 G(d,p)
 ----------------------------------------------------------------------

 --
 TD
 --
 Symbolic Z-matrix:
 Charge =  0 Multiplicity = 1

                         Standard orientation:
 ---------------------------------------------------------------------
 Center     Atomic      Atomic             Coordinates (Angstroms)
 Number     Number       Type             X           Y           Z
 ---------------------------------------------------------------------
      1         12           0       -7.124494    0.620175    0.079371
      2          6           0       -4.754406   -1.926756    0.377527
      3          6           0       -4.759285    2.787025    1.280951
      4          6           0       -9.359778    3.076969   -0.410689
      5          6           0       -9.451480   -1.756865   -0.853746
      6          7           0       -5.154567    0.461091    0.608291
      7          6           0       -4.385596   -0.720909    0.718433
      8          6           0       -3.006489   -0.458709    1.306110
      9          6           0       -3.073217    0.968181    1.738437
     10          6           0       -4.371501    1.439987    1.231757
     11          6           0       -3.061518    1.188948    3.228615
     12          6           0       -2.009205   -0.651569    0.079610
     13          6           0       -0.444084   -0.476242    0.573675
     14          6           0        0.526202   -0.754166   -0.562750
     15          8           0        0.183476   -1.002327   -1.744180
     16          8           0        1.805015   -0.587009   -0.150827
     17          7           0       -7.094497    2.606228    0.455803
     18          6           0       -5.993978    3.304944    0.866849
     19          6           0       -6.423569    4.797712    0.807916
     20          6           0       -7.704575    4.893888    0.468107
     21          6           0       -8.107581    3.561551    0.103486
     22          6           0       -5.561211    5.909005    1.062995
     23          6           0       -8.505910    6.009049    0.191298
     24          6           0       -8.380227    7.123498    0.888652
     25          7           0       -9.070357    0.680373   -0.586605
     26          6           0       -9.814889    1.783199   -0.691255
     27          6           0      -11.133055    1.472123   -1.120902
     28          6           0      -11.138267    0.144593   -1.363164
     29          6           0       -9.834768   -0.376115   -0.940361
     30          6           0      -12.207623    2.476562   -1.382609
     31          6           0      -12.241575   -0.698360   -1.730689
     32          6           0      -12.051231   -0.930726   -3.234224
     33          7           0       -7.187797   -1.389322   -0.253230
     34          6           0       -8.264463   -2.207922   -0.477296
     35          6           0       -7.844261   -3.661461   -0.610476
     36          6           0       -6.480564   -3.558922   -0.113554
     37          6           0       -6.133511   -2.217487    0.080164
     38          6           0       -8.592225   -4.875924   -0.889270
     39          6           0       -5.281550   -4.401000    0.222845
     40          8           0       -5.145733   -5.575932    0.304201
     41          6           0       -4.096523   -3.279955    0.572203
     42          6           0       -3.570829   -3.725668    1.904507
     43          8           0       -3.682196   -3.067743    2.876650
     44          8           0       -2.778045   -4.776317    1.782916
     45          6           0       -2.122526   -5.086222    3.021746
     46          6           0        2.754209   -0.613545   -1.264841
     47          6           0        4.101035   -0.419262   -0.827127
     48          6           0        5.127633    0.345196   -1.211025
     49          6           0        5.057716    1.181857   -2.522314
     50          6           0        6.358546    0.535902   -0.357591
     51          6           0        7.617075   -0.090733   -1.068850
     52          6           0        8.840079    0.025874   -0.142567
     53          6           0       10.176547   -0.607547   -0.721461
     54          6           0       10.091131   -2.101689   -1.070370
     55          6           0       11.412424   -0.306054    0.187800
     56          6           0       12.726011   -0.516719   -0.505520
     57          6           0       13.900848   -0.033462    0.340576
     58          6           0       15.302286   -0.296273   -0.428695
     59          6           0       15.738796   -1.666989   -0.655526
     60          6           0       16.275251    0.367561    0.589899
     61          6           0       17.684723    0.474514   -0.086468
     62          6           0       18.720555    1.327836    0.693302
     63          6           0       20.205495    1.416499    0.068203
     64          6           0       20.140418    2.116956   -1.257099
     65          6           0       21.231112    2.066506    1.101230
     66          1           0       -4.055981    3.577498    1.717736
     67          1           0      -10.020508    3.804236   -0.604023
     68          1           0      -10.155493   -2.488994   -1.249815
     69          1           0       -2.781151   -0.880172    2.094864
     70          1           0       -2.347156    1.550590    1.292971
     71          1           0       -2.080420    1.094534    3.637620
     72          1           0       -3.416742    2.321346    3.513918
     73          1           0       -4.086670    0.746746    3.611100
     74          1           0       -2.032830   -1.642984   -0.331647
     75          1           0       -1.938522    0.013054   -0.944833
     76          1           0       -0.233819    0.420568    0.775880
     77          1           0       -0.120301   -1.201407    1.455720
     78          1           0       -5.840101    6.671282    0.661643
     79          1           0       -5.659185    6.194574    2.131015
     80          1           0       -4.362345    5.869290    0.819742
     81          1           0       -9.203080    5.995234   -0.546085
     82          1           0       -9.242507    7.886087    0.847370
     83          1           0       -7.636545    7.335129    1.789354
     84          1           0      -11.967359    3.112774   -2.273608
     85          1           0      -13.173200    2.068143   -1.792633
     86          1           0      -12.355811    3.103075   -0.576988
     87          1           0      -12.183250   -1.747866   -1.328709
     88          1           0      -13.273757   -0.298169   -1.589446
     89          1           0      -12.649104   -1.849098   -3.639477
     90          1           0      -12.353749   -0.066072   -3.839916
     91          1           0      -11.118070   -1.313710   -3.570965
     92          1           0       -9.019025   -4.939211   -1.797009
     93          1           0       -8.127446   -5.766512   -0.853226
     94          1           0       -9.535634   -5.219851   -0.260610
     95          1           0       -3.365016   -3.598696   -0.316916
     96          1           0       -1.540706   -4.332207    3.578957
     97          1           0       -3.043687   -5.227661    3.785607
     98          1           0       -1.571945   -5.960964    2.807930
     99          1           0        2.782478   -1.666805   -1.834007
    100          1           0        2.296459   -0.013611   -2.082827
    101          1           0        4.173966   -0.917323    0.143019
    102          1           0        3.915738    1.054426   -2.821327
    103          1           0        5.643672    2.277852   -2.447871
    104          1           0        5.676502    0.449715   -3.326530
    105          1           0        6.395887    1.535215   -0.185760
    106          1           0        6.335971   -0.013978    0.689000
    107          1           0        7.334531   -1.194091   -1.183141
    108          1           0        7.577088    0.339168   -2.051407
    109          1           0        9.004168    1.029552    0.193906
    110          1           0        8.768627   -0.722693    0.763727
    111          1           0       10.339228   -0.024617   -1.545269
    112          1           0        9.369925   -2.365578   -1.883057
    113          1           0       11.027219   -2.315965   -1.789950
    114          1           0        9.847725   -2.862208   -0.241947
    115          1           0       11.389442    0.869163    0.403566
    116          1           0       11.461794   -0.970510    1.238536
    117          1           0       12.751759   -1.476795   -0.708437
    118          1           0       12.723668    0.049640   -1.475994
    119          1           0       13.877975    0.803881    0.608209
    120          1           0       13.892262   -0.814349    1.099866
    121          1           0       15.252172    0.397376   -1.209947
    122          1           0       15.809304   -2.051733    0.479501
    123          1           0       15.076367   -2.169673   -1.342245
    124          1           0       16.489953   -1.840591   -1.159880
    125          1           0       16.024297    1.419088    0.782795
    126          1           0       16.137182   -0.180180    1.570837
    127          1           0       18.150616   -0.364558   -0.363385
    128          1           0       17.397646    1.053696   -1.167130
    129          1           0       18.324639    2.394811    0.800130
    130          1           0       18.746903    0.769247    1.609659
    131          1           0       20.494987    0.343755   -0.245463
    132          1           0       19.883332    3.297962   -1.018515
    133          1           0       21.240285    2.175461   -1.804825
    134          1           0       19.465028    1.563397   -1.969081
    135          1           0       21.106632    1.403681    1.913343
    136          1           0       22.343196    2.188826    0.876938
    137          1           0       20.987087    3.170575    1.368354
 ---------------------------------------------------------------------

 SCF Done:  E(RCAM-B3LYP) =  -2933.36473244     A.U. after   15 cycles

 Excitation energies and oscillator strengths:

 Excited State   1:      Singlet-A      2.0482 eV  605.33 nm  f=0.2769  <S**2>=0.000
     240 -> 243       -0.20551
     241 -> 242        0.66972
 This state for optimization and/or second-order correction.
 Total Energy, E(TD-HF/TD-DFT) =  -2933.28946250
 Copying the excited state density for this state as the 1-particle RhoCI density.

 The electronic state is 1-A.
 Alpha  occ. eigenvalues --  -46.78788 -19.23245 -19.22099 -19.16769 -19.16676
 Alpha  occ. eigenvalues --  -19.16052 -14.37360 -14.35205 -14.34957 -14.34324
 Alpha  occ. eigenvalues --  -10.34874 -10.33531 -10.30614 -10.28199 -10.27043
 Alpha  occ. eigenvalues --  -10.26383 -10.25956 -10.25540 -10.25189 -10.25168
 Alpha  occ. eigenvalues --  -10.24741 -10.24312 -10.24222 -10.24199 -10.23834
 Alpha  occ. eigenvalues --  -10.23821 -10.23445 -10.23027 -10.22980 -10.22923
 Alpha  occ. eigenvalues --  -10.22868 -10.22860 -10.22451 -10.22429 -10.22384
 Alpha  occ. eigenvalues --  -10.22199 -10.22162 -10.21932 -10.21791 -10.21759
 Alpha  occ. eigenvalues --  -10.21651 -10.21639 -10.21620 -10.21604 -10.21557
 Alpha  occ. eigenvalues --  -10.21551 -10.21423 -10.21324 -10.21318 -10.21259
 Alpha  occ. eigenvalues --  -10.21228 -10.21199 -10.21145 -10.21136 -10.20909
 Alpha  occ. eigenvalues --  -10.20869 -10.20642 -10.20576 -10.20500 -10.20498
 Alpha  occ. eigenvalues --  -10.20463 -10.20419 -10.19252 -10.18844 -10.18353
 Alpha  occ. eigenvalues --   -3.07544  -1.82482  -1.82012  -1.81964  -1.14679
 Alpha  occ. eigenvalues --   -1.12752  -1.07899  -1.05584  -1.02919  -0.99010
 Alpha  occ. eigenvalues --   -0.98066  -0.97160  -0.96283  -0.87003  -0.86224
 Alpha  occ. eigenvalues --   -0.85963  -0.85680  -0.85168  -0.84210  -0.83850
 Alpha  occ. eigenvalues --   -0.82907  -0.82595  -0.82289  -0.81790  -0.81406
 Alpha  occ. eigenvalues --   -0.80361  -0.79733  -0.79009  -0.78363  -0.77902
 Alpha  occ. eigenvalues --   -0.76563  -0.76388  -0.76192  -0.75112  -0.74274
 Alpha  occ. eigenvalues --   -0.73581  -0.72270  -0.72034  -0.71282  -0.70494
 Alpha  occ. eigenvalues --   -0.70069  -0.69964  -0.68882  -0.68237  -0.67755
 Alpha  occ. eigenvalues --   -0.67094  -0.65984  -0.65076  -0.64337  -0.63697
 Alpha  occ. eigenvalues --   -0.62498  -0.62088  -0.61576  -0.60777  -0.60597
 Alpha  occ. eigenvalues --   -0.59950  -0.59595  -0.59540  -0.57985  -0.57857
 Alpha  occ. eigenvalues --   -0.57105  -0.56800  -0.56478  -0.55963  -0.55485
 Alpha  occ. eigenvalues --   -0.55082  -0.54553  -0.53977  -0.53704  -0.53368
 Alpha  occ. eigenvalues --   -0.52638  -0.52140  -0.51911  -0.51338  -0.51163
 Alpha  occ. eigenvalues --   -0.50661  -0.50431  -0.50116  -0.49810  -0.49380
 Alpha  occ. eigenvalues --   -0.48796  -0.48790  -0.48342  -0.48204  -0.47928
 Alpha  occ. eigenvalues --   -0.47333  -0.47243  -0.46945  -0.46850  -0.46803
 Alpha  occ. eigenvalues --   -0.46499  -0.46390  -0.46315  -0.46123  -0.45778
 Alpha  occ. eigenvalues --   -0.45756  -0.45615  -0.45320  -0.45162  -0.44671
 Alpha  occ. eigenvalues --   -0.44518  -0.44404  -0.43966  -0.43794  -0.43630
 Alpha  occ. eigenvalues --   -0.43525  -0.43118  -0.42761  -0.42280  -0.42032
 Alpha  occ. eigenvalues --   -0.41913  -0.41687  -0.41620  -0.41350  -0.41196
 Alpha  occ. eigenvalues --   -0.41067  -0.40950  -0.40762  -0.40721  -0.40542
 Alpha  occ. eigenvalues --   -0.40483  -0.40288  -0.40054  -0.39953  -0.39896
 Alpha  occ. eigenvalues --   -0.39613  -0.39426  -0.39320  -0.39055  -0.38909
 Alpha  occ. eigenvalues --   -0.38800  -0.38555  -0.38338  -0.38272  -0.37951
 Alpha  occ. eigenvalues --   -0.37834  -0.37596  -0.37138  -0.37068  -0.37009
 Alpha  occ. eigenvalues --   -0.36773  -0.36726  -0.36522  -0.36076  -0.35797
 Alpha  occ. eigenvalues --   -0.35666  -0.35398  -0.35299  -0.35143  -0.35002
 Alpha  occ. eigenvalues --   -0.34585  -0.34447  -0.34268  -0.33946  -0.33435
 Alpha  occ. eigenvalues --   -0.33351  -0.33195  -0.33152  -0.32891  -0.32725
 Alpha  occ. eigenvalues --   -0.32478  -0.32416  -0.31568  -0.30423  -0.30293
 Alpha  occ. eigenvalues --   -0.29927  -0.29236  -0.29177  -0.28158  -0.26261
 Alpha  occ. eigenvalues --   -0.26169  -0.26070  -0.25467  -0.24990  -0.21943
 Alpha  occ. eigenvalues --   -0.19385
 Alpha virt. eigenvalues --   -0.06550  -0.03358   0.00649   0.02309   0.03438
 Alpha virt. eigenvalues --    0.04573   0.04659   0.04923   0.05535   0.05774
 Alpha virt. eigenvalues --    0.06962   0.08776   0.09001   0.09611   0.10081

 Mulliken charges:
               1
     1  Mg   0.798496
     2  C    0.079244
     3  C   -0.218240
     4  C   -0.163616
     5  C   -0.162397
     6  N   -0.641404
     7  C    0.282956
     8  C   -0.070114
     9  C   -0.139312
    10  C    0.344415
    11  C   -0.317022
    12  C   -0.195545
    13  C   -0.258290
    14  C    0.594925
    15  O   -0.492679
    16  O   -0.462846
    17  N   -0.712460
    18  C    0.356486
    19  C   -0.010237
    20  C    0.090353
    21  C    0.242538
    22  C   -0.372269
    23  C   -0.054955
    24  C   -0.251024
    25  N   -0.700523
    26  C    0.325267
    27  C    0.036681
    28  C    0.053462
    29  C    0.284952
    30  C   -0.383860
    31  C   -0.262411
    32  C   -0.320070
    33  N   -0.697474
    34  C    0.279405
    35  C    0.054098
    36  C   -0.029372
    37  C    0.288611
    38  C   -0.398474
    39  C    0.339632
    40  O   -0.426625
    41  C   -0.347161
    42  C    0.641058
    43  O   -0.467796
    44  O   -0.424777
    45  C   -0.092922
    46  C    0.010038
    47  C   -0.134281
    48  C    0.116191
    49  C   -0.341686
    50  C   -0.217326
    51  C   -0.176580
    52  C   -0.168802
    53  C   -0.046076
    54  C   -0.322813
    55  C   -0.157171
    56  C   -0.175040
    57  C   -0.118266
    58  C   -0.080765
    59  C   -0.265108
    60  C   -0.178984
    61  C   -0.175483
    62  C   -0.166709
    63  C   -0.057613
    64  C   -0.271203
    65  C   -0.308212
    66  H    0.082796
    67  H    0.050671
    68  H    0.087393
    69  H    0.107510
    70  H    0.113784
    71  H    0.119950
    72  H    0.088308
    73  H    0.123751
    74  H    0.131497
    75  H    0.117192
    76  H    0.142267
    77  H    0.117285
    78  H    0.127419
    79  H    0.115449
    80  H    0.090015
    81  H    0.103328
    82  H    0.090189
    83  H    0.094029
    84  H    0.116097
    85  H    0.106074
    86  H    0.128442
    87  H    0.104609
    88  H    0.105687
    89  H    0.070293
    90  H    0.110225
    91  H    0.122189
    92  H    0.133062
    93  H    0.152789
    94  H    0.107914
    95  H    0.150515
    96  H    0.130827
    97  H    0.112756
    98  H    0.127304
    99  H    0.115140
   100  H    0.125743
   101  H    0.092146
   102  H    0.107074
   103  H    0.103925
   104  H    0.100530
   105  H    0.110213
   106  H    0.083381
   107  H    0.096613
   108  H    0.096561
   109  H    0.093881
   110  H    0.079477
   111  H    0.093950
   112  H    0.101963
   113  H    0.089646
   114  H    0.104732
   115  H    0.060340
   116  H    0.054927
   117  H    0.107532
   118  H    0.069492
   119  H    0.072171
   120  H    0.081548
   121  H    0.085396
   122  H    0.081101
   123  H    0.090900
   124  H    0.113601
   125  H    0.088501
   126  H    0.080265
   127  H    0.104477
   128  H    0.049220
   129  H    0.082738
   130  H    0.096280
   131  H    0.074501
   132  H    0.070674
   133  H    0.070574
   134  H    0.103914
   135  H    0.113204
   136  H    0.097913
   137  H    0.091329
 Sum of Mulliken charges =  -0.00000

 Dipole moment (field-independent basis, Debye):
    X=              1.5529    Y=              3.7608    Z=              0.2500  Tot=              4.0764
 Quadrupole moment (field-independent basis, Debye-Ang):
   XX=           -354.7438   YY=           -387.5771   ZZ=           -396.7574
   XY=            -26.3771   XZ=              7.7524   YZ=              2.6216

 Normal termination of Gaussian 16 at Thu Sep  5 17:50:18 2019.
