 Gaussian 09, Revision D.01,
 Gaussian 09:  ES64L-G09RevD.01 24-Apr-2013

 -------------------------------------
 # td=(NStates=1) CAM-B3LYP/6-31G(d,p)
 -------------------------------------

 --
 TD
 --
 Symbolic Z-matrix:
 Charge =  0 Multiplicity = 1

                         Standard orientation:
 ---------------------------------------------------------------------
 Center     Atomic      Atomic             Coordinates (Angstroms)
 Number     Number       Type             X           Y           Z
 ---------------------------------------------------------------------
      1         12           0       -7.136502    0.621082    0.175835
      2          6           0       -4.916597   -1.875107    0.629214
      3          6           0       -4.927506    2.776197    1.200721
      4          6           0       -9.268275    3.137094   -0.448559
      5          6           0       -9.605728   -1.797535   -0.868344
      6          7           0       -5.178265    0.314591    0.881742
      7          6           0       -4.322485   -0.720294    0.909316
      8          6           0       -2.905622   -0.409043    1.277787
      9          6           0       -3.073452    1.173328    1.663268
     10          6           0       -4.407964    1.492693    1.164012
     11          6           0       -2.815431    1.479852    3.150500
     12          6           0       -1.903790   -0.604539    0.164387
     13          6           0       -0.407599   -0.470300    0.590713
     14          6           0        0.554124   -0.714511   -0.650076
     15          8           0        0.176782   -1.102144   -1.758380
     16          8           0        1.824719   -0.542656   -0.264135
     17          7           0       -7.085431    2.603397    0.253474
     18          6           0       -6.027662    3.341786    0.667495
     19          6           0       -6.377452    4.750200    0.685315
     20          6           0       -7.717225    4.844868    0.208887
     21          6           0       -8.127046    3.552155   -0.020261
     22          6           0       -5.399638    5.884147    1.183221
     23          6           0       -8.503836    6.132429    0.161592
     24          6           0       -8.395551    7.122542    0.958578
     25          7           0       -9.135948    0.645969   -0.521638
     26          6           0       -9.910794    1.771731   -0.696259
     27          6           0      -11.215963    1.519516   -1.264126
     28          6           0      -11.321665    0.152456   -1.314786
     29          6           0       -9.966666   -0.387513   -0.867278
     30          6           0      -12.355726    2.466663   -1.573505
     31          6           0      -12.454589   -0.794368   -1.770802
     32          6           0      -12.264506   -1.152928   -3.279856
     33          7           0       -7.257647   -1.428330   -0.140667
     34          6           0       -8.315292   -2.241759   -0.544750
     35          6           0       -7.857510   -3.581678   -0.437206
     36          6           0       -6.492122   -3.521851   -0.025455
     37          6           0       -6.234635   -2.142134    0.065682
     38          6           0       -8.605383   -4.818917   -0.887009
     39          6           0       -5.257872   -4.256170    0.252454
     40          8           0       -5.174249   -5.514704    0.212021
     41          6           0       -4.129785   -3.258849    0.686002
     42          6           0       -3.618244   -3.609669    2.031485
     43          8           0       -3.897821   -3.106824    3.013005
     44          8           0       -2.703295   -4.605727    1.861307
     45          6           0       -2.102491   -5.124597    3.105267
     46          6           0        2.797556   -0.705805   -1.287091
     47          6           0        4.129696   -0.476131   -0.662098
     48          6           0        5.092057    0.296414   -1.051902
     49          6           0        5.211472    0.995248   -2.510648
     50          6           0        6.427263    0.424128   -0.280836
     51          6           0        7.663925   -0.164553   -0.890967
     52          6           0        8.909331   -0.124638   -0.026137
     53          6           0       10.138011   -0.680411   -0.806751
     54          6           0       10.058621   -2.120780   -1.257095
     55          6           0       11.402426   -0.289351   -0.017721
     56          6           0       12.715977   -0.349637   -0.838636
     57          6           0       13.900330    0.003123    0.163670
     58          6           0       15.382605   -0.139796   -0.478290
     59          6           0       15.565701   -1.728846   -0.896029
     60          6           0       16.502139    0.311155    0.415598
     61          6           0       17.815276    0.544812   -0.219774
     62          6           0       18.781735    1.322581    0.720998
     63          6           0       20.227035    1.383286    0.251560
     64          6           0       20.518932    2.019597   -1.149102
     65          6           0       21.034200    2.059210    1.383011
     66          1           0       -4.306296    3.463013    1.694848
     67          1           0      -10.052640    3.914893   -0.496408
     68          1           0      -10.368965   -2.546430   -1.174899
     69          1           0       -2.516298   -1.086587    1.966228
     70          1           0       -2.344877    1.815028    1.137430
     71          1           0       -1.677508    1.050086    3.437428
     72          1           0       -2.676941    2.404907    3.531852
     73          1           0       -3.498572    1.073975    3.908895
     74          1           0       -1.898714   -1.474264   -0.452884
     75          1           0       -1.894835    0.059172   -0.884539
     76          1           0       -0.256271    0.402942    1.200278
     77          1           0       -0.426353   -1.552709    1.168802
     78          1           0       -5.809883    6.842971    0.750416
     79          1           0       -5.481049    5.911762    2.330447
     80          1           0       -4.447899    5.518130    0.768940
     81          1           0       -9.192753    6.305115   -0.888512
     82          1           0       -9.201776    7.801963    0.938722
     83          1           0       -7.867856    7.118322    1.832033
     84          1           0      -12.161515    2.996700   -2.519930
     85          1           0      -13.233487    1.644405   -1.873233
     86          1           0      -12.611535    3.056133   -0.857925
     87          1           0      -12.555442   -1.707371   -0.967342
     88          1           0      -13.278132   -0.147097   -1.832131
     89          1           0      -13.192626   -1.554761   -3.561026
     90          1           0      -11.923156   -0.232847   -3.723347
     91          1           0      -11.538631   -1.919978   -3.460985
     92          1           0       -8.974942   -4.981995   -1.854166
     93          1           0       -7.966194   -5.693071   -0.780576
     94          1           0       -9.483792   -5.159729   -0.211651
     95          1           0       -3.413667   -3.359551   -0.055623
     96          1           0       -1.819379   -4.286665    3.818147
     97          1           0       -2.952277   -5.616826    3.549127
     98          1           0       -1.214661   -5.801147    2.808734
     99          1           0        2.635395   -1.713957   -1.683331
    100          1           0        2.549175   -0.045873   -2.055941
    101          1           0        4.337035   -1.008029    0.245619
    102          1           0        4.263225    1.025319   -3.312511
    103          1           0        5.505107    1.947528   -2.185434
    104          1           0        6.043977    0.387903   -3.011096
    105          1           0        6.585506    1.556553    0.054362
    106          1           0        6.274466   -0.028183    0.584165
    107          1           0        7.394400   -1.060962   -1.185598
    108          1           0        7.984268    0.452250   -1.779071
    109          1           0        9.171762    0.891009    0.276184
    110          1           0        8.821216   -0.611881    0.820461
    111          1           0       10.182301   -0.194749   -1.708643
    112          1           0        9.289143   -2.263776   -1.861513
    113          1           0       10.923089   -2.306793   -1.786651
    114          1           0       10.034459   -2.851892   -0.327203
    115          1           0       11.255519    0.677970    0.320033
    116          1           0       11.538651   -0.930906    0.866201
    117          1           0       12.889489   -1.418836   -1.197832
    118          1           0       12.906114    0.388965   -1.598096
    119          1           0       13.707290    0.924036    0.684131
    120          1           0       14.011162   -0.791933    0.851872
    121          1           0       15.354423    0.490009   -1.494572
    122          1           0       15.419169   -2.343620    0.038036
    123          1           0       15.154390   -2.006437   -1.827704
    124          1           0       16.536078   -1.801467   -1.263243
    125          1           0       16.262828    1.342129    0.821662
    126          1           0       16.647913   -0.341104    1.212705
    127          1           0       18.335845   -0.505301   -0.387033
    128          1           0       17.783545    1.165586   -1.105445
    129          1           0       18.250189    2.316616    1.087705
    130          1           0       18.759742    0.758849    1.669195
    131          1           0       20.565296    0.527889    0.296098
    132          1           0       20.244105    3.146833   -0.995190
    133          1           0       21.666651    1.874154   -1.420089
    134          1           0       19.745590    1.614458   -1.905789
    135          1           0       21.045768    1.610564    2.236892
    136          1           0       22.163932    2.151675    1.242766
    137          1           0       20.696824    3.117955    1.589496
 ---------------------------------------------------------------------

 SCF Done:  E(RCAM-B3LYP) =  -2932.65957738     A.U. after   15 cycles

 Excitation energies and oscillator strengths:

 Excited State   1:      Singlet-A      2.1971 eV  564.31 nm  f=0.1835  <S**2>=0.000
     240 -> 242        0.20654
     240 -> 243        0.26584
     241 -> 242        0.59903
     241 -> 243       -0.12973
 This state for optimization and/or second-order correction.
 Total Energy, E(TD-HF/TD-KS) =  -2932.57883612
 Copying the excited state density for this state as the 1-particle RhoCI density.

 The electronic state is 1-A.
 Alpha  occ. eigenvalues --  -46.84308 -19.26912 -19.24572 -19.21678 -19.20925
 Alpha  occ. eigenvalues --  -19.18558 -14.40937 -14.39825 -14.38786 -14.38469
 Alpha  occ. eigenvalues --  -10.40311 -10.37776 -10.34028 -10.31560 -10.31289
 Alpha  occ. eigenvalues --  -10.31058 -10.29900 -10.29470 -10.29205 -10.29036
 Alpha  occ. eigenvalues --  -10.29032 -10.28968 -10.28933 -10.28791 -10.28300
 Alpha  occ. eigenvalues --  -10.28181 -10.28138 -10.27933 -10.27913 -10.27887
 Alpha  occ. eigenvalues --  -10.27768 -10.27766 -10.27712 -10.27580 -10.27466
 Alpha  occ. eigenvalues --  -10.27383 -10.26927 -10.26921 -10.26798 -10.26795
 Alpha  occ. eigenvalues --  -10.26633 -10.26494 -10.26282 -10.26260 -10.25829
 Alpha  occ. eigenvalues --  -10.25602 -10.25455 -10.25383 -10.25272 -10.25264
 Alpha  occ. eigenvalues --  -10.24999 -10.24877 -10.24595 -10.24545 -10.24542
 Alpha  occ. eigenvalues --  -10.24455 -10.24395 -10.24381 -10.24341 -10.24320
 Alpha  occ. eigenvalues --  -10.24183 -10.24053 -10.23820 -10.23400 -10.23399
 Alpha  occ. eigenvalues --   -3.13291  -1.87999  -1.87531  -1.87471  -1.19175
 Alpha  occ. eigenvalues --   -1.18989  -1.10220  -1.09409  -1.07050  -1.04965
 Alpha  occ. eigenvalues --   -1.03462  -1.02761  -1.01753  -0.91751  -0.91440
 Alpha  occ. eigenvalues --   -0.90403  -0.90051  -0.89931  -0.89625  -0.88662
 Alpha  occ. eigenvalues --   -0.88206  -0.87894  -0.87244  -0.86637  -0.86196
 Alpha  occ. eigenvalues --   -0.84899  -0.84134  -0.83881  -0.83344  -0.83004
 Alpha  occ. eigenvalues --   -0.81547  -0.80486  -0.80324  -0.79929  -0.78213
 Alpha  occ. eigenvalues --   -0.77866  -0.77020  -0.76694  -0.75661  -0.75626
 Alpha  occ. eigenvalues --   -0.75521  -0.75287  -0.74901  -0.74102  -0.72444
 Alpha  occ. eigenvalues --   -0.72070  -0.70170  -0.69670  -0.68988  -0.67869
 Alpha  occ. eigenvalues --   -0.67334  -0.66731  -0.65793  -0.65639  -0.64097
 Alpha  occ. eigenvalues --   -0.64074  -0.63937  -0.63404  -0.63033  -0.62003
 Alpha  occ. eigenvalues --   -0.61323  -0.60864  -0.60550  -0.59455  -0.59082
 Alpha  occ. eigenvalues --   -0.58501  -0.58279  -0.57851  -0.57395  -0.57070
 Alpha  occ. eigenvalues --   -0.56106  -0.55822  -0.55547  -0.55050  -0.54991
 Alpha  occ. eigenvalues --   -0.54638  -0.54193  -0.54078  -0.53791  -0.53337
 Alpha  occ. eigenvalues --   -0.52788  -0.52363  -0.52008  -0.51843  -0.51683
 Alpha  occ. eigenvalues --   -0.51349  -0.51251  -0.51139  -0.50923  -0.50775
 Alpha  occ. eigenvalues --   -0.50538  -0.50332  -0.50201  -0.49909  -0.49825
 Alpha  occ. eigenvalues --   -0.49451  -0.49228  -0.48902  -0.48667  -0.48413
 Alpha  occ. eigenvalues --   -0.48290  -0.48112  -0.47948  -0.47700  -0.47172
 Alpha  occ. eigenvalues --   -0.46910  -0.46530  -0.46351  -0.45894  -0.45526
 Alpha  occ. eigenvalues --   -0.45445  -0.45289  -0.45116  -0.44825  -0.44728
 Alpha  occ. eigenvalues --   -0.44681  -0.44419  -0.44236  -0.44044  -0.43871
 Alpha  occ. eigenvalues --   -0.43555  -0.43409  -0.43346  -0.43158  -0.43112
 Alpha  occ. eigenvalues --   -0.43046  -0.42687  -0.42352  -0.42085  -0.41992
 Alpha  occ. eigenvalues --   -0.41940  -0.41902  -0.41747  -0.41393  -0.41298
 Alpha  occ. eigenvalues --   -0.40913  -0.40846  -0.40774  -0.40743  -0.40402
 Alpha  occ. eigenvalues --   -0.40338  -0.40023  -0.39800  -0.39399  -0.39228
 Alpha  occ. eigenvalues --   -0.39149  -0.38813  -0.38474  -0.38447  -0.37849
 Alpha  occ. eigenvalues --   -0.37366  -0.37268  -0.36978  -0.36971  -0.36915
 Alpha  occ. eigenvalues --   -0.36767  -0.36701  -0.36322  -0.35860  -0.35590
 Alpha  occ. eigenvalues --   -0.35509  -0.35215  -0.35050  -0.34336  -0.33889
 Alpha  occ. eigenvalues --   -0.33461  -0.33235  -0.32822  -0.31018  -0.30147
 Alpha  occ. eigenvalues --   -0.29020  -0.28608  -0.28253  -0.27955  -0.22689
 Alpha  occ. eigenvalues --   -0.21469
 Alpha virt. eigenvalues --   -0.05813  -0.03035   0.02491   0.04333   0.05369
 Alpha virt. eigenvalues --    0.06162   0.06667   0.07135   0.07370   0.08477
 Alpha virt. eigenvalues --    0.08959   0.10801   0.11173   0.11390   0.11839

 Mulliken charges:
               1
     1  Mg   0.822157
     2  C   -0.040987
     3  C   -0.233110
     4  C   -0.232600
     5  C   -0.152483
     6  N   -0.643690
     7  C    0.364854
     8  C   -0.126152
     9  C   -0.149500
    10  C    0.342302
    11  C   -0.308103
    12  C   -0.203975
    13  C   -0.258960
    14  C    0.612466
    15  O   -0.482036
    16  O   -0.458027
    17  N   -0.740791
    18  C    0.370484
    19  C   -0.044940
    20  C    0.031942
    21  C    0.362975
    22  C   -0.352895
    23  C   -0.071867
    24  C   -0.228171
    25  N   -0.636468
    26  C    0.246209
    27  C    0.018535
    28  C    0.002666
    29  C    0.254408
    30  C   -0.345556
    31  C   -0.234801
    32  C   -0.306150
    33  N   -0.713002
    34  C    0.270010
    35  C   -0.006422
    36  C    0.025735
    37  C    0.348568
    38  C   -0.404588
    39  C    0.338324
    40  O   -0.494000
    41  C   -0.299735
    42  C    0.626940
    43  O   -0.419428
    44  O   -0.483576
    45  C   -0.093445
    46  C    0.023369
    47  C   -0.136659
    48  C    0.085480
    49  C   -0.345199
    50  C   -0.224030
    51  C   -0.167335
    52  C   -0.177236
    53  C   -0.073003
    54  C   -0.300785
    55  C   -0.171861
    56  C   -0.193039
    57  C   -0.178594
    58  C   -0.076537
    59  C   -0.331783
    60  C   -0.152160
    61  C   -0.171182
    62  C   -0.185927
    63  C   -0.024324
    64  C   -0.302623
    65  C   -0.321025
    66  H    0.065849
    67  H    0.076217
    68  H    0.112761
    69  H    0.123915
    70  H    0.121979
    71  H    0.069852
    72  H    0.126819
    73  H    0.128937
    74  H    0.140468
    75  H    0.082876
    76  H    0.130919
    77  H    0.117774
    78  H    0.125987
    79  H    0.123143
    80  H    0.126766
    81  H    0.081229
    82  H    0.108404
    83  H    0.110070
    84  H    0.123246
    85  H    0.080584
    86  H    0.135485
    87  H    0.097087
    88  H    0.107487
    89  H    0.111829
    90  H    0.119291
    91  H    0.113374
    92  H    0.131516
    93  H    0.149940
    94  H    0.103029
    95  H    0.164362
    96  H    0.124048
    97  H    0.144049
    98  H    0.126898
    99  H    0.128446
   100  H    0.124597
   101  H    0.088476
   102  H    0.090586
   103  H    0.128680
   104  H    0.122853
   105  H    0.077670
   106  H    0.107524
   107  H    0.109721
   108  H    0.088385
   109  H    0.086832
   110  H    0.099020
   111  H    0.089204
   112  H    0.110259
   113  H    0.109636
   114  H    0.074992
   115  H    0.093814
   116  H    0.090163
   117  H    0.096795
   118  H    0.098828
   119  H    0.088102
   120  H    0.090825
   121  H    0.054164
   122  H    0.102280
   123  H    0.109897
   124  H    0.106483
   125  H    0.081346
   126  H    0.097405
   127  H    0.073931
   128  H    0.098112
   129  H    0.070247
   130  H    0.087374
   131  H    0.100576
   132  H    0.093213
   133  H    0.096981
   134  H    0.098335
   135  H    0.113121
   136  H    0.076872
   137  H    0.089393
 Sum of Mulliken charges =   0.00000

 Dipole moment (field-independent basis, Debye):
    X=              2.6220    Y=              5.5513    Z=              1.1831  Tot=              6.2523
 Quadrupole moment (field-independent basis, Debye-Ang):
   XX=           -331.5239   YY=           -396.3573   ZZ=           -392.1120
   XY=            -41.0482   XZ=             12.9751   YZ=              2.7060

 Normal termination of Gaussian 09 at Thu Jul  4 17:42:29 2019.
