 Gaussian 09, Revision D.01,
 Gaussian 09:  ES64L-G09RevD.01 24-Apr-2013

 -------------------------------------
 # td=(NStates=1) CAM-B3LYP/6-31G(d,p)
 -------------------------------------

 --
 TD
 --
 Symbolic Z-matrix:
 Charge =  0 Multiplicity = 1

                         Standard orientation:
 ---------------------------------------------------------------------
 Center     Atomic      Atomic             Coordinates (Angstroms)
 Number     Number       Type             X           Y           Z
 ---------------------------------------------------------------------
      1         12           0       -7.169555    0.574335    0.086973
      2          6           0       -4.868017   -1.885621    0.525126
      3          6           0       -4.813676    2.826354    1.109108
      4          6           0       -9.396193    3.105045   -0.349990
      5          6           0       -9.558736   -1.668659   -0.781214
      6          7           0       -5.159645    0.473241    0.681792
      7          6           0       -4.390310   -0.715732    0.699297
      8          6           0       -2.942434   -0.441307    1.201183
      9          6           0       -3.069585    1.045981    1.506600
     10          6           0       -4.394917    1.581543    1.019165
     11          6           0       -2.975579    1.294852    3.144561
     12          6           0       -1.967245   -0.685480    0.004811
     13          6           0       -0.500316   -0.327460    0.521366
     14          6           0        0.467448   -0.645773   -0.628535
     15          8           0        0.210029   -1.013354   -1.799178
     16          8           0        1.752844   -0.388365   -0.182133
     17          7           0       -7.066174    2.642508    0.307376
     18          6           0       -5.994047    3.437420    0.749544
     19          6           0       -6.330322    4.788094    0.734775
     20          6           0       -7.670683    4.837563    0.365467
     21          6           0       -8.166759    3.490807    0.150426
     22          6           0       -5.496825    6.016480    0.998747
     23          6           0       -8.568613    6.013402    0.140405
     24          6           0       -8.575154    7.135698    0.832172
     25          7           0       -9.063306    0.661088   -0.543450
     26          6           0       -9.860842    1.769445   -0.623663
     27          6           0      -11.160561    1.435494   -1.096877
     28          6           0      -11.260745    0.103642   -1.245462
     29          6           0       -9.992249   -0.381067   -0.861107
     30          6           0      -12.219773    2.458880   -1.318359
     31          6           0      -12.334036   -0.790669   -1.652597
     32          6           0      -12.422179   -1.164587   -3.203887
     33          7           0       -7.173988   -1.350904   -0.172970
     34          6           0       -8.310017   -2.165783   -0.517193
     35          6           0       -7.954063   -3.599701   -0.401074
     36          6           0       -6.616846   -3.592305   -0.156101
     37          6           0       -6.233082   -2.221242    0.171611
     38          6           0       -8.671583   -4.856987   -0.695944
     39          6           0       -5.433477   -4.399522    0.216292
     40          8           0       -5.181023   -5.624753    0.199723
     41          6           0       -4.251952   -3.360801    0.557473
     42          6           0       -3.613576   -3.592247    1.946955
     43          8           0       -3.824734   -3.089877    2.950361
     44          8           0       -2.565356   -4.667383    1.734706
     45          6           0       -2.118231   -5.178590    3.032896
     46          6           0        2.752669   -0.576826   -1.205421
     47          6           0        4.114173   -0.468927   -0.613860
     48          6           0        5.195336    0.311132   -0.981727
     49          6           0        5.051212    1.168185   -2.198205
     50          6           0        6.452086    0.321047   -0.300527
     51          6           0        7.651009   -0.284215   -1.038201
     52          6           0        9.030059   -0.111135   -0.260120
     53          6           0       10.243339   -0.622632   -0.956071
     54          6           0       10.116071   -2.140983   -1.442818
     55          6           0       11.539923   -0.431623   -0.052284
     56          6           0       12.868338   -0.518781   -0.820470
     57          6           0       13.994300   -0.225196    0.237185
     58          6           0       15.342319   -0.197732   -0.429882
     59          6           0       15.774645   -1.676640   -0.928438
     60          6           0       16.484432    0.376568    0.458372
     61          6           0       17.938264    0.473481   -0.057693
     62          6           0       18.845068    1.333887    0.925754
     63          6           0       20.316758    1.353725    0.372925
     64          6           0       20.387013    2.247537   -1.039159
     65          6           0       21.099295    2.054559    1.335584
     66          1           0       -3.965233    3.558023    1.583479
     67          1           0      -10.076212    3.929268   -0.512951
     68          1           0      -10.608516   -2.461235   -0.826466
     69          1           0       -2.811310   -1.071396    2.035539
     70          1           0       -2.281608    1.559944    1.056267
     71          1           0       -2.215747    0.796978    3.725206
     72          1           0       -2.938030    2.276876    3.227423
     73          1           0       -3.788733    0.908607    3.800986
     74          1           0       -2.178900   -1.632973   -0.409085
     75          1           0       -2.157311   -0.014980   -0.837366
     76          1           0       -0.215624    0.586712    0.912641
     77          1           0       -0.009932   -1.114860    1.304422
     78          1           0       -5.644249    6.875773    0.406343
     79          1           0       -5.707221    6.404622    1.883032
     80          1           0       -4.364593    5.780156    0.986988
     81          1           0       -9.219650    5.909806   -0.703131
     82          1           0       -9.049886    7.948217    0.368573
     83          1           0       -7.889314    7.274176    1.632825
     84          1           0      -11.723291    3.163395   -1.990840
     85          1           0      -13.014199    1.952005   -1.714059
     86          1           0      -12.658289    3.267298   -0.589643
     87          1           0      -12.338494   -1.782010   -1.163147
     88          1           0      -13.231392   -0.127925   -1.346792
     89          1           0      -13.137114   -1.932941   -3.151844
     90          1           0      -12.635764   -0.387608   -3.852203
     91          1           0      -11.459854   -1.503500   -3.472855
     92          1           0       -9.327994   -4.708031   -1.658278
     93          1           0       -8.024572   -5.660969   -0.808774
     94          1           0       -9.386250   -5.050103    0.255688
     95          1           0       -3.580491   -3.467157   -0.210557
     96          1           0       -1.395750   -4.530349    3.648426
     97          1           0       -3.132861   -5.360790    3.561222
     98          1           0       -1.679874   -6.160256    2.908972
     99          1           0        2.734825   -1.545294   -1.425603
    100          1           0        2.507482    0.170060   -2.004379
    101          1           0        4.210726   -1.045995    0.322581
    102          1           0        4.071286    1.065144   -2.686067
    103          1           0        5.323995    2.110236   -2.012195
    104          1           0        5.726799    1.078334   -3.085329
    105          1           0        6.636546    1.479106    0.035406
    106          1           0        6.398145   -0.193698    0.695231
    107          1           0        7.367301   -1.482185   -1.056499
    108          1           0        7.560953    0.012559   -2.122805
    109          1           0        8.962637    1.028500   -0.077062
    110          1           0        8.998690   -0.683448    0.736005
    111          1           0       10.523692   -0.077584   -1.781843
    112          1           0        9.306499   -2.182607   -2.234372
    113          1           0       11.061066   -2.313674   -1.918886
    114          1           0        9.736198   -2.755728   -0.638268
    115          1           0       11.387979    0.655297    0.452374
    116          1           0       11.430898   -1.267819    0.720244
    117          1           0       13.048258   -1.461260   -1.425106
    118          1           0       12.992268    0.391201   -1.586581
    119          1           0       13.919107    0.923638    0.634039
    120          1           0       13.816318   -1.027135    1.029649
    121          1           0       15.340498    0.398413   -1.386109
    122          1           0       15.858703   -2.114897    0.167547
    123          1           0       14.857919   -2.028668   -1.561328
    124          1           0       16.631654   -1.811725   -1.742497
    125          1           0       16.090738    1.350173    0.603677
    126          1           0       16.274216   -0.151283    1.481627
    127          1           0       18.611560   -0.358767   -0.379767
    128          1           0       17.852585    1.179539   -0.895427
    129          1           0       18.420067    2.252705    1.007991
    130          1           0       19.038604    1.006067    2.000791
    131          1           0       20.496772    0.304951    0.145677
    132          1           0       19.677464    3.255746   -0.671878
    133          1           0       21.391466    2.660111   -1.185608
    134          1           0       20.012772    1.538569   -1.653498
    135          1           0       21.293659    1.491512    2.277518
    136          1           0       22.259343    1.999700    1.007858
    137          1           0       20.974110    3.006137    1.376592
 ---------------------------------------------------------------------

 SCF Done:  E(RCAM-B3LYP) =  -2932.64161442     A.U. after   17 cycles

 Excitation energies and oscillator strengths:

 Excited State   1:      Singlet-A      2.0855 eV  594.52 nm  f=0.2414  <S**2>=0.000
     240 -> 243        0.22442
     241 -> 242        0.65645
 This state for optimization and/or second-order correction.
 Total Energy, E(TD-HF/TD-KS) =  -2932.56497502
 Copying the excited state density for this state as the 1-particle RhoCI density.

 The electronic state is 1-A.
 Alpha  occ. eigenvalues --  -46.82692 -19.25507 -19.23935 -19.23373 -19.20900
 Alpha  occ. eigenvalues --  -19.20599 -14.40346 -14.40027 -14.39692 -14.38817
 Alpha  occ. eigenvalues --  -10.39710 -10.39322 -10.36130 -10.30422 -10.30394
 Alpha  occ. eigenvalues --  -10.30272 -10.30186 -10.29750 -10.29517 -10.29437
 Alpha  occ. eigenvalues --  -10.29253 -10.29219 -10.29168 -10.29031 -10.28790
 Alpha  occ. eigenvalues --  -10.28684 -10.28034 -10.27763 -10.27675 -10.27543
 Alpha  occ. eigenvalues --  -10.27493 -10.27357 -10.27309 -10.27301 -10.27249
 Alpha  occ. eigenvalues --  -10.27174 -10.27058 -10.27041 -10.27024 -10.26776
 Alpha  occ. eigenvalues --  -10.26751 -10.26746 -10.26551 -10.26545 -10.26091
 Alpha  occ. eigenvalues --  -10.26074 -10.26039 -10.25932 -10.25895 -10.25869
 Alpha  occ. eigenvalues --  -10.25860 -10.25854 -10.25834 -10.25817 -10.25599
 Alpha  occ. eigenvalues --  -10.25581 -10.25572 -10.25442 -10.25118 -10.24752
 Alpha  occ. eigenvalues --  -10.24702 -10.24644 -10.24518 -10.24276 -10.23504
 Alpha  occ. eigenvalues --   -3.12039  -1.86727  -1.86287  -1.86240  -1.19178
 Alpha  occ. eigenvalues --   -1.16244  -1.09189  -1.07258  -1.07039  -1.03991
 Alpha  occ. eigenvalues --   -1.02957  -1.02499  -1.01183  -0.91791  -0.91277
 Alpha  occ. eigenvalues --   -0.90065  -0.89979  -0.89403  -0.89268  -0.89009
 Alpha  occ. eigenvalues --   -0.88742  -0.88413  -0.88026  -0.87643  -0.85625
 Alpha  occ. eigenvalues --   -0.85293  -0.83967  -0.83796  -0.83306  -0.82564
 Alpha  occ. eigenvalues --   -0.81491  -0.80866  -0.79579  -0.79458  -0.78769
 Alpha  occ. eigenvalues --   -0.78211  -0.78159  -0.76243  -0.75939  -0.75269
 Alpha  occ. eigenvalues --   -0.74247  -0.74236  -0.73850  -0.73520  -0.72883
 Alpha  occ. eigenvalues --   -0.72273  -0.71513  -0.70383  -0.68906  -0.68584
 Alpha  occ. eigenvalues --   -0.67237  -0.66496  -0.66128  -0.65162  -0.63892
 Alpha  occ. eigenvalues --   -0.63686  -0.62748  -0.62639  -0.62361  -0.61161
 Alpha  occ. eigenvalues --   -0.60923  -0.60674  -0.60353  -0.60017  -0.59398
 Alpha  occ. eigenvalues --   -0.58259  -0.57957  -0.57531  -0.57187  -0.57128
 Alpha  occ. eigenvalues --   -0.56456  -0.55544  -0.55304  -0.54533  -0.54229
 Alpha  occ. eigenvalues --   -0.54016  -0.53896  -0.53790  -0.53305  -0.53045
 Alpha  occ. eigenvalues --   -0.52943  -0.52458  -0.52174  -0.51972  -0.51904
 Alpha  occ. eigenvalues --   -0.51422  -0.51199  -0.51023  -0.50614  -0.50498
 Alpha  occ. eigenvalues --   -0.50294  -0.50077  -0.49903  -0.49779  -0.49385
 Alpha  occ. eigenvalues --   -0.49366  -0.49040  -0.48979  -0.48731  -0.48542
 Alpha  occ. eigenvalues --   -0.48356  -0.48170  -0.47964  -0.47712  -0.47589
 Alpha  occ. eigenvalues --   -0.47213  -0.47093  -0.46740  -0.46664  -0.46287
 Alpha  occ. eigenvalues --   -0.46210  -0.45826  -0.45549  -0.45437  -0.45324
 Alpha  occ. eigenvalues --   -0.45186  -0.44673  -0.44479  -0.44368  -0.44209
 Alpha  occ. eigenvalues --   -0.43901  -0.43729  -0.43609  -0.43368  -0.43358
 Alpha  occ. eigenvalues --   -0.43036  -0.42803  -0.42519  -0.42318  -0.42262
 Alpha  occ. eigenvalues --   -0.42190  -0.41548  -0.41452  -0.41390  -0.41249
 Alpha  occ. eigenvalues --   -0.40826  -0.40752  -0.40654  -0.40467  -0.40167
 Alpha  occ. eigenvalues --   -0.40046  -0.39953  -0.39734  -0.39668  -0.39435
 Alpha  occ. eigenvalues --   -0.39029  -0.38904  -0.38660  -0.38374  -0.37831
 Alpha  occ. eigenvalues --   -0.37686  -0.37124  -0.36855  -0.36837  -0.36585
 Alpha  occ. eigenvalues --   -0.36276  -0.36065  -0.35727  -0.34953  -0.34940
 Alpha  occ. eigenvalues --   -0.34396  -0.34084  -0.34002  -0.33901  -0.33506
 Alpha  occ. eigenvalues --   -0.32870  -0.32524  -0.32484  -0.31602  -0.30669
 Alpha  occ. eigenvalues --   -0.30186  -0.28593  -0.28515  -0.27918  -0.23680
 Alpha  occ. eigenvalues --   -0.21910
 Alpha virt. eigenvalues --   -0.06864  -0.03219   0.01695   0.04477   0.05711
 Alpha virt. eigenvalues --    0.05757   0.06139   0.06491   0.06821   0.07751
 Alpha virt. eigenvalues --    0.07843   0.09837   0.11251   0.11549   0.11586

 Mulliken charges:
               1
     1  Mg   0.804766
     2  C    0.057293
     3  C   -0.236448
     4  C   -0.175727
     5  C   -0.181621
     6  N   -0.662963
     7  C    0.252473
     8  C   -0.137552
     9  C   -0.153300
    10  C    0.400033
    11  C   -0.330385
    12  C   -0.181804
    13  C   -0.261082
    14  C    0.607186
    15  O   -0.496465
    16  O   -0.503377
    17  N   -0.711248
    18  C    0.318804
    19  C    0.042879
    20  C   -0.023874
    21  C    0.316402
    22  C   -0.372091
    23  C   -0.081880
    24  C   -0.227932
    25  N   -0.695725
    26  C    0.323306
    27  C   -0.016091
    28  C    0.118374
    29  C    0.251278
    30  C   -0.365688
    31  C   -0.268857
    32  C   -0.307856
    33  N   -0.693026
    34  C    0.242613
    35  C    0.039751
    36  C    0.001181
    37  C    0.259803
    38  C   -0.366560
    39  C    0.376012
    40  O   -0.473860
    41  C   -0.280052
    42  C    0.611639
    43  O   -0.382705
    44  O   -0.518345
    45  C   -0.071633
    46  C    0.057530
    47  C   -0.175928
    48  C    0.160277
    49  C   -0.372135
    50  C   -0.230903
    51  C   -0.174828
    52  C   -0.155222
    53  C   -0.066674
    54  C   -0.318058
    55  C   -0.168922
    56  C   -0.181401
    57  C   -0.153567
    58  C   -0.081201
    59  C   -0.291555
    60  C   -0.163225
    61  C   -0.192790
    62  C   -0.161352
    63  C   -0.077170
    64  C   -0.297872
    65  C   -0.290532
    66  H    0.071279
    67  H    0.087378
    68  H    0.076138
    69  H    0.131538
    70  H    0.102517
    71  H    0.109159
    72  H    0.116134
    73  H    0.117779
    74  H    0.131648
    75  H    0.129397
    76  H    0.156082
    77  H    0.127098
    78  H    0.132683
    79  H    0.139289
    80  H    0.101735
    81  H    0.099455
    82  H    0.104316
    83  H    0.099242
    84  H    0.120294
    85  H    0.110816
    86  H    0.111855
    87  H    0.109924
    88  H    0.093894
    89  H    0.115624
    90  H    0.120363
    91  H    0.119318
    92  H    0.114382
    93  H    0.160310
    94  H    0.113381
    95  H    0.172420
    96  H    0.103167
    97  H    0.110223
    98  H    0.124811
    99  H    0.136243
   100  H    0.118519
   101  H    0.087938
   102  H    0.106063
   103  H    0.123996
   104  H    0.105735
   105  H    0.070603
   106  H    0.100074
   107  H    0.071211
   108  H    0.098130
   109  H    0.085837
   110  H    0.086729
   111  H    0.092477
   112  H    0.101032
   113  H    0.107508
   114  H    0.106799
   115  H    0.079562
   116  H    0.083881
   117  H    0.105561
   118  H    0.078988
   119  H    0.078025
   120  H    0.095475
   121  H    0.074358
   122  H    0.092453
   123  H    0.077989
   124  H    0.093747
   125  H    0.094812
   126  H    0.072944
   127  H    0.094378
   128  H    0.105286
   129  H    0.095545
   130  H    0.078547
   131  H    0.089207
   132  H    0.063366
   133  H    0.111065
   134  H    0.118280
   135  H    0.098580
   136  H    0.058343
   137  H    0.116943
 Sum of Mulliken charges =   0.00000

 Dipole moment (field-independent basis, Debye):
    X=             -0.6461    Y=              5.7867    Z=              0.2806  Tot=              5.8294
 Quadrupole moment (field-independent basis, Debye-Ang):
   XX=           -324.7720   YY=           -393.5067   ZZ=           -396.7436
   XY=            -15.5670   XZ=              9.5404   YZ=             -2.9293

 Normal termination of Gaussian 09 at Thu Jul  4 15:42:22 2019.
