 Gaussian 09, Revision D.01,
 Gaussian 09:  ES64L-G09RevD.01 24-Apr-2013

 -------------------------------------
 # td=(NStates=1) CAM-B3LYP/6-31G(d,p)
 -------------------------------------

 --
 TD
 --
 Symbolic Z-matrix:
 Charge =  0 Multiplicity = 1

                         Standard orientation:
 ---------------------------------------------------------------------
 Center     Atomic      Atomic             Coordinates (Angstroms)
 Number     Number       Type             X           Y           Z
 ---------------------------------------------------------------------
      1         12           0       -7.156845    0.590612    0.171203
      2          6           0       -4.821126   -1.910310    0.467207
      3          6           0       -4.769412    2.848369    1.141882
      4          6           0       -9.373650    3.080876   -0.483284
      5          6           0       -9.473216   -1.796256   -0.692766
      6          7           0       -5.120157    0.453866    0.793813
      7          6           0       -4.360244   -0.649782    0.785086
      8          6           0       -2.962619   -0.287563    1.259699
      9          6           0       -3.012068    1.111942    1.692306
     10          6           0       -4.444847    1.509321    1.213845
     11          6           0       -2.825916    1.271354    3.125889
     12          6           0       -1.941819   -0.532160   -0.050297
     13          6           0       -0.524193   -0.355935    0.500935
     14          6           0        0.457285   -0.584192   -0.607112
     15          8           0        0.207397   -0.957401   -1.778696
     16          8           0        1.723711   -0.643988   -0.064448
     17          7           0       -7.172360    2.604211    0.373201
     18          6           0       -6.095222    3.403966    0.772318
     19          6           0       -6.329386    4.725086    0.671364
     20          6           0       -7.710408    4.825160    0.317921
     21          6           0       -8.180918    3.454705    0.025122
     22          6           0       -5.453001    5.960161    1.124852
     23          6           0       -8.498231    6.016487   -0.000807
     24          6           0       -8.573442    7.038782    0.878742
     25          7           0       -9.112792    0.588960   -0.513935
     26          6           0       -9.930372    1.758966   -0.754976
     27          6           0      -11.293938    1.413634   -1.131791
     28          6           0      -11.292898    0.052385   -1.296087
     29          6           0      -10.039145   -0.494923   -0.878389
     30          6           0      -12.329466    2.262159   -1.369472
     31          6           0      -12.373395   -0.812326   -1.752910
     32          6           0      -12.311000   -1.118371   -3.256088
     33          7           0       -7.230987   -1.418224   -0.070036
     34          6           0       -8.251899   -2.284292   -0.429431
     35          6           0       -7.777948   -3.692096   -0.504411
     36          6           0       -6.435534   -3.534276   -0.058394
     37          6           0       -6.115493   -2.186237    0.104496
     38          6           0       -8.661290   -4.915483   -0.834856
     39          6           0       -5.217869   -4.352321    0.293483
     40          8           0       -5.060358   -5.574418    0.277123
     41          6           0       -4.150605   -3.253156    0.547847
     42          6           0       -3.516198   -3.591036    1.916243
     43          8           0       -3.804458   -3.131964    2.982916
     44          8           0       -2.553355   -4.535984    1.718950
     45          6           0       -1.871706   -4.956153    2.834300
     46          6           0        2.894447   -0.818230   -1.112836
     47          6           0        4.047276   -0.419364   -0.496163
     48          6           0        4.983181    0.521117   -0.937663
     49          6           0        5.044560    1.227120   -2.254012
     50          6           0        6.395789    0.452740   -0.209834
     51          6           0        7.614706   -0.235687   -0.932896
     52          6           0        8.945381   -0.138456   -0.226702
     53          6           0       10.168212   -0.445004   -0.867516
     54          6           0       10.118309   -1.944666   -1.400825
     55          6           0       11.423445   -0.138195   -0.030481
     56          6           0       12.742712   -0.539644   -0.726555
     57          6           0       13.915057   -0.147013    0.290892
     58          6           0       15.218500   -0.187792   -0.452846
     59          6           0       15.720069   -1.648258   -0.660462
     60          6           0       16.385402    0.522299    0.362677
     61          6           0       17.785743    0.577310   -0.274804
     62          6           0       18.762857    1.308333    0.641636
     63          6           0       20.305930    1.240916    0.197585
     64          6           0       20.406012    2.157609   -1.097009
     65          6           0       21.206645    1.778501    1.275365
     66          1           0       -4.204484    3.811115    1.414427
     67          1           0       -9.990171    3.887859   -0.678461
     68          1           0      -10.397204   -2.461566   -0.797001
     69          1           0       -2.594521   -0.928930    1.955868
     70          1           0       -2.154939    1.759433    1.099327
     71          1           0       -1.758095    0.986549    3.456385
     72          1           0       -2.779748    2.288447    3.682303
     73          1           0       -3.478645    0.688679    3.606584
     74          1           0       -2.351309   -1.438452   -0.443882
     75          1           0       -2.020740    0.075778   -0.955465
     76          1           0       -0.511507    0.707151    0.880312
     77          1           0       -0.183390   -0.962200    1.726628
     78          1           0       -5.788691    6.756437    0.386221
     79          1           0       -5.762909    6.197606    2.203783
     80          1           0       -4.493353    5.809624    0.879323
     81          1           0       -9.232846    5.849007   -0.752340
     82          1           0       -9.352606    7.834994    0.563754
     83          1           0       -7.935732    7.083938    1.791413
     84          1           0      -12.222461    2.689098   -2.316787
     85          1           0      -13.210077    1.818462   -1.546964
     86          1           0      -12.467235    3.345853   -0.858406
     87          1           0      -12.450303   -1.746823   -1.313018
     88          1           0      -13.355904   -0.423941   -1.426323
     89          1           0      -13.065999   -1.639737   -3.564658
     90          1           0      -12.184884   -0.282511   -3.736968
     91          1           0      -11.294085   -1.663416   -3.440556
     92          1           0       -8.993330   -4.982507   -1.980580
     93          1           0       -7.982094   -5.893330   -0.761123
     94          1           0       -9.524940   -4.827450   -0.311112
     95          1           0       -3.415370   -3.354076   -0.318912
     96          1           0       -1.240825   -4.292922    3.522582
     97          1           0       -2.592974   -5.248341    3.619979
     98          1           0       -1.453430   -5.900741    2.398220
     99          1           0        2.744443   -1.873198   -1.467749
    100          1           0        2.303199   -0.208304   -2.089306
    101          1           0        4.314597   -1.010397    0.433019
    102          1           0        4.046996    1.066559   -2.754888
    103          1           0        5.044431    2.418061   -2.143984
    104          1           0        5.856913    0.888649   -2.854766
    105          1           0        6.730206    1.603643   -0.195636
    106          1           0        6.266031   -0.079575    0.754263
    107          1           0        7.400731   -1.340571   -1.158123
    108          1           0        7.735380    0.212380   -1.969197
    109          1           0        8.893067    0.739423    0.381437
    110          1           0        8.921013   -0.968865    0.521688
    111          1           0        9.924057    0.138344   -1.828357
    112          1           0        9.525355   -2.137611   -2.448492
    113          1           0       10.940030   -2.236635   -1.798186
    114          1           0        9.781881   -2.726695   -0.611930
    115          1           0       11.327937    0.913950    0.203371
    116          1           0       11.449931   -0.981820    0.722872
    117          1           0       12.991628   -1.546788   -1.060842
    118          1           0       12.849506   -0.113497   -1.682183
    119          1           0       13.509784    0.812513    0.599753
    120          1           0       13.810789   -0.778667    1.100516
    121          1           0       15.215432    0.370404   -1.372775
    122          1           0       15.816527   -2.091490    0.449753
    123          1           0       15.062682   -2.264567   -1.167023
    124          1           0       16.773286   -1.907371   -1.039843
    125          1           0       16.196585    1.620423    0.662043
    126          1           0       16.437389   -0.043117    1.263708
    127          1           0       18.122481   -0.384175   -0.648025
    128          1           0       17.457399    1.336463   -0.960908
    129          1           0       18.379230    2.296861    1.212891
    130          1           0       18.733906    0.743703    1.600891
    131          1           0       20.561186    0.260450    0.025781
    132          1           0       20.244395    3.226586   -0.969729
    133          1           0       21.390810    2.165930   -1.669416
    134          1           0       19.617832    1.955045   -1.997267
    135          1           0       21.157603    0.809049    2.052686
    136          1           0       22.404595    1.687781    1.041197
    137          1           0       21.000018    2.644321    1.695627
 ---------------------------------------------------------------------

 SCF Done:  E(RCAM-B3LYP) =  -2932.54690162     A.U. after   16 cycles

 Excitation energies and oscillator strengths:

 Excited State   1:      Singlet-A      2.0598 eV  601.92 nm  f=0.2048  <S**2>=0.000
     240 -> 242       -0.10827
     240 -> 243       -0.28302
     241 -> 242        0.62689
 This state for optimization and/or second-order correction.
 Total Energy, E(TD-HF/TD-KS) =  -2932.47120441
 Copying the excited state density for this state as the 1-particle RhoCI density.

 The electronic state is 1-A.
 Alpha  occ. eigenvalues --  -46.83541 -19.26141 -19.24561 -19.21677 -19.20869
 Alpha  occ. eigenvalues --  -19.20796 -14.41231 -14.39051 -14.38721 -14.38375
 Alpha  occ. eigenvalues --  -10.39440 -10.39186 -10.35533 -10.32957 -10.30846
 Alpha  occ. eigenvalues --  -10.30731 -10.30382 -10.30367 -10.29635 -10.29562
 Alpha  occ. eigenvalues --  -10.29226 -10.29039 -10.28923 -10.28890 -10.28777
 Alpha  occ. eigenvalues --  -10.28372 -10.28333 -10.28010 -10.27740 -10.27695
 Alpha  occ. eigenvalues --  -10.27657 -10.27577 -10.27326 -10.27249 -10.27127
 Alpha  occ. eigenvalues --  -10.27103 -10.26909 -10.26879 -10.26843 -10.26681
 Alpha  occ. eigenvalues --  -10.26666 -10.26546 -10.26453 -10.26346 -10.26327
 Alpha  occ. eigenvalues --  -10.26256 -10.26128 -10.26105 -10.26065 -10.26001
 Alpha  occ. eigenvalues --  -10.25879 -10.25856 -10.25781 -10.25605 -10.25302
 Alpha  occ. eigenvalues --  -10.25251 -10.25059 -10.25031 -10.24865 -10.24684
 Alpha  occ. eigenvalues --  -10.24660 -10.24566 -10.24526 -10.24082 -10.23152
 Alpha  occ. eigenvalues --   -3.12565  -1.87275  -1.86812  -1.86735  -1.19095
 Alpha  occ. eigenvalues --   -1.14233  -1.10696  -1.10243  -1.05980  -1.05513
 Alpha  occ. eigenvalues --   -1.03027  -1.02514  -0.99158  -0.93212  -0.91964
 Alpha  occ. eigenvalues --   -0.90593  -0.90209  -0.89874  -0.89755  -0.88546
 Alpha  occ. eigenvalues --   -0.88437  -0.88052  -0.87285  -0.86459  -0.85907
 Alpha  occ. eigenvalues --   -0.85416  -0.84722  -0.84061  -0.83380  -0.82774
 Alpha  occ. eigenvalues --   -0.81902  -0.81042  -0.80060  -0.79887  -0.78479
 Alpha  occ. eigenvalues --   -0.78041  -0.77094  -0.76240  -0.76027  -0.75477
 Alpha  occ. eigenvalues --   -0.75294  -0.74500  -0.73733  -0.72819  -0.72335
 Alpha  occ. eigenvalues --   -0.72180  -0.70797  -0.70298  -0.68779  -0.68024
 Alpha  occ. eigenvalues --   -0.66779  -0.66537  -0.65736  -0.65280  -0.64850
 Alpha  occ. eigenvalues --   -0.64173  -0.63932  -0.63476  -0.62703  -0.62141
 Alpha  occ. eigenvalues --   -0.61662  -0.60904  -0.60186  -0.59614  -0.59318
 Alpha  occ. eigenvalues --   -0.58682  -0.58199  -0.57838  -0.56682  -0.56420
 Alpha  occ. eigenvalues --   -0.56349  -0.55555  -0.55432  -0.55169  -0.54723
 Alpha  occ. eigenvalues --   -0.54475  -0.54174  -0.53964  -0.53506  -0.53440
 Alpha  occ. eigenvalues --   -0.52918  -0.52582  -0.52421  -0.52066  -0.51827
 Alpha  occ. eigenvalues --   -0.51772  -0.51177  -0.51040  -0.50866  -0.50458
 Alpha  occ. eigenvalues --   -0.50054  -0.49890  -0.49649  -0.49438  -0.49124
 Alpha  occ. eigenvalues --   -0.48805  -0.48716  -0.48648  -0.48503  -0.48350
 Alpha  occ. eigenvalues --   -0.48271  -0.47939  -0.47799  -0.47696  -0.47350
 Alpha  occ. eigenvalues --   -0.47217  -0.46937  -0.46421  -0.46385  -0.46139
 Alpha  occ. eigenvalues --   -0.45700  -0.45374  -0.45219  -0.45025  -0.44530
 Alpha  occ. eigenvalues --   -0.44367  -0.44268  -0.44231  -0.44102  -0.43864
 Alpha  occ. eigenvalues --   -0.43633  -0.43587  -0.43357  -0.43263  -0.43062
 Alpha  occ. eigenvalues --   -0.42572  -0.42478  -0.42415  -0.42134  -0.42071
 Alpha  occ. eigenvalues --   -0.41905  -0.41783  -0.41443  -0.41169  -0.40891
 Alpha  occ. eigenvalues --   -0.40827  -0.40470  -0.40430  -0.40301  -0.39972
 Alpha  occ. eigenvalues --   -0.39811  -0.39716  -0.39482  -0.39427  -0.39088
 Alpha  occ. eigenvalues --   -0.38866  -0.38736  -0.38368  -0.37999  -0.37858
 Alpha  occ. eigenvalues --   -0.37526  -0.37158  -0.36916  -0.36558  -0.36493
 Alpha  occ. eigenvalues --   -0.36103  -0.36099  -0.35314  -0.35236  -0.35028
 Alpha  occ. eigenvalues --   -0.34862  -0.34352  -0.34231  -0.33915  -0.33348
 Alpha  occ. eigenvalues --   -0.33067  -0.32704  -0.32518  -0.30557  -0.30030
 Alpha  occ. eigenvalues --   -0.29621  -0.29012  -0.27158  -0.26967  -0.22663
 Alpha  occ. eigenvalues --   -0.21274
 Alpha virt. eigenvalues --   -0.06232  -0.03608   0.01524   0.02623   0.03717
 Alpha virt. eigenvalues --    0.04442   0.06271   0.06731   0.07173   0.07371
 Alpha virt. eigenvalues --    0.08582   0.10561   0.11135   0.11289   0.11677

 Mulliken charges:
               1
     1  Mg   0.802781
     2  C    0.071594
     3  C   -0.180698
     4  C   -0.159853
     5  C   -0.212835
     6  N   -0.642967
     7  C    0.313002
     8  C   -0.148163
     9  C   -0.123309
    10  C    0.327739
    11  C   -0.301602
    12  C   -0.189681
    13  C   -0.240740
    14  C    0.625735
    15  O   -0.496767
    16  O   -0.512814
    17  N   -0.729537
    18  C    0.297615
    19  C   -0.021044
    20  C   -0.017958
    21  C    0.336366
    22  C   -0.349982
    23  C   -0.086360
    24  C   -0.231322
    25  N   -0.654485
    26  C    0.240765
    27  C    0.117960
    28  C    0.028768
    29  C    0.252399
    30  C   -0.423003
    31  C   -0.271771
    32  C   -0.292738
    33  N   -0.733005
    34  C    0.296954
    35  C    0.050633
    36  C   -0.050670
    37  C    0.332981
    38  C   -0.365349
    39  C    0.388267
    40  O   -0.464034
    41  C   -0.335343
    42  C    0.622475
    43  O   -0.460224
    44  O   -0.427791
    45  C   -0.094387
    46  C   -0.024635
    47  C   -0.091100
    48  C    0.109068
    49  C   -0.362303
    50  C   -0.215486
    51  C   -0.177675
    52  C   -0.145359
    53  C   -0.066432
    54  C   -0.313033
    55  C   -0.171541
    56  C   -0.212509
    57  C   -0.166603
    58  C   -0.063774
    59  C   -0.315716
    60  C   -0.190817
    61  C   -0.164182
    62  C   -0.186688
    63  C   -0.035026
    64  C   -0.313793
    65  C   -0.284298
    66  H    0.079111
    67  H    0.065138
    68  H    0.076869
    69  H    0.120550
    70  H    0.084962
    71  H    0.088888
    72  H    0.099837
    73  H    0.134175
    74  H    0.118276
    75  H    0.130975
    76  H    0.140089
    77  H    0.095223
    78  H    0.123941
    79  H    0.127887
    80  H    0.127268
    81  H    0.100470
    82  H    0.099589
    83  H    0.114803
    84  H    0.138547
    85  H    0.120915
    86  H    0.108431
    87  H    0.112509
    88  H    0.095746
    89  H    0.111268
    90  H    0.119373
    91  H    0.091913
    92  H    0.113473
    93  H    0.143464
    94  H    0.142653
    95  H    0.172104
    96  H    0.114750
    97  H    0.119811
    98  H    0.124247
    99  H    0.146367
   100  H    0.121498
   101  H    0.107447
   102  H    0.112857
   103  H    0.106102
   104  H    0.141837
   105  H    0.078732
   106  H    0.103666
   107  H    0.096313
   108  H    0.073821
   109  H    0.087268
   110  H    0.074818
   111  H    0.068314
   112  H    0.072570
   113  H    0.116291
   114  H    0.089547
   115  H    0.110416
   116  H    0.105681
   117  H    0.099372
   118  H    0.096577
   119  H    0.096226
   120  H    0.103736
   121  H    0.091192
   122  H    0.079707
   123  H    0.110427
   124  H    0.100695
   125  H    0.072003
   126  H    0.081932
   127  H    0.097022
   128  H    0.110154
   129  H    0.077503
   130  H    0.079755
   131  H    0.102945
   132  H    0.105025
   133  H    0.086087
   134  H    0.075750
   135  H    0.066223
   136  H    0.080180
   137  H    0.120995
 Sum of Mulliken charges =   0.00000

 Dipole moment (field-independent basis, Debye):
    X=              1.2965    Y=              4.6886    Z=             -0.5582  Tot=              4.8965
 Quadrupole moment (field-independent basis, Debye-Ang):
   XX=           -329.7554   YY=           -390.0727   ZZ=           -397.8649
   XY=            -30.9289   XZ=             16.8482   YZ=              2.0797

 Normal termination of Gaussian 09 at Fri Jul  5 22:19:53 2019.
