 Gaussian 16, Revision A.03,
 Gaussian 16:  ES64L-G16RevA.03 25-Dec-2016

 ----------------------------------------------------------------------
 # td=(NStates=1) iop(3/107=0140000000,3/108=0140000000) CAM-B3LYP/6-31
 G(d,p)
 ----------------------------------------------------------------------

 --
 TD
 --
 Symbolic Z-matrix:
 Charge =  0 Multiplicity = 1

                         Standard orientation:
 ---------------------------------------------------------------------
 Center     Atomic      Atomic             Coordinates (Angstroms)
 Number     Number       Type             X           Y           Z
 ---------------------------------------------------------------------
      1         12           0       -7.095498    0.698608    0.087125
      2          6           0       -4.831084   -1.916559    0.527196
      3          6           0       -4.820803    2.835114    1.223963
      4          6           0       -9.293157    3.134165   -0.558930
      5          6           0       -9.554935   -1.662139   -0.868243
      6          7           0       -5.144508    0.418550    0.662285
      7          6           0       -4.376671   -0.751430    0.761246
      8          6           0       -2.967239   -0.474795    1.299956
      9          6           0       -3.083343    1.022447    1.738497
     10          6           0       -4.433010    1.443922    1.205157
     11          6           0       -3.102904    1.119032    3.337793
     12          6           0       -1.924915   -0.695290    0.131517
     13          6           0       -0.464736   -0.658625    0.669673
     14          6           0        0.585933   -0.727057   -0.504344
     15          8           0        0.176051   -1.062400   -1.595825
     16          8           0        1.754917   -0.422147   -0.148209
     17          7           0       -7.017565    2.645267    0.129438
     18          6           0       -5.993709    3.337621    0.782330
     19          6           0       -6.313017    4.770143    0.800239
     20          6           0       -7.538392    4.887127    0.199224
     21          6           0       -7.955196    3.572570   -0.133746
     22          6           0       -5.365357    5.853308    1.191400
     23          6           0       -8.383578    6.058431   -0.040143
     24          6           0       -8.243456    7.204102    0.726069
     25          7           0       -9.076114    0.712904   -0.615818
     26          6           0       -9.890389    1.921675   -0.702527
     27          6           0      -11.216282    1.521232   -1.096948
     28          6           0      -11.289691    0.193718   -1.218631
     29          6           0       -9.916123   -0.313598   -0.902858
     30          6           0      -12.357468    2.509302   -1.239825
     31          6           0      -12.484138   -0.696848   -1.528929
     32          6           0      -12.402660   -1.285395   -2.973079
     33          7           0       -7.199790   -1.347919   -0.245458
     34          6           0       -8.227907   -2.183030   -0.646317
     35          6           0       -7.875965   -3.556941   -0.602609
     36          6           0       -6.516534   -3.538132   -0.108141
     37          6           0       -6.190492   -2.159470    0.090638
     38          6           0       -8.648110   -4.742394   -0.933640
     39          6           0       -5.321241   -4.366955    0.095249
     40          8           0       -5.248853   -5.562918    0.087995
     41          6           0       -4.195887   -3.330844    0.574489
     42          6           0       -3.506788   -3.680279    1.766347
     43          8           0       -3.714086   -3.257237    2.884153
     44          8           0       -2.608561   -4.722169    1.593037
     45          6           0       -2.018069   -5.194163    2.742853
     46          6           0        2.744676   -0.757621   -1.091819
     47          6           0        4.114541   -0.398039   -0.364303
     48          6           0        5.108371    0.256872   -0.901881
     49          6           0        5.130039    1.051467   -2.128791
     50          6           0        6.359831    0.333346   -0.139715
     51          6           0        7.589317   -0.149483   -0.897690
     52          6           0        8.901104   -0.011877   -0.100177
     53          6           0       10.208386   -0.490894   -0.836220
     54          6           0       10.157782   -1.952226   -1.272381
     55          6           0       11.402961   -0.139928   -0.099661
     56          6           0       12.709136   -0.657840   -0.714696
     57          6           0       13.910721   -0.290401    0.286834
     58          6           0       15.357821   -0.177327   -0.409594
     59          6           0       15.808587   -1.690164   -0.695103
     60          6           0       16.358143    0.429227    0.443226
     61          6           0       17.702805    0.713980   -0.188057
     62          6           0       18.653577    1.413325    0.700148
     63          6           0       20.039354    1.373082    0.086975
     64          6           0       20.125440    2.166044   -1.243364
     65          6           0       21.126040    1.894614    1.138904
     66          1           0       -3.967028    3.453931    1.293510
     67          1           0       -9.923097    4.160953   -0.681555
     68          1           0      -10.484706   -2.361798   -0.874468
     69          1           0       -2.422428   -0.938277    2.211838
     70          1           0       -2.265364    1.507217    1.331724
     71          1           0       -2.085922    0.479111    3.715119
     72          1           0       -3.233864    2.116874    3.677197
     73          1           0       -3.795435    0.424845    3.762754
     74          1           0       -1.808897   -1.564694   -0.454585
     75          1           0       -2.029112    0.097300   -0.446912
     76          1           0       -0.208740    0.312642    0.991294
     77          1           0       -0.212692   -1.513048    1.285913
     78          1           0       -5.655698    6.724298    0.688652
     79          1           0       -5.368470    5.976575    2.426244
     80          1           0       -4.231098    5.715486    0.805298
     81          1           0       -9.256086    6.020577   -0.676311
     82          1           0       -8.997513    8.161058    0.797172
     83          1           0       -7.517926    7.518969    1.560786
     84          1           0      -12.256683    2.978208   -2.283120
     85          1           0      -13.351929    2.118175   -0.943662
     86          1           0      -12.355434    3.310352   -0.395057
     87          1           0      -12.468909   -1.479235   -0.600837
     88          1           0      -13.428190   -0.050626   -1.567169
     89          1           0      -13.471406   -1.721214   -3.348684
     90          1           0      -12.007351   -0.366774   -3.747070
     91          1           0      -11.734723   -2.206783   -3.060429
     92          1           0       -9.119664   -4.597802   -1.953167
     93          1           0       -7.890165   -5.623951   -1.020829
     94          1           0       -9.384512   -4.858188   -0.051681
     95          1           0       -3.523754   -3.563890   -0.323848
     96          1           0       -1.360660   -4.547719    3.111532
     97          1           0       -2.923099   -5.528046    3.310724
     98          1           0       -1.460204   -6.156023    2.360534
     99          1           0        2.809124   -1.884016   -1.315868
    100          1           0        2.516429   -0.287091   -1.922167
    101          1           0        4.320277   -0.933736    0.660406
    102          1           0        4.096026    1.143512   -2.421240
    103          1           0        5.598694    2.151786   -2.241607
    104          1           0        5.872756    0.549583   -2.790480
    105          1           0        6.563612    1.506247    0.052735
    106          1           0        6.304020   -0.098523    0.833463
    107          1           0        7.351537   -1.251608   -1.032404
    108          1           0        7.637074    0.313341   -1.986332
    109          1           0        9.037654    1.125456    0.013390
    110          1           0        8.730130   -0.643019    0.803227
    111          1           0       10.287028    0.134532   -1.977472
    112          1           0        9.324213   -2.073983   -1.934245
    113          1           0       11.121756   -2.362680   -1.685788
    114          1           0        9.878080   -2.617369   -0.447018
    115          1           0       11.516876    1.021279    0.152569
    116          1           0       11.619178   -0.644601    0.887231
    117          1           0       12.616643   -1.633458   -1.085236
    118          1           0       12.937243    0.132551   -1.635332
    119          1           0       13.682811    0.860249    0.697685
    120          1           0       13.990180   -0.947729    0.997254
    121          1           0       15.141104    0.500434   -1.276807
    122          1           0       15.926976   -2.261659    0.266163
    123          1           0       15.087376   -2.333318   -1.155006
    124          1           0       16.797027   -1.766749   -1.411872
    125          1           0       15.755444    1.262876    0.951907
    126          1           0       16.637692   -0.307735    1.340604
    127          1           0       18.074116   -0.169123   -0.469973
    128          1           0       17.697261    1.028705   -1.263764
    129          1           0       18.477572    2.426863    0.976254
    130          1           0       18.763905    0.943032    1.622623
    131          1           0       20.243510    0.394494    0.002690
    132          1           0       19.852274    3.142188   -0.898653
    133          1           0       21.168018    2.166615   -1.686942
    134          1           0       19.536825    1.985662   -2.093757
    135          1           0       21.299218    1.004232    2.026451
    136          1           0       22.163332    2.255452    0.558636
    137          1           0       20.755892    2.802115    1.594551
 ---------------------------------------------------------------------

 SCF Done:  E(RCAM-B3LYP) =  -2933.46979775     A.U. after   15 cycles

 Excitation energies and oscillator strengths:

 Excited State   1:      Singlet-A      1.8797 eV  659.59 nm  f=0.3042  <S**2>=0.000
     240 -> 243        0.16564
     241 -> 242        0.68725
 This state for optimization and/or second-order correction.
 Total Energy, E(TD-HF/TD-DFT) =  -2933.40071966
 Copying the excited state density for this state as the 1-particle RhoCI density.

 The electronic state is 1-A.
 Alpha  occ. eigenvalues --  -46.79369 -19.24047 -19.19874 -19.16030 -19.15661
 Alpha  occ. eigenvalues --  -19.15615 -14.37974 -14.35218 -14.35167 -14.34896
 Alpha  occ. eigenvalues --  -10.33755 -10.33191 -10.30437 -10.28323 -10.27066
 Alpha  occ. eigenvalues --  -10.25539 -10.25205 -10.25154 -10.25115 -10.24921
 Alpha  occ. eigenvalues --  -10.24535 -10.24521 -10.24454 -10.24392 -10.24363
 Alpha  occ. eigenvalues --  -10.24272 -10.24021 -10.23790 -10.23775 -10.23747
 Alpha  occ. eigenvalues --  -10.23704 -10.23658 -10.23337 -10.22943 -10.22942
 Alpha  occ. eigenvalues --  -10.22894 -10.22890 -10.22841 -10.22814 -10.22724
 Alpha  occ. eigenvalues --  -10.22662 -10.22631 -10.22625 -10.22606 -10.22462
 Alpha  occ. eigenvalues --  -10.22450 -10.22126 -10.22054 -10.22038 -10.21976
 Alpha  occ. eigenvalues --  -10.21892 -10.21884 -10.21771 -10.21725 -10.21538
 Alpha  occ. eigenvalues --  -10.21487 -10.21288 -10.21029 -10.20589 -10.20586
 Alpha  occ. eigenvalues --  -10.20315 -10.20040 -10.19623 -10.19415 -10.19025
 Alpha  occ. eigenvalues --   -3.08128  -1.83053  -1.82587  -1.82564  -1.17810
 Alpha  occ. eigenvalues --   -1.12251  -1.06865  -1.05003  -1.03471  -0.99255
 Alpha  occ. eigenvalues --   -0.98566  -0.97686  -0.96218  -0.87541  -0.87235
 Alpha  occ. eigenvalues --   -0.86044  -0.85326  -0.84442  -0.84251  -0.83644
 Alpha  occ. eigenvalues --   -0.83094  -0.83070  -0.82149  -0.81914  -0.81570
 Alpha  occ. eigenvalues --   -0.80076  -0.79484  -0.78335  -0.77980  -0.77198
 Alpha  occ. eigenvalues --   -0.77003  -0.76471  -0.75491  -0.75163  -0.73126
 Alpha  occ. eigenvalues --   -0.72827  -0.71985  -0.71589  -0.71079  -0.70939
 Alpha  occ. eigenvalues --   -0.70493  -0.70093  -0.69533  -0.69207  -0.68053
 Alpha  occ. eigenvalues --   -0.66887  -0.65915  -0.65229  -0.64051  -0.63313
 Alpha  occ. eigenvalues --   -0.62953  -0.62596  -0.61708  -0.60938  -0.60412
 Alpha  occ. eigenvalues --   -0.60239  -0.60053  -0.59004  -0.58275  -0.57251
 Alpha  occ. eigenvalues --   -0.56996  -0.56707  -0.56185  -0.55971  -0.55376
 Alpha  occ. eigenvalues --   -0.54829  -0.54358  -0.54122  -0.53564  -0.52967
 Alpha  occ. eigenvalues --   -0.52341  -0.51770  -0.51441  -0.51226  -0.51032
 Alpha  occ. eigenvalues --   -0.50617  -0.50309  -0.50191  -0.50027  -0.49707
 Alpha  occ. eigenvalues --   -0.49133  -0.48917  -0.48683  -0.48092  -0.47988
 Alpha  occ. eigenvalues --   -0.47414  -0.47156  -0.47077  -0.46886  -0.46782
 Alpha  occ. eigenvalues --   -0.46706  -0.46539  -0.46255  -0.45763  -0.45665
 Alpha  occ. eigenvalues --   -0.45523  -0.45321  -0.45069  -0.44834  -0.44734
 Alpha  occ. eigenvalues --   -0.44574  -0.44366  -0.43940  -0.43712  -0.43448
 Alpha  occ. eigenvalues --   -0.43117  -0.42708  -0.42563  -0.42474  -0.42307
 Alpha  occ. eigenvalues --   -0.42220  -0.41897  -0.41506  -0.41439  -0.41331
 Alpha  occ. eigenvalues --   -0.41075  -0.40863  -0.40683  -0.40634  -0.40506
 Alpha  occ. eigenvalues --   -0.40343  -0.40335  -0.40112  -0.39844  -0.39701
 Alpha  occ. eigenvalues --   -0.39588  -0.39584  -0.39351  -0.38934  -0.38829
 Alpha  occ. eigenvalues --   -0.38764  -0.38366  -0.38228  -0.38162  -0.37961
 Alpha  occ. eigenvalues --   -0.37440  -0.37345  -0.36834  -0.36810  -0.36760
 Alpha  occ. eigenvalues --   -0.36367  -0.36332  -0.35961  -0.35884  -0.35865
 Alpha  occ. eigenvalues --   -0.35541  -0.35436  -0.35249  -0.35083  -0.34686
 Alpha  occ. eigenvalues --   -0.34528  -0.34396  -0.34124  -0.33990  -0.33951
 Alpha  occ. eigenvalues --   -0.33869  -0.33527  -0.33062  -0.32851  -0.32737
 Alpha  occ. eigenvalues --   -0.32100  -0.31545  -0.31352  -0.30569  -0.30466
 Alpha  occ. eigenvalues --   -0.29597  -0.29146  -0.29034  -0.28819  -0.27622
 Alpha  occ. eigenvalues --   -0.26681  -0.26433  -0.25760  -0.25251  -0.22357
 Alpha  occ. eigenvalues --   -0.19444
 Alpha virt. eigenvalues --   -0.07657  -0.03029   0.00055   0.01647   0.03540
 Alpha virt. eigenvalues --    0.04215   0.04421   0.04574   0.05829   0.06228
 Alpha virt. eigenvalues --    0.06816   0.08832   0.09132   0.09458   0.10036

 Mulliken charges:
               1
     1  Mg   0.816702
     2  C    0.144552
     3  C   -0.200733
     4  C   -0.200809
     5  C   -0.178585
     6  N   -0.641970
     7  C    0.264375
     8  C   -0.159441
     9  C   -0.149474
    10  C    0.332346
    11  C   -0.308963
    12  C   -0.155889
    13  C   -0.289418
    14  C    0.559707
    15  O   -0.485086
    16  O   -0.386756
    17  N   -0.721088
    18  C    0.314372
    19  C    0.027751
    20  C    0.057004
    21  C    0.289223
    22  C   -0.368470
    23  C   -0.098242
    24  C   -0.242529
    25  N   -0.672938
    26  C    0.299654
    27  C    0.038956
    28  C    0.045024
    29  C    0.316500
    30  C   -0.377580
    31  C   -0.232947
    32  C   -0.286169
    33  N   -0.696359
    34  C    0.259896
    35  C    0.031080
    36  C    0.000852
    37  C    0.267434
    38  C   -0.384573
    39  C    0.348121
    40  O   -0.441797
    41  C   -0.326454
    42  C    0.638942
    43  O   -0.487050
    44  O   -0.462129
    45  C   -0.060607
    46  C   -0.008074
    47  C   -0.180978
    48  C    0.196161
    49  C   -0.363309
    50  C   -0.214220
    51  C   -0.184217
    52  C   -0.157919
    53  C   -0.024489
    54  C   -0.325615
    55  C   -0.145148
    56  C   -0.173653
    57  C   -0.176399
    58  C   -0.052099
    59  C   -0.319764
    60  C   -0.142632
    61  C   -0.170213
    62  C   -0.156809
    63  C   -0.062583
    64  C   -0.315434
    65  C   -0.305544
    66  H    0.088873
    67  H    0.061970
    68  H    0.087781
    69  H    0.111521
    70  H    0.105772
    71  H    0.074723
    72  H    0.120965
    73  H    0.145054
    74  H    0.133301
    75  H    0.110984
    76  H    0.120187
    77  H    0.128830
    78  H    0.133360
    79  H    0.100496
    80  H    0.098608
    81  H    0.109819
    82  H    0.085182
    83  H    0.111357
    84  H    0.123242
    85  H    0.117664
    86  H    0.107994
    87  H    0.097704
    88  H    0.106106
    89  H    0.087556
    90  H    0.093124
    91  H    0.111409
    92  H    0.119104
    93  H    0.141310
    94  H    0.125738
    95  H    0.162696
    96  H    0.121092
    97  H    0.124361
    98  H    0.099493
    99  H    0.127027
   100  H    0.133842
   101  H    0.085924
   102  H    0.110437
   103  H    0.107054
   104  H    0.125796
   105  H    0.072372
   106  H    0.093543
   107  H    0.087904
   108  H    0.078597
   109  H    0.091257
   110  H    0.096190
   111  H    0.034361
   112  H    0.113340
   113  H    0.102929
   114  H    0.097253
   115  H    0.076817
   116  H    0.086483
   117  H    0.103203
   118  H    0.057511
   119  H    0.059296
   120  H    0.104048
   121  H    0.084510
   122  H    0.100948
   123  H    0.103633
   124  H    0.079459
   125  H    0.071185
   126  H    0.062585
   127  H    0.108329
   128  H    0.080443
   129  H    0.087997
   130  H    0.093275
   131  H    0.096842
   132  H    0.104603
   133  H    0.089221
   134  H    0.109897
   135  H    0.073973
   136  H    0.077311
   137  H    0.109729
 Sum of Mulliken charges =  -0.00000

 Dipole moment (field-independent basis, Debye):
    X=              1.6062    Y=              4.5038    Z=              0.3484  Tot=              4.7943
 Quadrupole moment (field-independent basis, Debye-Ang):
   XX=           -351.5282   YY=           -397.6481   ZZ=           -402.2185
   XY=            -36.2447   XZ=              3.4853   YZ=              2.0981

 Normal termination of Gaussian 16 at Wed Sep 11 13:56:50 2019.
