 Gaussian 09, Revision D.01,
 Gaussian 09:  ES64L-G09RevD.01 24-Apr-2013

 -------------------------------------
 # td=(NStates=1) CAM-B3LYP/6-31G(d,p)
 -------------------------------------

 --
 TD
 --
 Symbolic Z-matrix:
 Charge =  0 Multiplicity = 1

                         Standard orientation:
 ---------------------------------------------------------------------
 Center     Atomic      Atomic             Coordinates (Angstroms)
 Number     Number       Type             X           Y           Z
 ---------------------------------------------------------------------
      1         12           0       -7.125563    0.555233   -0.006055
      2          6           0       -4.820628   -1.867840    0.480033
      3          6           0       -4.857617    2.904062    1.197281
      4          6           0       -9.436931    3.066043   -0.391871
      5          6           0       -9.538478   -1.808881   -0.897270
      6          7           0       -5.072894    0.508680    0.526343
      7          6           0       -4.275899   -0.646380    0.712565
      8          6           0       -2.985323   -0.318852    1.210249
      9          6           0       -3.072382    1.231555    1.633146
     10          6           0       -4.437763    1.579185    1.102939
     11          6           0       -2.995241    1.265778    3.162596
     12          6           0       -1.857140   -0.390707    0.077133
     13          6           0       -0.393427   -0.381491    0.510593
     14          6           0        0.583208   -0.630691   -0.704919
     15          8           0        0.254873   -1.052117   -1.778748
     16          8           0        1.777600   -0.327992   -0.198992
     17          7           0       -7.140891    2.637345    0.239158
     18          6           0       -6.126595    3.370852    0.666001
     19          6           0       -6.507803    4.759767    0.875974
     20          6           0       -7.803244    4.795584    0.311011
     21          6           0       -8.199057    3.490972    0.051793
     22          6           0       -5.592876    5.887183    1.264612
     23          6           0       -8.748601    5.982876    0.215556
     24          6           0       -8.580337    7.183819    0.848385
     25          7           0       -9.076071    0.621589   -0.760051
     26          6           0       -9.842843    1.757284   -0.711596
     27          6           0      -11.224525    1.365224   -1.207913
     28          6           0      -11.199675   -0.018904   -1.332207
     29          6           0       -9.970790   -0.500186   -0.947666
     30          6           0      -12.360104    2.385735   -1.456725
     31          6           0      -12.388026   -0.862856   -1.750515
     32          6           0      -12.245271   -1.277242   -3.157214
     33          7           0       -7.189705   -1.506928   -0.189836
     34          6           0       -8.317249   -2.319814   -0.404249
     35          6           0       -7.788229   -3.691799   -0.380615
     36          6           0       -6.410719   -3.603022   -0.091808
     37          6           0       -6.168859   -2.207508    0.086928
     38          6           0       -8.627369   -4.882007   -0.642455
     39          6           0       -5.222122   -4.363932    0.293068
     40          8           0       -5.059841   -5.502653    0.356124
     41          6           0       -4.064441   -3.281742    0.643841
     42          6           0       -3.518871   -3.556269    1.939442
     43          8           0       -3.686351   -3.006126    3.028630
     44          8           0       -2.672806   -4.578304    1.848297
     45          6           0       -2.207310   -5.132857    3.134671
     46          6           0        2.853972   -0.718340   -1.162623
     47          6           0        4.128689   -0.441417   -0.607230
     48          6           0        5.132782    0.363370   -0.996035
     49          6           0        4.966794    1.235249   -2.239150
     50          6           0        6.528889    0.531185   -0.247972
     51          6           0        7.627145   -0.157190   -1.008303
     52          6           0        8.926411   -0.128016   -0.159364
     53          6           0       10.227566   -0.552916   -0.900202
     54          6           0       10.056934   -2.136157   -1.361472
     55          6           0       11.489007   -0.216730   -0.124747
     56          6           0       12.757591   -0.500384   -0.793478
     57          6           0       13.955206    0.001820    0.057143
     58          6           0       15.354618   -0.194021   -0.449532
     59          6           0       15.779478   -1.685507   -0.704881
     60          6           0       16.418966    0.478035    0.430790
     61          6           0       17.793567    0.377075   -0.124402
     62          6           0       18.857946    1.125521    0.833020
     63          6           0       20.302981    1.285819    0.246689
     64          6           0       20.413379    2.113018   -1.052887
     65          6           0       21.182284    2.001729    1.271719
     66          1           0       -4.060370    3.548228    1.778513
     67          1           0      -10.273085    3.671822   -0.575708
     68          1           0      -10.233973   -2.581395   -1.091226
     69          1           0       -2.765960   -0.946387    2.214842
     70          1           0       -2.410057    1.887294    1.292055
     71          1           0       -2.053238    1.113959    3.532638
     72          1           0       -3.218077    2.343210    3.616185
     73          1           0       -3.500474    0.426131    3.560817
     74          1           0       -1.968018   -1.291554   -0.423523
     75          1           0       -2.089020    0.291244   -0.745237
     76          1           0       -0.253790    0.585878    0.802267
     77          1           0       -0.230500   -1.204050    1.291030
     78          1           0       -5.675308    6.873433    0.747090
     79          1           0       -5.702372    6.253564    2.401578
     80          1           0       -4.600230    5.576412    1.114633
     81          1           0       -9.434229    5.882922   -0.664163
     82          1           0       -9.461054    7.904975    0.759127
     83          1           0       -7.815118    7.276094    1.531783
     84          1           0      -12.204083    3.017154   -2.403064
     85          1           0      -13.236650    1.669679   -1.879655
     86          1           0      -12.510035    2.941258   -0.738527
     87          1           0      -12.343268   -1.679831   -1.109721
     88          1           0      -13.352704   -0.339798   -1.632704
     89          1           0      -13.105842   -1.965321   -3.435656
     90          1           0      -12.269944   -0.472116   -3.780309
     91          1           0      -11.375023   -1.863581   -3.312506
     92          1           0       -8.652293   -4.954793   -1.846867
     93          1           0       -8.177956   -5.764860   -0.115110
     94          1           0       -9.735440   -4.794732   -0.077527
     95          1           0       -3.374230   -3.383070   -0.274640
     96          1           0       -1.624846   -4.317406    3.687216
     97          1           0       -3.118367   -5.255588    3.856275
     98          1           0       -1.742725   -5.986155    2.901279
     99          1           0        2.812882   -1.857604   -1.464278
    100          1           0        2.763318   -0.115298   -2.170428
    101          1           0        4.437435   -1.076517    0.258773
    102          1           0        3.897887    1.013557   -2.612332
    103          1           0        5.045410    2.404027   -1.917968
    104          1           0        5.915071    1.049208   -2.859352
    105          1           0        6.720099    1.525244   -0.189049
    106          1           0        6.272171    0.113722    0.758836
    107          1           0        7.410399   -1.260996   -1.260656
    108          1           0        7.813662    0.478989   -2.003635
    109          1           0        9.071970    0.810086   -0.151409
    110          1           0        8.852085   -0.753274    0.756885
    111          1           0       10.115298   -0.215895   -1.818840
    112          1           0        9.086624   -2.121099   -1.859369
    113          1           0       10.989449   -2.518835   -1.942596
    114          1           0       10.026270   -2.834255   -0.472311
    115          1           0       11.474606    0.858199    0.269999
    116          1           0       11.522053   -0.725395    0.817398
    117          1           0       12.721543   -1.681875   -0.838223
    118          1           0       12.748765   -0.118833   -1.987894
    119          1           0       13.836482    1.106068    0.295454
    120          1           0       13.707470   -0.507425    1.031137
    121          1           0       15.387564    0.241410   -1.328948
    122          1           0       15.692822   -2.285190    0.204192
    123          1           0       15.053871   -2.156670   -1.493467
    124          1           0       16.727630   -1.661519   -1.467591
    125          1           0       16.042208    1.508379    0.628942
    126          1           0       16.441852    0.014061    1.507118
    127          1           0       18.018604   -0.697017   -0.246801
    128          1           0       17.641338    1.049181   -1.125541
    129          1           0       18.466480    2.094261    1.012096
    130          1           0       18.922529    0.582432    1.769987
    131          1           0       20.522518    0.345680    0.032601
    132          1           0       19.970803    3.174246   -0.840564
    133          1           0       21.495310    2.211655   -1.507038
    134          1           0       19.683066    1.889560   -1.817579
    135          1           0       21.153600    1.477929    2.160498
    136          1           0       21.995747    2.086776    1.168367
    137          1           0       20.757248    2.949842    1.556010
 ---------------------------------------------------------------------

 SCF Done:  E(RCAM-B3LYP) =  -2932.61832311     A.U. after   18 cycles

 Excitation energies and oscillator strengths:

 Excited State   1:      Singlet-A      2.0483 eV  605.31 nm  f=0.2602  <S**2>=0.000
     240 -> 243       -0.22280
     241 -> 242        0.66066
 This state for optimization and/or second-order correction.
 Total Energy, E(TD-HF/TD-KS) =  -2932.54304996
 Copying the excited state density for this state as the 1-particle RhoCI density.

 The electronic state is 1-A.
 Alpha  occ. eigenvalues --  -46.84678 -19.27564 -19.25367 -19.21640 -19.20668
 Alpha  occ. eigenvalues --  -19.19661 -14.40971 -14.39297 -14.39189 -14.38725
 Alpha  occ. eigenvalues --  -10.39319 -10.38171 -10.34953 -10.33511 -10.31036
 Alpha  occ. eigenvalues --  -10.30333 -10.30182 -10.29600 -10.29241 -10.29101
 Alpha  occ. eigenvalues --  -10.28786 -10.28521 -10.28405 -10.28273 -10.28246
 Alpha  occ. eigenvalues --  -10.28245 -10.28216 -10.28030 -10.27926 -10.27916
 Alpha  occ. eigenvalues --  -10.27788 -10.27682 -10.27147 -10.27135 -10.26988
 Alpha  occ. eigenvalues --  -10.26860 -10.26848 -10.26574 -10.26545 -10.26543
 Alpha  occ. eigenvalues --  -10.26542 -10.26390 -10.26277 -10.26219 -10.26218
 Alpha  occ. eigenvalues --  -10.26216 -10.26030 -10.25907 -10.25710 -10.25671
 Alpha  occ. eigenvalues --  -10.25578 -10.25345 -10.25303 -10.25242 -10.25200
 Alpha  occ. eigenvalues --  -10.25132 -10.25130 -10.24842 -10.24807 -10.24787
 Alpha  occ. eigenvalues --  -10.24685 -10.24676 -10.24237 -10.23771 -10.20571
 Alpha  occ. eigenvalues --   -3.13483  -1.88216  -1.87701  -1.87655  -1.18682
 Alpha  occ. eigenvalues --   -1.17573  -1.14886  -1.10519  -1.06963  -1.04902
 Alpha  occ. eigenvalues --   -1.04509  -1.02298  -1.01001  -0.91800  -0.91096
 Alpha  occ. eigenvalues --   -0.90913  -0.89851  -0.89581  -0.88824  -0.88511
 Alpha  occ. eigenvalues --   -0.88341  -0.87768  -0.87222  -0.87006  -0.86744
 Alpha  occ. eigenvalues --   -0.85343  -0.84241  -0.83558  -0.83319  -0.82792
 Alpha  occ. eigenvalues --   -0.81720  -0.81366  -0.80499  -0.79712  -0.78135
 Alpha  occ. eigenvalues --   -0.77588  -0.77406  -0.77206  -0.75879  -0.75591
 Alpha  occ. eigenvalues --   -0.74869  -0.74757  -0.74197  -0.73413  -0.72190
 Alpha  occ. eigenvalues --   -0.71427  -0.70334  -0.69945  -0.69155  -0.67979
 Alpha  occ. eigenvalues --   -0.66888  -0.66807  -0.65511  -0.64491  -0.64278
 Alpha  occ. eigenvalues --   -0.63851  -0.63782  -0.63302  -0.63208  -0.62933
 Alpha  occ. eigenvalues --   -0.61445  -0.60442  -0.59836  -0.59516  -0.58787
 Alpha  occ. eigenvalues --   -0.58108  -0.57734  -0.57649  -0.57280  -0.56960
 Alpha  occ. eigenvalues --   -0.56004  -0.55577  -0.55263  -0.55059  -0.54651
 Alpha  occ. eigenvalues --   -0.54549  -0.54296  -0.53918  -0.53562  -0.53487
 Alpha  occ. eigenvalues --   -0.53012  -0.52849  -0.52660  -0.52329  -0.51816
 Alpha  occ. eigenvalues --   -0.51247  -0.51062  -0.50970  -0.50921  -0.50600
 Alpha  occ. eigenvalues --   -0.50377  -0.50181  -0.50156  -0.50023  -0.49678
 Alpha  occ. eigenvalues --   -0.49518  -0.49219  -0.49074  -0.48745  -0.48628
 Alpha  occ. eigenvalues --   -0.48169  -0.47947  -0.47740  -0.47421  -0.47350
 Alpha  occ. eigenvalues --   -0.47101  -0.46619  -0.46298  -0.46223  -0.46142
 Alpha  occ. eigenvalues --   -0.45769  -0.45528  -0.45299  -0.45035  -0.44971
 Alpha  occ. eigenvalues --   -0.44801  -0.44621  -0.44598  -0.44346  -0.44240
 Alpha  occ. eigenvalues --   -0.43930  -0.43868  -0.43618  -0.43495  -0.43311
 Alpha  occ. eigenvalues --   -0.43164  -0.43068  -0.42757  -0.42677  -0.42624
 Alpha  occ. eigenvalues --   -0.42432  -0.42208  -0.42146  -0.41892  -0.41199
 Alpha  occ. eigenvalues --   -0.40817  -0.40696  -0.40621  -0.40436  -0.40210
 Alpha  occ. eigenvalues --   -0.40035  -0.39921  -0.39900  -0.39481  -0.39187
 Alpha  occ. eigenvalues --   -0.38966  -0.38810  -0.38098  -0.38085  -0.37813
 Alpha  occ. eigenvalues --   -0.37479  -0.37221  -0.37128  -0.36779  -0.36419
 Alpha  occ. eigenvalues --   -0.36271  -0.35866  -0.35730  -0.35526  -0.35312
 Alpha  occ. eigenvalues --   -0.35051  -0.34829  -0.34649  -0.34381  -0.33839
 Alpha  occ. eigenvalues --   -0.33131  -0.32805  -0.31850  -0.30794  -0.30062
 Alpha  occ. eigenvalues --   -0.29786  -0.29201  -0.27721  -0.27312  -0.22863
 Alpha  occ. eigenvalues --   -0.21491
 Alpha virt. eigenvalues --   -0.06773  -0.02493   0.02680   0.04234   0.05487
 Alpha virt. eigenvalues --    0.05697   0.06246   0.06849   0.07218   0.07719
 Alpha virt. eigenvalues --    0.08428   0.10943   0.11064   0.11933   0.11942

 Mulliken charges:
               1
     1  Mg   0.814955
     2  C    0.027210
     3  C   -0.214823
     4  C   -0.161938
     5  C   -0.158775
     6  N   -0.661003
     7  C    0.332113
     8  C   -0.211242
     9  C   -0.131771
    10  C    0.368668
    11  C   -0.320197
    12  C   -0.187268
    13  C   -0.259014
    14  C    0.612403
    15  O   -0.461201
    16  O   -0.455069
    17  N   -0.698917
    18  C    0.310946
    19  C    0.017326
    20  C   -0.018351
    21  C    0.346625
    22  C   -0.382560
    23  C   -0.069179
    24  C   -0.241343
    25  N   -0.685225
    26  C    0.293125
    27  C   -0.035632
    28  C    0.045671
    29  C    0.266768
    30  C   -0.340453
    31  C   -0.228708
    32  C   -0.300689
    33  N   -0.723831
    34  C    0.235877
    35  C   -0.015038
    36  C    0.006497
    37  C    0.349537
    38  C   -0.369144
    39  C    0.351971
    40  O   -0.401519
    41  C   -0.330231
    42  C    0.646046
    43  O   -0.515783
    44  O   -0.454827
    45  C   -0.074312
    46  C   -0.010168
    47  C   -0.118466
    48  C    0.100002
    49  C   -0.343277
    50  C   -0.204404
    51  C   -0.201271
    52  C   -0.144674
    53  C   -0.072377
    54  C   -0.335883
    55  C   -0.161858
    56  C   -0.158986
    57  C   -0.172583
    58  C   -0.035174
    59  C   -0.325756
    60  C   -0.163008
    61  C   -0.180093
    62  C   -0.184707
    63  C   -0.056584
    64  C   -0.306273
    65  C   -0.254258
    66  H    0.089619
    67  H    0.081753
    68  H    0.094133
    69  H    0.128031
    70  H    0.107246
    71  H    0.118545
    72  H    0.082418
    73  H    0.136592
    74  H    0.117742
    75  H    0.112720
    76  H    0.132998
    77  H    0.131486
    78  H    0.128040
    79  H    0.101783
    80  H    0.123942
    81  H    0.096424
    82  H    0.104504
    83  H    0.106497
    84  H    0.112008
    85  H    0.093569
    86  H    0.130998
    87  H    0.108333
    88  H    0.101983
    89  H    0.087024
    90  H    0.119390
    91  H    0.112644
    92  H    0.125061
    93  H    0.142949
    94  H    0.097513
    95  H    0.172295
    96  H    0.124386
    97  H    0.128706
    98  H    0.132862
    99  H    0.129915
   100  H    0.113448
   101  H    0.077562
   102  H    0.101763
   103  H    0.095825
   104  H    0.116568
   105  H    0.116453
   106  H    0.104732
   107  H    0.099510
   108  H    0.078012
   109  H    0.103134
   110  H    0.096925
   111  H    0.098188
   112  H    0.104879
   113  H    0.095557
   114  H    0.089392
   115  H    0.073918
   116  H    0.097690
   117  H    0.085804
   118  H    0.055197
   119  H    0.083464
   120  H    0.082299
   121  H    0.096612
   122  H    0.112837
   123  H    0.086269
   124  H    0.096844
   125  H    0.081815
   126  H    0.063688
   127  H    0.107527
   128  H    0.069652
   129  H    0.093050
   130  H    0.094083
   131  H    0.095913
   132  H    0.076214
   133  H    0.092094
   134  H    0.099967
   135  H    0.087532
   136  H    0.079104
   137  H    0.094469
 Sum of Mulliken charges =   0.00000

 Dipole moment (field-independent basis, Debye):
    X=              2.2774    Y=              3.6249    Z=              0.5885  Tot=              4.3212
 Quadrupole moment (field-independent basis, Debye-Ang):
   XX=           -344.4360   YY=           -390.3871   ZZ=           -399.1183
   XY=            -17.0044   XZ=             14.9073   YZ=             -1.7290

 Normal termination of Gaussian 09 at Fri Jul  5 14:32:11 2019.
