 Gaussian 16, Revision A.03,
 Gaussian 16:  ES64L-G16RevA.03 25-Dec-2016

 -------------------------------------
 # td=(NStates=1) CAM-B3LYP/6-31G(d,p)
 -------------------------------------

 --
 TD
 --
 Symbolic Z-matrix:
 Charge =  0 Multiplicity = 1

                         Standard orientation:
 ---------------------------------------------------------------------
 Center     Atomic      Atomic             Coordinates (Angstroms)
 Number     Number       Type             X           Y           Z
 ---------------------------------------------------------------------
      1         12           0       -7.125217    0.579856    0.089096
      2          6           0       -4.816900   -1.898141    0.418701
      3          6           0       -4.857082    2.859191    1.188135
      4          6           0       -9.538315    3.104877   -0.401819
      5          6           0       -9.527397   -1.783924   -0.661989
      6          7           0       -5.108782    0.432356    0.596313
      7          6           0       -4.242044   -0.685257    0.699322
      8          6           0       -2.929568   -0.407210    1.146623
      9          6           0       -3.064671    1.152512    1.535749
     10          6           0       -4.398698    1.457895    1.065663
     11          6           0       -2.708188    1.323464    3.076074
     12          6           0       -1.845574   -0.684731    0.044269
     13          6           0       -0.419946   -0.477222    0.527459
     14          6           0        0.532170   -0.943620   -0.656969
     15          8           0        0.174198   -1.250433   -1.759204
     16          8           0        1.811261   -0.605765   -0.366882
     17          7           0       -7.145044    2.706491    0.197591
     18          6           0       -6.088096    3.351835    0.739281
     19          6           0       -6.472068    4.818949    0.706119
     20          6           0       -7.759177    4.883915    0.328419
     21          6           0       -8.147815    3.536970    0.002889
     22          6           0       -5.521462    5.929362    1.044984
     23          6           0       -8.648384    6.063388    0.061215
     24          6           0       -8.667543    7.206104    0.747671
     25          7           0       -9.133821    0.659829   -0.461596
     26          6           0       -9.933625    1.795465   -0.643478
     27          6           0      -11.226413    1.303121   -0.983575
     28          6           0      -11.213825    0.000832   -1.125839
     29          6           0       -9.895967   -0.424597   -0.773582
     30          6           0      -12.250309    2.314328   -1.236797
     31          6           0      -12.393570   -0.798291   -1.708465
     32          6           0      -12.106597   -1.151900   -3.162715
     33          7           0       -7.158487   -1.330656   -0.140709
     34          6           0       -8.337384   -2.226638   -0.369581
     35          6           0       -7.860536   -3.672439   -0.327303
     36          6           0       -6.536822   -3.569689   -0.045274
     37          6           0       -6.202686   -2.177465    0.143417
     38          6           0       -8.595845   -4.882876   -0.586442
     39          6           0       -5.287822   -4.374098    0.144388
     40          8           0       -5.119030   -5.574937    0.173297
     41          6           0       -4.187001   -3.360276    0.537008
     42          6           0       -3.510480   -3.675209    1.813893
     43          8           0       -3.770456   -3.089330    2.872602
     44          8           0       -2.679600   -4.632337    1.790080
     45          6           0       -2.045350   -4.894933    3.097712
     46          6           0        2.864639   -0.743644   -1.342324
     47          6           0        4.200788   -0.581013   -0.607515
     48          6           0        5.064664    0.282398   -0.992230
     49          6           0        5.006432    1.331865   -2.172733
     50          6           0        6.353812    0.337095   -0.170799
     51          6           0        7.605628   -0.194828   -0.972105
     52          6           0        8.924418   -0.011165   -0.134056
     53          6           0       10.103881   -0.455586   -0.925981
     54          6           0       10.055781   -1.869654   -1.542031
     55          6           0       11.362439   -0.220031   -0.114794
     56          6           0       12.754970   -0.476663   -0.800382
     57          6           0       13.964694   -0.026902    0.194499
     58          6           0       15.395640   -0.218282   -0.460168
     59          6           0       15.820963   -1.682150   -0.720545
     60          6           0       16.350883    0.418333    0.464096
     61          6           0       17.854502    0.440186   -0.052086
     62          6           0       18.760367    1.281716    0.836581
     63          6           0       20.185292    1.386411    0.332636
     64          6           0       20.262515    2.232924   -0.979554
     65          6           0       21.210061    1.815143    1.349178
     66          1           0       -4.211242    3.724067    1.734163
     67          1           0      -10.321058    3.892796   -0.734891
     68          1           0      -10.307671   -2.514922   -1.010420
     69          1           0       -2.689873   -0.993371    2.091037
     70          1           0       -2.474102    1.673658    0.688078
     71          1           0       -1.672863    1.032399    3.414492
     72          1           0       -2.779188    2.442637    3.464443
     73          1           0       -3.464857    0.751757    3.815297
     74          1           0       -1.986847   -1.816579   -0.305344
     75          1           0       -1.913728   -0.006750   -0.953328
     76          1           0       -0.237498    0.957403    0.354234
     77          1           0       -0.338032   -1.044286    1.611926
     78          1           0       -5.796353    6.809476    0.488410
     79          1           0       -5.801457    6.017292    2.108085
     80          1           0       -4.515790    5.553878    1.010469
     81          1           0       -9.361014    5.862288   -0.662050
     82          1           0       -9.316819    8.092371    0.492435
     83          1           0       -7.879883    7.512221    1.588549
     84          1           0      -11.965288    3.082670   -1.852126
     85          1           0      -13.230501    1.990258   -1.631627
     86          1           0      -12.649873    2.805158   -0.318870
     87          1           0      -12.570065   -1.610515   -1.176589
     88          1           0      -13.299697   -0.028493   -1.741499
     89          1           0      -13.063327   -1.821253   -3.501319
     90          1           0      -12.029633   -0.384108   -3.858195
     91          1           0      -11.218215   -1.467736   -3.373779
     92          1           0       -8.976971   -4.885383   -1.559170
     93          1           0       -7.997255   -5.831069   -0.466770
     94          1           0       -9.483095   -4.855273   -0.052619
     95          1           0       -3.396194   -3.481828   -0.191824
     96          1           0       -1.596539   -3.971035    3.578028
     97          1           0       -3.012114   -5.270140    3.558669
     98          1           0       -1.243000   -5.585851    2.900998
     99          1           0        2.670588   -1.751752   -1.891315
    100          1           0        2.796682   -0.097578   -2.209926
    101          1           0        4.248647   -1.170121    0.193043
    102          1           0        3.832972    1.485594   -2.363724
    103          1           0        5.568926    2.168017   -1.880188
    104          1           0        5.685123    0.959005   -3.076644
    105          1           0        6.521264    1.394108    0.142540
    106          1           0        6.248988   -0.154331    0.789700
    107          1           0        7.537780   -1.325685   -1.367833
    108          1           0        7.668194    0.328113   -1.831434
    109          1           0        8.984013    1.207833   -0.089229
    110          1           0        9.083236   -0.422528    0.824129
    111          1           0       10.156512    0.343613   -1.907441
    112          1           0        9.471999   -2.140885   -2.392619
    113          1           0       10.895714   -2.034788   -2.258450
    114          1           0       10.133583   -2.675528   -0.782707
    115          1           0       11.164583    0.687583    0.423460
    116          1           0       11.352106   -0.899670    0.710033
    117          1           0       12.922910   -1.523724   -1.077831
    118          1           0       12.779673    0.284903   -1.702842
    119          1           0       13.755459    0.914631    0.508972
    120          1           0       13.795564   -0.658705    0.963395
    121          1           0       15.418925    0.387307   -1.285076
    122          1           0       15.684660   -2.343188    0.289109
    123          1           0       15.340226   -2.336795   -1.538580
    124          1           0       16.847550   -1.556533   -1.093376
    125          1           0       15.933511    1.450308    0.539117
    126          1           0       16.392026   -0.104870    1.439446
    127          1           0       18.460097   -0.416550   -0.054966
    128          1           0       17.887103    1.012192   -0.985654
    129          1           0       18.389342    2.388311    0.998288
    130          1           0       18.874048    0.829688    1.825248
    131          1           0       20.536478    0.359147    0.055713
    132          1           0       20.021927    3.261063   -0.605756
    133          1           0       21.335179    2.425708   -1.356911
    134          1           0       19.701187    1.911596   -1.824817
    135          1           0       21.060568    1.030529    2.320889
    136          1           0       22.257392    1.889665    1.030192
    137          1           0       20.995590    2.891518    1.476560
 ---------------------------------------------------------------------

 SCF Done:  E(RCAM-B3LYP) =  -2932.65054036     A.U. after   18 cycles

 Excitation energies and oscillator strengths:

 Excited State   1:      Singlet-A      1.9020 eV  651.86 nm  f=0.2757  <S**2>=0.000
     240 -> 243       -0.19738
     241 -> 242        0.67340
 This state for optimization and/or second-order correction.
 Total Energy, E(TD-HF/TD-DFT) =  -2932.58064263
 Copying the excited state density for this state as the 1-particle RhoCI density.

 The electronic state is 1-A.
 Alpha  occ. eigenvalues --  -46.83823 -19.27234 -19.25847 -19.21698 -19.20987
 Alpha  occ. eigenvalues --  -19.18979 -14.42261 -14.39945 -14.38695 -14.38142
 Alpha  occ. eigenvalues --  -10.40033 -10.38355 -10.35765 -10.32771 -10.32567
 Alpha  occ. eigenvalues --  -10.31956 -10.31597 -10.30363 -10.29347 -10.29344
 Alpha  occ. eigenvalues --  -10.29157 -10.29120 -10.29089 -10.29075 -10.29041
 Alpha  occ. eigenvalues --  -10.28833 -10.28293 -10.28127 -10.27964 -10.27545
 Alpha  occ. eigenvalues --  -10.27482 -10.27253 -10.27226 -10.27212 -10.27137
 Alpha  occ. eigenvalues --  -10.27047 -10.26836 -10.26667 -10.26458 -10.26188
 Alpha  occ. eigenvalues --  -10.26183 -10.26181 -10.26116 -10.25991 -10.25973
 Alpha  occ. eigenvalues --  -10.25866 -10.25785 -10.25772 -10.25549 -10.25225
 Alpha  occ. eigenvalues --  -10.25219 -10.25197 -10.25171 -10.25097 -10.25091
 Alpha  occ. eigenvalues --  -10.24953 -10.24748 -10.24678 -10.24566 -10.24476
 Alpha  occ. eigenvalues --  -10.24082 -10.24022 -10.23719 -10.23712 -10.23588
 Alpha  occ. eigenvalues --   -3.12971  -1.87667  -1.87220  -1.87152  -1.20910
 Alpha  occ. eigenvalues --   -1.18193  -1.11731  -1.09870  -1.07269  -1.05090
 Alpha  occ. eigenvalues --   -1.03812  -1.02950  -1.01717  -0.91624  -0.91296
 Alpha  occ. eigenvalues --   -0.90794  -0.89989  -0.89593  -0.89227  -0.88709
 Alpha  occ. eigenvalues --   -0.88308  -0.88063  -0.87587  -0.86947  -0.85187
 Alpha  occ. eigenvalues --   -0.84717  -0.84048  -0.83731  -0.82597  -0.82453
 Alpha  occ. eigenvalues --   -0.81726  -0.80849  -0.80626  -0.79479  -0.78700
 Alpha  occ. eigenvalues --   -0.77259  -0.76930  -0.76789  -0.76611  -0.75904
 Alpha  occ. eigenvalues --   -0.75174  -0.74819  -0.74636  -0.73754  -0.72131
 Alpha  occ. eigenvalues --   -0.71852  -0.70482  -0.69876  -0.68680  -0.67950
 Alpha  occ. eigenvalues --   -0.67230  -0.65951  -0.65075  -0.64852  -0.64131
 Alpha  occ. eigenvalues --   -0.63336  -0.63319  -0.62968  -0.62110  -0.61675
 Alpha  occ. eigenvalues --   -0.61581  -0.60499  -0.60152  -0.59981  -0.59160
 Alpha  occ. eigenvalues --   -0.58436  -0.58011  -0.57733  -0.57464  -0.56700
 Alpha  occ. eigenvalues --   -0.56300  -0.55503  -0.55391  -0.54849  -0.54635
 Alpha  occ. eigenvalues --   -0.54253  -0.54049  -0.53784  -0.53556  -0.53281
 Alpha  occ. eigenvalues --   -0.53128  -0.52828  -0.51940  -0.51739  -0.51293
 Alpha  occ. eigenvalues --   -0.51166  -0.50993  -0.50740  -0.50568  -0.50413
 Alpha  occ. eigenvalues --   -0.50193  -0.50114  -0.49896  -0.49579  -0.49366
 Alpha  occ. eigenvalues --   -0.49042  -0.48848  -0.48721  -0.48359  -0.48184
 Alpha  occ. eigenvalues --   -0.48068  -0.47841  -0.47229  -0.47042  -0.46946
 Alpha  occ. eigenvalues --   -0.46806  -0.46601  -0.46476  -0.46318  -0.46160
 Alpha  occ. eigenvalues --   -0.46027  -0.45789  -0.45666  -0.45529  -0.45300
 Alpha  occ. eigenvalues --   -0.45056  -0.44858  -0.44821  -0.44424  -0.44317
 Alpha  occ. eigenvalues --   -0.43781  -0.43734  -0.43445  -0.43297  -0.43050
 Alpha  occ. eigenvalues --   -0.42925  -0.42659  -0.42393  -0.42254  -0.41992
 Alpha  occ. eigenvalues --   -0.41718  -0.41610  -0.41469  -0.41419  -0.40921
 Alpha  occ. eigenvalues --   -0.40792  -0.40646  -0.40495  -0.40393  -0.40163
 Alpha  occ. eigenvalues --   -0.40036  -0.39526  -0.39500  -0.39005  -0.38989
 Alpha  occ. eigenvalues --   -0.38690  -0.38379  -0.38019  -0.37856  -0.37745
 Alpha  occ. eigenvalues --   -0.37734  -0.37151  -0.36947  -0.36920  -0.36539
 Alpha  occ. eigenvalues --   -0.36459  -0.36196  -0.36051  -0.35871  -0.35647
 Alpha  occ. eigenvalues --   -0.35371  -0.35225  -0.35127  -0.34111  -0.33291
 Alpha  occ. eigenvalues --   -0.32709  -0.32509  -0.31632  -0.30883  -0.30840
 Alpha  occ. eigenvalues --   -0.30502  -0.29915  -0.27853  -0.27076  -0.23975
 Alpha  occ. eigenvalues --   -0.19021
 Alpha virt. eigenvalues --   -0.05356  -0.02585   0.01670   0.03647   0.05105
 Alpha virt. eigenvalues --    0.06096   0.06822   0.06941   0.07267   0.07574
 Alpha virt. eigenvalues --    0.07782   0.08720   0.10752   0.11018   0.11448

 Mulliken charges:
               1
     1  Mg   0.824160
     2  C    0.012764
     3  C   -0.219283
     4  C   -0.184331
     5  C   -0.195805
     6  N   -0.630908
     7  C    0.329758
     8  C   -0.189304
     9  C   -0.140430
    10  C    0.349302
    11  C   -0.317567
    12  C   -0.154404
    13  C   -0.230489
    14  C    0.602132
    15  O   -0.445868
    16  O   -0.472714
    17  N   -0.687352
    18  C    0.332552
    19  C   -0.037642
    20  C    0.011838
    21  C    0.275007
    22  C   -0.358901
    23  C   -0.046559
    24  C   -0.257201
    25  N   -0.704001
    26  C    0.291224
    27  C    0.058644
    28  C   -0.007409
    29  C    0.279951
    30  C   -0.403152
    31  C   -0.204516
    32  C   -0.300679
    33  N   -0.720113
    34  C    0.252970
    35  C    0.043477
    36  C   -0.003025
    37  C    0.326678
    38  C   -0.392471
    39  C    0.384221
    40  O   -0.453325
    41  C   -0.314084
    42  C    0.614080
    43  O   -0.524528
    44  O   -0.420212
    45  C   -0.082437
    46  C   -0.004532
    47  C   -0.094063
    48  C    0.113742
    49  C   -0.349310
    50  C   -0.236885
    51  C   -0.165884
    52  C   -0.167368
    53  C   -0.026326
    54  C   -0.323656
    55  C   -0.186477
    56  C   -0.187476
    57  C   -0.183494
    58  C   -0.052412
    59  C   -0.308998
    60  C   -0.162470
    61  C   -0.184744
    62  C   -0.162688
    63  C   -0.062468
    64  C   -0.317071
    65  C   -0.291145
    66  H    0.085382
    67  H    0.090048
    68  H    0.095656
    69  H    0.141850
    70  H    0.122422
    71  H    0.120817
    72  H    0.097756
    73  H    0.122952
    74  H    0.107965
    75  H    0.111774
    76  H    0.082049
    77  H    0.118834
    78  H    0.130178
    79  H    0.129512
    80  H    0.112148
    81  H    0.092824
    82  H    0.101022
    83  H    0.090580
    84  H    0.127410
    85  H    0.099209
    86  H    0.115149
    87  H    0.110286
    88  H    0.092140
    89  H    0.074100
    90  H    0.112078
    91  H    0.117024
    92  H    0.138197
    93  H    0.151017
    94  H    0.133160
    95  H    0.155598
    96  H    0.136067
    97  H    0.152798
    98  H    0.131584
    99  H    0.108887
   100  H    0.110833
   101  H    0.090246
   102  H    0.112496
   103  H    0.128880
   104  H    0.112517
   105  H    0.089543
   106  H    0.100700
   107  H    0.088027
   108  H    0.105368
   109  H    0.071649
   110  H    0.098664
   111  H    0.035208
   112  H    0.106784
   113  H    0.096954
   114  H    0.099609
   115  H    0.092556
   116  H    0.086492
   117  H    0.106494
   118  H    0.071488
   119  H    0.095502
   120  H    0.098398
   121  H    0.093942
   122  H    0.081243
   123  H    0.091172
   124  H    0.113239
   125  H    0.090053
   126  H    0.088195
   127  H    0.109692
   128  H    0.092771
   129  H    0.065440
   130  H    0.083911
   131  H    0.075305
   132  H    0.093257
   133  H    0.086178
   134  H    0.114268
   135  H    0.075714
   136  H    0.107501
   137  H    0.094914
 Sum of Mulliken charges =  -0.00000

 Dipole moment (field-independent basis, Debye):
    X=              4.3455    Y=              2.2744    Z=              0.5474  Tot=              4.9352
 Quadrupole moment (field-independent basis, Debye-Ang):
   XX=           -364.5131   YY=           -394.5649   ZZ=           -395.2493
   XY=             -9.1349   XZ=              6.4239   YZ=             -4.8589

 Normal termination of Gaussian 16 at Thu Jun 27 03:18:26 2019.
