 Gaussian 09, Revision D.01,
 Gaussian 09:  ES64L-G09RevD.01 24-Apr-2013

 -------------------------------------
 # td=(NStates=1) CAM-B3LYP/6-31G(d,p)
 -------------------------------------

 --
 TD
 --
 Symbolic Z-matrix:
 Charge =  0 Multiplicity = 1

                         Standard orientation:
 ---------------------------------------------------------------------
 Center     Atomic      Atomic             Coordinates (Angstroms)
 Number     Number       Type             X           Y           Z
 ---------------------------------------------------------------------
      1         12           0       -7.172163    0.555579    0.141355
      2          6           0       -4.851913   -1.908883    0.554705
      3          6           0       -4.749323    2.835116    1.117669
      4          6           0       -9.510674    3.027638   -0.344173
      5          6           0       -9.591127   -1.739634   -0.748154
      6          7           0       -5.183677    0.483074    0.703490
      7          6           0       -4.472260   -0.654851    0.815221
      8          6           0       -3.012797   -0.419605    1.227686
      9          6           0       -3.028124    1.115782    1.706553
     10          6           0       -4.450053    1.540746    1.084730
     11          6           0       -2.989958    1.239973    3.224146
     12          6           0       -1.967395   -0.588216    0.098198
     13          6           0       -0.440522   -0.344682    0.543781
     14          6           0        0.554528   -0.542027   -0.558523
     15          8           0        0.317417   -1.057486   -1.678178
     16          8           0        1.822735   -0.271574   -0.151122
     17          7           0       -7.138566    2.592959    0.313283
     18          6           0       -6.136292    3.427826    0.746844
     19          6           0       -6.450648    4.741225    0.739662
     20          6           0       -7.826484    4.757934    0.351984
     21          6           0       -8.218464    3.453293    0.073055
     22          6           0       -5.573872    5.903003    1.100526
     23          6           0       -8.658224    5.989758    0.071413
     24          6           0       -8.559988    7.273340    0.608886
     25          7           0       -9.158352    0.603476   -0.496206
     26          6           0      -10.052733    1.698147   -0.560361
     27          6           0      -11.332779    1.388897   -1.132031
     28          6           0      -11.303704    0.041554   -1.200271
     29          6           0       -9.901478   -0.392851   -0.843469
     30          6           0      -12.400682    2.398976   -1.520600
     31          6           0      -12.389383   -0.861940   -1.870706
     32          6           0      -12.268049   -1.082338   -3.408931
     33          7           0       -7.262594   -1.443308   -0.052454
     34          6           0       -8.346338   -2.296537   -0.391595
     35          6           0       -7.804395   -3.598868   -0.378301
     36          6           0       -6.450188   -3.597841   -0.096483
     37          6           0       -6.193331   -2.212649    0.205920
     38          6           0       -8.466639   -4.918050   -0.794944
     39          6           0       -5.180497   -4.347754    0.202507
     40          8           0       -4.975159   -5.547423    0.081595
     41          6           0       -4.128505   -3.272249    0.498861
     42          6           0       -3.580754   -3.631176    1.843766
     43          8           0       -3.917139   -3.107054    2.906339
     44          8           0       -2.629545   -4.619922    1.634133
     45          6           0       -1.978236   -5.168471    2.776230
     46          6           0        2.756905   -0.649413   -1.187998
     47          6           0        4.122198   -0.451278   -0.445756
     48          6           0        5.194820    0.279233   -0.840513
     49          6           0        5.000158    1.043134   -2.134279
     50          6           0        6.465993    0.402390   -0.232017
     51          6           0        7.688827   -0.140912   -1.022209
     52          6           0        8.970151    0.022499   -0.158672
     53          6           0       10.287031   -0.449156   -0.887942
     54          6           0       10.174010   -1.861223   -1.257925
     55          6           0       11.421176   -0.193100    0.107045
     56          6           0       12.835385   -0.559037   -0.557886
     57          6           0       14.032097   -0.000498    0.280887
     58          6           0       15.330577   -0.188055   -0.437838
     59          6           0       15.471414   -1.557941   -0.829401
     60          6           0       16.466022    0.466552    0.407187
     61          6           0       17.852131    0.458518   -0.263815
     62          6           0       18.834943    1.260132    0.705398
     63          6           0       20.267937    1.269855    0.172716
     64          6           0       20.557910    2.003374   -1.175747
     65          6           0       21.252551    1.881529    1.240803
     66          1           0       -4.003839    3.539469    1.394664
     67          1           0      -10.338257    3.736758   -0.051381
     68          1           0      -10.438245   -2.536188   -1.098637
     69          1           0       -2.848795   -0.979874    2.270113
     70          1           0       -2.170347    1.693490    1.175967
     71          1           0       -1.933961    1.082602    3.566317
     72          1           0       -3.533073    2.125596    3.456653
     73          1           0       -3.632555    0.445145    3.806336
     74          1           0       -1.855919   -1.684035   -0.307251
     75          1           0       -2.325840    0.193629   -0.492683
     76          1           0       -0.489976    0.607721    1.018326
     77          1           0       -0.207181   -1.020812    1.352623
     78          1           0       -6.036113    6.935847    0.846688
     79          1           0       -5.558433    5.637661    2.366888
     80          1           0       -4.540435    5.712565    0.595067
     81          1           0       -9.276632    5.799612   -0.774661
     82          1           0       -9.004111    8.235379    0.207439
     83          1           0       -7.937155    7.351186    1.567644
     84          1           0      -11.824541    3.106523   -2.141227
     85          1           0      -13.412926    2.022138   -2.002969
     86          1           0      -12.636258    3.012803   -0.635115
     87          1           0      -12.598937   -1.852725   -1.313434
     88          1           0      -13.341991   -0.470542   -1.778307
     89          1           0      -13.119314   -1.610080   -3.734813
     90          1           0      -12.338920   -0.104573   -3.937474
     91          1           0      -11.234577   -1.529775   -3.453886
     92          1           0       -8.736897   -4.993523   -1.872078
     93          1           0       -7.901546   -5.821857   -0.443797
     94          1           0       -9.349556   -4.919291    0.114515
     95          1           0       -3.527299   -3.568847   -0.339303
     96          1           0       -1.247287   -4.394428    3.513542
     97          1           0       -2.851324   -5.705283    3.425639
     98          1           0       -1.501668   -6.069890    2.616569
     99          1           0        2.721435   -1.641003   -1.661027
    100          1           0        2.593408    0.024558   -1.933855
    101          1           0        4.336730   -1.057616    0.373910
    102          1           0        3.944855    1.120642   -2.365800
    103          1           0        5.434494    2.121232   -2.194808
    104          1           0        5.575380    0.392558   -2.937270
    105          1           0        6.599303    1.471363    0.056826
    106          1           0        6.373385   -0.108926    0.742960
    107          1           0        7.598935   -1.206316   -1.322601
    108          1           0        7.940989    0.220187   -2.135411
    109          1           0        8.928787    0.948701    0.304231
    110          1           0        8.744045   -0.671144    0.760571
    111          1           0       10.644917    0.216725   -1.862730
    112          1           0        9.458295   -2.125608   -2.310303
    113          1           0       11.215531   -2.160301   -1.618813
    114          1           0        9.942814   -2.562798   -0.584379
    115          1           0       11.452970    0.728539    0.363076
    116          1           0       11.481190   -0.763165    1.059583
    117          1           0       12.979610   -1.507857   -1.122935
    118          1           0       12.713800    0.081720   -1.415390
    119          1           0       13.867606    1.008919    0.455876
    120          1           0       14.224375   -0.342015    1.259888
    121          1           0       15.263372    0.237250   -1.525946
    122          1           0       15.839277   -2.158193    0.051655
    123          1           0       14.863742   -2.246194   -1.480180
    124          1           0       16.317706   -1.382787   -1.448778
    125          1           0       16.259312    1.503778    0.688801
    126          1           0       16.487322   -0.037531    1.436460
    127          1           0       18.143164   -0.487773   -0.496830
    128          1           0       17.842993    1.030658   -1.338152
    129          1           0       18.340147    2.213426    0.973854
    130          1           0       18.909220    0.813050    1.766850
    131          1           0       20.554353    0.172096    0.078968
    132          1           0       20.172552    2.983386   -0.994656
    133          1           0       21.690687    1.974906   -1.523636
    134          1           0       20.177832    1.615301   -2.129151
    135          1           0       21.177269    1.615365    2.438836
    136          1           0       22.364900    1.753916    0.912644
    137          1           0       21.273286    2.994733    1.089499
 ---------------------------------------------------------------------

 SCF Done:  E(RCAM-B3LYP) =  -2932.63355915     A.U. after   15 cycles

 Excitation energies and oscillator strengths:

 Excited State   1:      Singlet-A      1.9846 eV  624.75 nm  f=0.3393  <S**2>=0.000
     240 -> 243       -0.20909
     241 -> 242        0.66886
 This state for optimization and/or second-order correction.
 Total Energy, E(TD-HF/TD-KS) =  -2932.56062811
 Copying the excited state density for this state as the 1-particle RhoCI density.

 The electronic state is 1-A.
 Alpha  occ. eigenvalues --  -46.84090 -19.27173 -19.26727 -19.21951 -19.21230
 Alpha  occ. eigenvalues --  -19.20850 -14.41147 -14.40614 -14.39326 -14.38906
 Alpha  occ. eigenvalues --  -10.40302 -10.39620 -10.36311 -10.33274 -10.31220
 Alpha  occ. eigenvalues --  -10.30443 -10.29974 -10.29961 -10.29554 -10.29515
 Alpha  occ. eigenvalues --  -10.29402 -10.29154 -10.29047 -10.28942 -10.28917
 Alpha  occ. eigenvalues --  -10.28913 -10.28844 -10.28744 -10.28083 -10.27929
 Alpha  occ. eigenvalues --  -10.27874 -10.27751 -10.27633 -10.27615 -10.27471
 Alpha  occ. eigenvalues --  -10.27427 -10.27381 -10.27296 -10.27222 -10.26970
 Alpha  occ. eigenvalues --  -10.26704 -10.26703 -10.26524 -10.26516 -10.26327
 Alpha  occ. eigenvalues --  -10.26182 -10.26108 -10.25961 -10.25947 -10.25922
 Alpha  occ. eigenvalues --  -10.25840 -10.25752 -10.25714 -10.25618 -10.25538
 Alpha  occ. eigenvalues --  -10.25486 -10.25455 -10.25449 -10.25438 -10.25167
 Alpha  occ. eigenvalues --  -10.24802 -10.24623 -10.23829 -10.23641 -10.23142
 Alpha  occ. eigenvalues --   -3.13193  -1.87899  -1.87457  -1.87354  -1.17828
 Alpha  occ. eigenvalues --   -1.17201  -1.11518  -1.09514  -1.07421  -1.05241
 Alpha  occ. eigenvalues --   -1.04366  -1.03273  -1.02502  -0.93023  -0.91508
 Alpha  occ. eigenvalues --   -0.91115  -0.89583  -0.89320  -0.89058  -0.88232
 Alpha  occ. eigenvalues --   -0.87962  -0.87535  -0.87177  -0.86544  -0.85564
 Alpha  occ. eigenvalues --   -0.84881  -0.84041  -0.83849  -0.82762  -0.82029
 Alpha  occ. eigenvalues --   -0.81307  -0.80925  -0.80073  -0.79643  -0.78076
 Alpha  occ. eigenvalues --   -0.77435  -0.77044  -0.76377  -0.76311  -0.75629
 Alpha  occ. eigenvalues --   -0.74938  -0.74659  -0.73861  -0.72950  -0.72381
 Alpha  occ. eigenvalues --   -0.70829  -0.70235  -0.69374  -0.69302  -0.68000
 Alpha  occ. eigenvalues --   -0.66874  -0.66564  -0.65567  -0.64854  -0.64767
 Alpha  occ. eigenvalues --   -0.63735  -0.63508  -0.63237  -0.63035  -0.62343
 Alpha  occ. eigenvalues --   -0.61605  -0.60740  -0.59805  -0.59586  -0.58647
 Alpha  occ. eigenvalues --   -0.58500  -0.57931  -0.57571  -0.57413  -0.56649
 Alpha  occ. eigenvalues --   -0.56036  -0.55132  -0.55012  -0.54776  -0.54724
 Alpha  occ. eigenvalues --   -0.54019  -0.53910  -0.53686  -0.53376  -0.52980
 Alpha  occ. eigenvalues --   -0.52844  -0.52604  -0.52202  -0.51817  -0.51467
 Alpha  occ. eigenvalues --   -0.51063  -0.50985  -0.50877  -0.50720  -0.50380
 Alpha  occ. eigenvalues --   -0.50091  -0.49844  -0.49630  -0.49527  -0.49318
 Alpha  occ. eigenvalues --   -0.49154  -0.48830  -0.48769  -0.48419  -0.48146
 Alpha  occ. eigenvalues --   -0.47908  -0.47860  -0.47300  -0.47060  -0.46990
 Alpha  occ. eigenvalues --   -0.46879  -0.46825  -0.46544  -0.46201  -0.45843
 Alpha  occ. eigenvalues --   -0.45687  -0.45481  -0.45337  -0.45247  -0.44938
 Alpha  occ. eigenvalues --   -0.44498  -0.44477  -0.44079  -0.44038  -0.43818
 Alpha  occ. eigenvalues --   -0.43521  -0.43399  -0.43155  -0.43095  -0.42972
 Alpha  occ. eigenvalues --   -0.42729  -0.42429  -0.42371  -0.42317  -0.41984
 Alpha  occ. eigenvalues --   -0.41803  -0.41645  -0.41601  -0.41208  -0.40859
 Alpha  occ. eigenvalues --   -0.40721  -0.40614  -0.40500  -0.40242  -0.40084
 Alpha  occ. eigenvalues --   -0.39955  -0.39641  -0.39492  -0.39478  -0.38861
 Alpha  occ. eigenvalues --   -0.38592  -0.38180  -0.37599  -0.37577  -0.37367
 Alpha  occ. eigenvalues --   -0.37340  -0.36980  -0.36759  -0.36463  -0.36315
 Alpha  occ. eigenvalues --   -0.36107  -0.36037  -0.35836  -0.35780  -0.35457
 Alpha  occ. eigenvalues --   -0.35258  -0.35081  -0.34372  -0.34335  -0.33864
 Alpha  occ. eigenvalues --   -0.33041  -0.32290  -0.32043  -0.31655  -0.30779
 Alpha  occ. eigenvalues --   -0.29872  -0.29581  -0.28704  -0.26420  -0.23301
 Alpha  occ. eigenvalues --   -0.22060
 Alpha virt. eigenvalues --   -0.07784  -0.02837   0.01722   0.04033   0.05011
 Alpha virt. eigenvalues --    0.05291   0.06242   0.06639   0.07155   0.07212
 Alpha virt. eigenvalues --    0.08540   0.10400   0.11233   0.11421   0.11473

 Mulliken charges:
               1
     1  Mg   0.810390
     2  C    0.081358
     3  C   -0.211908
     4  C   -0.183100
     5  C   -0.180941
     6  N   -0.659449
     7  C    0.324087
     8  C   -0.189358
     9  C   -0.152692
    10  C    0.349841
    11  C   -0.306048
    12  C   -0.152860
    13  C   -0.284390
    14  C    0.622157
    15  O   -0.495717
    16  O   -0.465503
    17  N   -0.698576
    18  C    0.282415
    19  C    0.038211
    20  C   -0.034433
    21  C    0.295009
    22  C   -0.344916
    23  C   -0.072130
    24  C   -0.270945
    25  N   -0.634763
    26  C    0.200911
    27  C    0.087161
    28  C   -0.023726
    29  C    0.332571
    30  C   -0.371929
    31  C   -0.254618
    32  C   -0.297349
    33  N   -0.753024
    34  C    0.326003
    35  C   -0.069760
    36  C    0.043657
    37  C    0.290307
    38  C   -0.358906
    39  C    0.363895
    40  O   -0.454779
    41  C   -0.300344
    42  C    0.659008
    43  O   -0.471773
    44  O   -0.455784
    45  C   -0.069846
    46  C    0.017631
    47  C   -0.152941
    48  C    0.135585
    49  C   -0.348432
    50  C   -0.231889
    51  C   -0.183486
    52  C   -0.167389
    53  C   -0.055292
    54  C   -0.281310
    55  C   -0.161454
    56  C   -0.224015
    57  C   -0.158103
    58  C   -0.067613
    59  C   -0.298956
    60  C   -0.182741
    61  C   -0.174419
    62  C   -0.173137
    63  C   -0.044615
    64  C   -0.315840
    65  C   -0.310121
    66  H    0.079742
    67  H    0.104173
    68  H    0.107061
    69  H    0.116008
    70  H    0.091165
    71  H    0.108916
    72  H    0.117911
    73  H    0.112742
    74  H    0.116597
    75  H    0.121738
    76  H    0.131742
    77  H    0.146989
    78  H    0.123008
    79  H    0.095174
    80  H    0.114996
    81  H    0.097133
    82  H    0.115163
    83  H    0.102246
    84  H    0.134205
    85  H    0.117792
    86  H    0.129095
    87  H    0.091329
    88  H    0.106063
    89  H    0.114085
    90  H    0.106291
    91  H    0.109689
    92  H    0.134208
    93  H    0.149057
    94  H    0.087684
    95  H    0.185139
    96  H    0.096720
    97  H    0.101723
    98  H    0.141297
    99  H    0.144191
   100  H    0.129144
   101  H    0.075300
   102  H    0.107052
   103  H    0.092373
   104  H    0.104058
   105  H    0.108601
   106  H    0.097622
   107  H    0.105322
   108  H    0.078974
   109  H    0.097793
   110  H    0.078103
   111  H    0.069571
   112  H    0.055468
   113  H    0.090271
   114  H    0.124752
   115  H    0.103632
   116  H    0.089458
   117  H    0.098225
   118  H    0.091411
   119  H    0.089464
   120  H    0.085509
   121  H    0.062432
   122  H    0.081097
   123  H    0.113346
   124  H    0.100298
   125  H    0.099609
   126  H    0.084893
   127  H    0.112569
   128  H    0.073978
   129  H    0.090457
   130  H    0.085460
   131  H    0.086956
   132  H    0.113379
   133  H    0.087509
   134  H    0.105603
   135  H    0.084650
   136  H    0.087763
   137  H    0.097953
 Sum of Mulliken charges =   0.00000

 Dipole moment (field-independent basis, Debye):
    X=              0.4113    Y=              2.9508    Z=              0.0769  Tot=              2.9804
 Quadrupole moment (field-independent basis, Debye-Ang):
   XX=           -315.4721   YY=           -394.3366   ZZ=           -398.5219
   XY=            -15.7079   XZ=             14.8546   YZ=             -2.9310

 Normal termination of Gaussian 09 at Wed Jul  3 19:31:55 2019.
