 Gaussian 09, Revision D.01,
 Gaussian 09:  ES64L-G09RevD.01 24-Apr-2013

 -------------------------------------
 # td=(NStates=1) CAM-B3LYP/6-31G(d,p)
 -------------------------------------

 --
 TD
 --
 Symbolic Z-matrix:
 Charge =  0 Multiplicity = 1

                         Standard orientation:
 ---------------------------------------------------------------------
 Center     Atomic      Atomic             Coordinates (Angstroms)
 Number     Number       Type             X           Y           Z
 ---------------------------------------------------------------------
      1         12           0       -7.211603    0.611055    0.171843
      2          6           0       -4.865159   -1.899385    0.511183
      3          6           0       -4.848517    2.783775    1.090045
      4          6           0       -9.521611    3.060440   -0.287590
      5          6           0       -9.476441   -1.783926   -0.972776
      6          7           0       -5.150905    0.459780    0.710575
      7          6           0       -4.366469   -0.767517    0.868230
      8          6           0       -2.948317   -0.338945    1.264887
      9          6           0       -3.049419    1.169193    1.638011
     10          6           0       -4.467862    1.482092    1.088379
     11          6           0       -2.931097    1.302339    3.170229
     12          6           0       -1.915008   -0.595436    0.146181
     13          6           0       -0.392846   -0.237269    0.608636
     14          6           0        0.635722   -0.588536   -0.513306
     15          8           0        0.295836   -0.997765   -1.563812
     16          8           0        1.918512   -0.510635   -0.107190
     17          7           0       -7.199331    2.601637    0.302446
     18          6           0       -6.065160    3.331002    0.730489
     19          6           0       -6.514002    4.720104    0.788177
     20          6           0       -7.779582    4.855473    0.390699
     21          6           0       -8.273918    3.525771    0.073042
     22          6           0       -5.610832    5.875874    1.128075
     23          6           0       -8.822332    5.998168    0.319731
     24          6           0       -8.462566    7.228938    0.785393
     25          7           0       -9.104519    0.666818   -0.523042
     26          6           0       -9.940091    1.746445   -0.663023
     27          6           0      -11.202659    1.364193   -1.144671
     28          6           0      -11.186502    0.054211   -1.355029
     29          6           0       -9.904650   -0.482480   -0.959401
     30          6           0      -12.295963    2.319584   -1.531237
     31          6           0      -12.238553   -0.807087   -1.905376
     32          6           0      -12.156652   -1.128769   -3.384168
     33          7           0       -7.233854   -1.386576   -0.218134
     34          6           0       -8.243012   -2.210466   -0.603200
     35          6           0       -7.833691   -3.648495   -0.509111
     36          6           0       -6.509437   -3.537105   -0.094621
     37          6           0       -6.150769   -2.140882    0.113241
     38          6           0       -8.638654   -4.862274   -0.955766
     39          6           0       -5.398483   -4.329292    0.347634
     40          8           0       -5.095786   -5.533112    0.392380
     41          6           0       -4.145797   -3.305772    0.629434
     42          6           0       -3.516036   -3.663286    1.999949
     43          8           0       -3.819130   -3.020114    2.981382
     44          8           0       -2.673274   -4.626535    1.919516
     45          6           0       -2.185210   -5.161302    3.125692
     46          6           0        2.955173   -0.823206   -1.147033
     47          6           0        4.306701   -0.462556   -0.504292
     48          6           0        5.152615    0.409747   -1.007928
     49          6           0        4.945959    1.279877   -2.230905
     50          6           0        6.505254    0.550008   -0.268702
     51          6           0        7.642412   -0.213182   -1.023355
     52          6           0        8.889835   -0.191185   -0.200307
     53          6           0       10.182017   -0.680109   -0.882777
     54          6           0       10.156831   -2.132831   -1.296855
     55          6           0       11.419836   -0.420719   -0.087461
     56          6           0       12.751574   -0.500517   -0.896382
     57          6           0       13.980620   -0.089817   -0.007097
     58          6           0       15.285663   -0.183166   -0.621713
     59          6           0       15.680405   -1.615187   -0.987470
     60          6           0       16.395684    0.403461    0.356067
     61          6           0       17.876059    0.549335   -0.293531
     62          6           0       18.715377    1.382064    0.766152
     63          6           0       20.241030    1.378484    0.350093
     64          6           0       20.386874    2.268896   -0.920432
     65          6           0       21.210188    1.811666    1.474131
     66          1           0       -4.105049    3.410106    1.420624
     67          1           0      -10.288296    3.937968   -0.824990
     68          1           0      -10.289501   -2.402885   -1.228681
     69          1           0       -2.637223   -0.863564    2.120884
     70          1           0       -2.167456    1.611779    1.008173
     71          1           0       -1.909728    0.743627    3.495468
     72          1           0       -3.064422    2.416572    3.473275
     73          1           0       -3.794691    0.751771    3.425058
     74          1           0       -1.818634   -1.764078   -0.238258
     75          1           0       -2.197232    0.071388   -0.641826
     76          1           0       -0.218698    0.906027    0.784027
     77          1           0       -0.129901   -0.891347    1.510833
     78          1           0       -6.024365    6.673028    0.430156
     79          1           0       -5.513814    6.038977    2.203553
     80          1           0       -4.551530    5.675088    0.858715
     81          1           0       -9.796281    5.864874   -0.538177
     82          1           0       -9.109621    7.953412    0.593962
     83          1           0       -7.649424    7.326526    1.461953
     84          1           0      -11.930075    3.173571   -2.224679
     85          1           0      -13.206123    1.818210   -1.592693
     86          1           0      -12.544413    2.946114   -0.635463
     87          1           0      -12.060286   -1.681955   -1.463217
     88          1           0      -13.105770   -0.230868   -1.851601
     89          1           0      -12.695561   -2.176293   -3.514276
     90          1           0      -12.480394   -0.282951   -4.278554
     91          1           0      -11.106219   -1.277921   -3.446211
     92          1           0       -8.740867   -4.965681   -2.032617
     93          1           0       -8.075414   -5.845245   -0.684021
     94          1           0       -9.640296   -4.696412   -0.450771
     95          1           0       -3.276515   -3.351597   -0.177352
     96          1           0       -1.800631   -4.396014    4.010021
     97          1           0       -3.123102   -5.703606    3.487881
     98          1           0       -1.671947   -5.983822    2.970589
     99          1           0        3.049866   -1.823638   -1.442458
    100          1           0        2.816138   -0.343685   -2.020081
    101          1           0        4.580609   -1.320792    0.297129
    102          1           0        3.828145    0.962308   -2.929647
    103          1           0        5.040986    2.444197   -2.026611
    104          1           0        5.610383    1.116673   -2.908864
    105          1           0        6.811751    1.661764   -0.051515
    106          1           0        6.302119    0.138095    0.742925
    107          1           0        7.378655   -1.250523   -1.265651
    108          1           0        7.778031    0.213848   -1.845627
    109          1           0        9.154288    0.861628    0.157356
    110          1           0        8.872833   -0.791314    0.755552
    111          1           0       10.369553   -0.389383   -1.773755
    112          1           0        9.254945   -2.577497   -1.752980
    113          1           0       10.947920   -2.403378   -2.183136
    114          1           0       10.274886   -2.752770   -0.297381
    115          1           0       11.211857    0.722857    0.196395
    116          1           0       11.483808   -1.046932    0.969084
    117          1           0       12.802350   -1.629734   -0.995228
    118          1           0       12.714887    0.176075   -1.831686
    119          1           0       13.835219    0.884500    0.525625
    120          1           0       13.834617   -0.684916    0.905732
    121          1           0       15.357792    0.425406   -1.555925
    122          1           0       15.783543   -2.296842   -0.150902
    123          1           0       14.893999   -1.768679   -1.698736
    124          1           0       16.623542   -1.619739   -1.426663
    125          1           0       15.996675    1.438801    0.490935
    126          1           0       16.319272    0.038504    1.336314
    127          1           0       18.571011   -0.309563   -0.551464
    128          1           0       17.857608    1.223193   -1.259110
    129          1           0       18.392264    2.379253    0.873602
    130          1           0       18.665661    0.842557    1.839555
    131          1           0       20.615401    0.413289    0.091016
    132          1           0       20.053371    3.435485   -0.606791
    133          1           0       21.320544    2.344771   -1.567734
    134          1           0       19.754938    1.936965   -1.835717
    135          1           0       21.317826    1.040752    2.322672
    136          1           0       22.136475    2.173934    1.113819
    137          1           0       20.708765    2.808105    1.935353
 ---------------------------------------------------------------------

 SCF Done:  E(RCAM-B3LYP) =  -2932.59402222     A.U. after   17 cycles

 Excitation energies and oscillator strengths:

 Excited State   1:      Singlet-A      2.1826 eV  568.07 nm  f=0.2548  <S**2>=0.000
     240 -> 243       -0.23253
     241 -> 242        0.65153
 This state for optimization and/or second-order correction.
 Total Energy, E(TD-HF/TD-KS) =  -2932.51381451
 Copying the excited state density for this state as the 1-particle RhoCI density.

 The electronic state is 1-A.
 Alpha  occ. eigenvalues --  -46.82995 -19.27396 -19.25863 -19.20345 -19.19421
 Alpha  occ. eigenvalues --  -19.19333 -14.41306 -14.39727 -14.38825 -14.38813
 Alpha  occ. eigenvalues --  -10.38471 -10.38438 -10.34574 -10.31799 -10.30690
 Alpha  occ. eigenvalues --  -10.30517 -10.30364 -10.30252 -10.29813 -10.29516
 Alpha  occ. eigenvalues --  -10.29118 -10.28969 -10.28889 -10.28563 -10.28469
 Alpha  occ. eigenvalues --  -10.28380 -10.28293 -10.28111 -10.27977 -10.27934
 Alpha  occ. eigenvalues --  -10.27918 -10.27875 -10.27588 -10.27327 -10.27268
 Alpha  occ. eigenvalues --  -10.27246 -10.27231 -10.27091 -10.27054 -10.26996
 Alpha  occ. eigenvalues --  -10.26995 -10.26869 -10.26801 -10.26686 -10.26548
 Alpha  occ. eigenvalues --  -10.26391 -10.26328 -10.26130 -10.26090 -10.25973
 Alpha  occ. eigenvalues --  -10.25923 -10.25918 -10.25677 -10.25511 -10.25254
 Alpha  occ. eigenvalues --  -10.25213 -10.25195 -10.25097 -10.24852 -10.24611
 Alpha  occ. eigenvalues --  -10.24575 -10.24417 -10.24372 -10.24058 -10.22634
 Alpha  occ. eigenvalues --   -3.12213  -1.86906  -1.86444  -1.86409  -1.20755
 Alpha  occ. eigenvalues --   -1.17824  -1.09303  -1.09181  -1.08598  -1.04244
 Alpha  occ. eigenvalues --   -1.03205  -1.01769  -1.00763  -0.92364  -0.91895
 Alpha  occ. eigenvalues --   -0.90630  -0.90130  -0.89613  -0.89394  -0.88571
 Alpha  occ. eigenvalues --   -0.87856  -0.87765  -0.87756  -0.86675  -0.85799
 Alpha  occ. eigenvalues --   -0.84692  -0.84035  -0.83698  -0.83201  -0.82377
 Alpha  occ. eigenvalues --   -0.81869  -0.81379  -0.80880  -0.79749  -0.78338
 Alpha  occ. eigenvalues --   -0.77629  -0.77056  -0.76408  -0.75993  -0.75345
 Alpha  occ. eigenvalues --   -0.74872  -0.74306  -0.73663  -0.72858  -0.72491
 Alpha  occ. eigenvalues --   -0.71377  -0.70044  -0.69274  -0.68887  -0.68317
 Alpha  occ. eigenvalues --   -0.67005  -0.66609  -0.65903  -0.65209  -0.64827
 Alpha  occ. eigenvalues --   -0.64064  -0.63213  -0.63017  -0.63005  -0.62390
 Alpha  occ. eigenvalues --   -0.62138  -0.60087  -0.59963  -0.59524  -0.59224
 Alpha  occ. eigenvalues --   -0.58543  -0.57735  -0.57145  -0.56706  -0.56167
 Alpha  occ. eigenvalues --   -0.55885  -0.55562  -0.55191  -0.54805  -0.54411
 Alpha  occ. eigenvalues --   -0.54276  -0.53825  -0.53636  -0.53456  -0.53021
 Alpha  occ. eigenvalues --   -0.52724  -0.52445  -0.52302  -0.52209  -0.51538
 Alpha  occ. eigenvalues --   -0.51372  -0.51160  -0.50854  -0.50703  -0.50468
 Alpha  occ. eigenvalues --   -0.50407  -0.50203  -0.49879  -0.49715  -0.49191
 Alpha  occ. eigenvalues --   -0.48899  -0.48857  -0.48283  -0.48172  -0.48062
 Alpha  occ. eigenvalues --   -0.47806  -0.47733  -0.47450  -0.47337  -0.47110
 Alpha  occ. eigenvalues --   -0.46749  -0.46671  -0.46257  -0.46126  -0.45917
 Alpha  occ. eigenvalues --   -0.45699  -0.45353  -0.45193  -0.44968  -0.44434
 Alpha  occ. eigenvalues --   -0.44369  -0.44315  -0.43774  -0.43608  -0.43537
 Alpha  occ. eigenvalues --   -0.43334  -0.43187  -0.43140  -0.42846  -0.42799
 Alpha  occ. eigenvalues --   -0.42671  -0.42563  -0.42430  -0.42337  -0.42145
 Alpha  occ. eigenvalues --   -0.41906  -0.41509  -0.41389  -0.40964  -0.40813
 Alpha  occ. eigenvalues --   -0.40774  -0.40536  -0.40320  -0.40193  -0.40138
 Alpha  occ. eigenvalues --   -0.39990  -0.39622  -0.39308  -0.39284  -0.39128
 Alpha  occ. eigenvalues --   -0.38873  -0.38670  -0.38336  -0.38183  -0.37558
 Alpha  occ. eigenvalues --   -0.37465  -0.37357  -0.37201  -0.36875  -0.36659
 Alpha  occ. eigenvalues --   -0.36253  -0.36213  -0.35851  -0.35810  -0.35656
 Alpha  occ. eigenvalues --   -0.35640  -0.35367  -0.34853  -0.33235  -0.32968
 Alpha  occ. eigenvalues --   -0.32824  -0.32719  -0.32095  -0.31598  -0.30629
 Alpha  occ. eigenvalues --   -0.29610  -0.28607  -0.28358  -0.27746  -0.23734
 Alpha  occ. eigenvalues --   -0.21342
 Alpha virt. eigenvalues --   -0.06036  -0.02903   0.01407   0.03789   0.06003
 Alpha virt. eigenvalues --    0.06104   0.07024   0.07504   0.07573   0.08182
 Alpha virt. eigenvalues --    0.08314   0.09811   0.10519   0.10898   0.11241

 Mulliken charges:
               1
     1  Mg   0.807296
     2  C    0.083708
     3  C   -0.195487
     4  C   -0.184505
     5  C   -0.145226
     6  N   -0.653364
     7  C    0.267602
     8  C   -0.147515
     9  C   -0.157364
    10  C    0.396322
    11  C   -0.290142
    12  C   -0.160587
    13  C   -0.275814
    14  C    0.593985
    15  O   -0.444724
    16  O   -0.484937
    17  N   -0.737123
    18  C    0.368170
    19  C   -0.031130
    20  C    0.054074
    21  C    0.285427
    22  C   -0.385213
    23  C   -0.063325
    24  C   -0.231692
    25  N   -0.698230
    26  C    0.304443
    27  C    0.032762
    28  C    0.029265
    29  C    0.242330
    30  C   -0.378949
    31  C   -0.208565
    32  C   -0.297935
    33  N   -0.726115
    34  C    0.267400
    35  C    0.030278
    36  C   -0.001422
    37  C    0.296563
    38  C   -0.366191
    39  C    0.349153
    40  O   -0.489947
    41  C   -0.305519
    42  C    0.615449
    43  O   -0.489447
    44  O   -0.398823
    45  C   -0.089753
    46  C    0.022289
    47  C   -0.145411
    48  C    0.128165
    49  C   -0.337522
    50  C   -0.241506
    51  C   -0.149834
    52  C   -0.171112
    53  C   -0.035345
    54  C   -0.319475
    55  C   -0.165477
    56  C   -0.193420
    57  C   -0.165370
    58  C   -0.066635
    59  C   -0.298936
    60  C   -0.186207
    61  C   -0.183655
    62  C   -0.159637
    63  C   -0.056718
    64  C   -0.302405
    65  C   -0.302902
    66  H    0.066643
    67  H    0.053172
    68  H    0.083954
    69  H    0.121196
    70  H    0.091565
    71  H    0.104456
    72  H    0.100477
    73  H    0.139779
    74  H    0.102292
    75  H    0.120837
    76  H    0.122073
    77  H    0.129311
    78  H    0.127593
    79  H    0.128077
    80  H    0.112344
    81  H    0.086871
    82  H    0.101868
    83  H    0.124573
    84  H    0.121935
    85  H    0.116836
    86  H    0.114881
    87  H    0.110258
    88  H    0.106066
    89  H    0.089505
    90  H    0.085407
    91  H    0.115706
    92  H    0.139047
    93  H    0.140546
    94  H    0.118333
    95  H    0.138731
    96  H    0.126993
    97  H    0.122012
    98  H    0.133313
    99  H    0.128099
   100  H    0.118664
   101  H    0.089167
   102  H    0.063342
   103  H    0.110023
   104  H    0.143901
   105  H    0.088185
   106  H    0.110175
   107  H    0.102062
   108  H    0.108123
   109  H    0.080949
   110  H    0.088460
   111  H    0.094725
   112  H    0.097811
   113  H    0.083586
   114  H    0.077218
   115  H    0.062504
   116  H    0.066258
   117  H    0.116880
   118  H    0.089687
   119  H    0.080441
   120  H    0.087172
   121  H    0.078393
   122  H    0.097239
   123  H    0.101401
   124  H    0.104733
   125  H    0.085914
   126  H    0.100092
   127  H    0.097290
   128  H    0.089697
   129  H    0.105020
   130  H    0.069803
   131  H    0.094545
   132  H    0.068709
   133  H    0.095923
   134  H    0.090805
   135  H    0.096947
   136  H    0.114674
   137  H    0.070661
 Sum of Mulliken charges =   0.00000

 Dipole moment (field-independent basis, Debye):
    X=              2.3467    Y=              4.2038    Z=             -0.1858  Tot=              4.8180
 Quadrupole moment (field-independent basis, Debye-Ang):
   XX=           -352.3099   YY=           -388.7543   ZZ=           -396.1598
   XY=            -24.2392   XZ=              2.3385   YZ=             -3.4085

 Normal termination of Gaussian 09 at Fri Jul  5 23:31:48 2019.
