 Gaussian 16, Revision A.03,
 Gaussian 16:  ES64L-G16RevA.03 25-Dec-2016

 ----------------------------------------------------------------------
 # td=(NStates=1) iop(3/107=0140000000,3/108=0140000000) CAM-B3LYP/6-31
 G(d,p)
 ----------------------------------------------------------------------

 --
 TD
 --
 Symbolic Z-matrix:
 Charge =  0 Multiplicity = 1

                         Standard orientation:
 ---------------------------------------------------------------------
 Center     Atomic      Atomic             Coordinates (Angstroms)
 Number     Number       Type             X           Y           Z
 ---------------------------------------------------------------------
      1         12           0       -7.033607    0.608747    0.169849
      2          6           0       -4.868636   -1.933366    0.559947
      3          6           0       -4.804169    2.825042    1.344319
      4          6           0       -9.355205    3.225070   -0.501264
      5          6           0       -9.559142   -1.672947   -0.786862
      6          7           0       -5.091878    0.423132    0.843408
      7          6           0       -4.332947   -0.708146    0.833460
      8          6           0       -2.944693   -0.426354    1.220121
      9          6           0       -2.986241    1.097824    1.677334
     10          6           0       -4.451786    1.477202    1.347333
     11          6           0       -2.676208    1.282264    3.221048
     12          6           0       -1.980635   -0.675066    0.025344
     13          6           0       -0.514940   -0.495718    0.629842
     14          6           0        0.481622   -0.689687   -0.491577
     15          8           0        0.255846   -0.841310   -1.628655
     16          8           0        1.804453   -0.584337   -0.098029
     17          7           0       -7.107678    2.721011    0.335343
     18          6           0       -6.053048    3.356940    0.953911
     19          6           0       -6.369399    4.810493    0.777486
     20          6           0       -7.715612    4.994442    0.330443
     21          6           0       -8.101391    3.592374   -0.020644
     22          6           0       -5.428604    5.946268    1.236658
     23          6           0       -8.357195    6.194439    0.039204
     24          6           0       -8.454729    7.321925    0.775459
     25          7           0       -9.058919    0.741097   -0.569818
     26          6           0       -9.791487    1.922962   -0.723734
     27          6           0      -11.189799    1.489184   -1.271950
     28          6           0      -11.140792    0.153560   -1.412927
     29          6           0       -9.901297   -0.343328   -1.003512
     30          6           0      -12.173057    2.560368   -1.558923
     31          6           0      -12.292975   -0.739360   -1.734031
     32          6           0      -12.299975   -1.239244   -3.263517
     33          7           0       -7.175406   -1.380957   -0.050719
     34          6           0       -8.287442   -2.186461   -0.510548
     35          6           0       -7.889739   -3.547108   -0.479522
     36          6           0       -6.475175   -3.552186   -0.204084
     37          6           0       -6.183329   -2.198658    0.143143
     38          6           0       -8.779298   -4.691358   -0.781536
     39          6           0       -5.330308   -4.337876    0.142503
     40          8           0       -5.257256   -5.576294    0.077196
     41          6           0       -4.106269   -3.372009    0.563376
     42          6           0       -3.491009   -3.800950    1.884371
     43          8           0       -3.606799   -3.235649    2.949539
     44          8           0       -2.731180   -4.918940    1.692237
     45          6           0       -2.242010   -5.498935    2.891112
     46          6           0        2.803513   -0.799941   -1.176155
     47          6           0        4.111213   -0.575373   -0.478359
     48          6           0        5.128493    0.233721   -0.953327
     49          6           0        4.972381    1.042777   -2.192553
     50          6           0        6.424464    0.226709   -0.219658
     51          6           0        7.653317   -0.398665   -0.926537
     52          6           0        8.845206   -0.183671   -0.141524
     53          6           0       10.107175   -0.676922   -0.829479
     54          6           0       10.021953   -2.158272   -1.220683
     55          6           0       11.338206   -0.290781   -0.038146
     56          6           0       12.670534   -0.361336   -0.781199
     57          6           0       13.855471   -0.122790    0.196780
     58          6           0       15.267574   -0.128143   -0.498808
     59          6           0       15.643183   -1.629774   -0.913468
     60          6           0       16.397295    0.486279    0.394108
     61          6           0       17.693364    0.681871   -0.266663
     62          6           0       18.787917    1.436076    0.634965
     63          6           0       20.252676    1.330980    0.243046
     64          6           0       20.326564    2.056983   -1.213620
     65          6           0       21.096409    2.197358    1.263677
     66          1           0       -4.182583    3.730591    1.821660
     67          1           0       -9.788747    4.142384   -0.749081
     68          1           0      -10.355898   -2.485825   -1.200656
     69          1           0       -2.583921   -1.084553    2.101774
     70          1           0       -2.249159    1.791145    1.036360
     71          1           0       -1.494413    1.035932    3.309583
     72          1           0       -3.023202    2.372178    3.361259
     73          1           0       -3.323736    0.456999    3.940650
     74          1           0       -2.353118   -1.679783   -0.579827
     75          1           0       -1.972991    0.226632   -0.709848
     76          1           0       -0.309803    0.617644    1.074923
     77          1           0       -0.328000   -1.268180    1.646891
     78          1           0       -5.790818    6.744451    0.685433
     79          1           0       -5.603313    6.320949    2.213397
     80          1           0       -4.426451    5.560834    1.155998
     81          1           0       -9.171225    6.072527   -0.748934
     82          1           0       -9.087080    8.151583    0.456995
     83          1           0       -7.829932    7.341681    1.571667
     84          1           0      -11.632031    3.246559   -2.239556
     85          1           0      -13.160382    2.329059   -2.044106
     86          1           0      -12.431702    3.028980   -0.649546
     87          1           0      -12.298480   -1.792428   -1.107671
     88          1           0      -13.163630   -0.278555   -1.551145
     89          1           0      -13.216058   -1.808721   -3.353735
     90          1           0      -12.421993   -0.281114   -4.016314
     91          1           0      -11.587260   -1.983342   -3.670511
     92          1           0       -9.397253   -4.316058   -1.732115
     93          1           0       -8.236037   -5.693833   -1.060506
     94          1           0       -9.452506   -4.831959   -0.076793
     95          1           0       -3.509728   -3.468393   -0.103722
     96          1           0       -1.709905   -4.831606    3.446666
     97          1           0       -3.103430   -5.846451    3.389092
     98          1           0       -1.616329   -6.374104    2.707188
     99          1           0        2.570002   -1.723878   -1.477550
    100          1           0        2.616867   -0.035711   -1.904726
    101          1           0        4.031445   -0.985680    0.453540
    102          1           0        4.120740    0.875756   -2.634144
    103          1           0        5.211343    2.131027   -1.820332
    104          1           0        5.832576    0.797297   -2.751462
    105          1           0        6.687483    1.165681    0.256100
    106          1           0        6.159168   -0.416098    0.571852
    107          1           0        7.493357   -1.329837   -1.279699
    108          1           0        7.729671    0.138719   -1.782219
    109          1           0        9.112707    1.005623   -0.021978
    110          1           0        8.856226   -0.556876    0.906481
    111          1           0       10.159861   -0.170646   -1.913550
    112          1           0        8.921307   -2.232126   -1.473844
    113          1           0       10.698391   -2.450936   -1.994430
    114          1           0       10.218363   -2.862232   -0.324288
    115          1           0       11.548620    0.650906    0.322728
    116          1           0       11.479578   -1.164784    0.885723
    117          1           0       12.787749   -1.253519   -1.143965
    118          1           0       13.000746    0.221290   -1.580329
    119          1           0       13.709327    0.887648    0.530880
    120          1           0       13.907828   -0.740228    1.091286
    121          1           0       15.452035    0.445235   -1.511589
    122          1           0       15.832590   -2.316038   -0.230858
    123          1           0       14.788951   -2.033943   -1.435977
    124          1           0       16.480271   -1.504038   -1.582686
    125          1           0       16.073010    1.351693    0.607428
    126          1           0       16.632401   -0.124824    1.381073
    127          1           0       18.350367   -0.234668   -0.395196
    128          1           0       17.521546    1.402852   -1.109606
    129          1           0       18.281429    2.275526    0.864077
    130          1           0       18.690795    0.913833    1.551549
    131          1           0       20.615245    0.330815    0.270962
    132          1           0       19.968145    3.033237   -1.088054
    133          1           0       21.275672    2.204492   -1.426421
    134          1           0       19.707199    1.582254   -1.901432
    135          1           0       20.875586    1.791425    2.312298
    136          1           0       22.107387    2.026181    0.967706
    137          1           0       20.925119    3.124523    1.196116
 ---------------------------------------------------------------------

 SCF Done:  E(RCAM-B3LYP) =  -2933.42706113     A.U. after   16 cycles

 Excitation energies and oscillator strengths:

 Excited State   1:      Singlet-A      2.0442 eV  606.53 nm  f=0.2682  <S**2>=0.000
     240 -> 243       -0.22639
     241 -> 242        0.66570
 This state for optimization and/or second-order correction.
 Total Energy, E(TD-HF/TD-DFT) =  -2933.35193932
 Copying the excited state density for this state as the 1-particle RhoCI density.

 The electronic state is 1-A.
 Alpha  occ. eigenvalues --  -46.80506 -19.21520 -19.19335 -19.16640 -19.16378
 Alpha  occ. eigenvalues --  -19.14778 -14.38049 -14.35697 -14.35557 -14.34991
 Alpha  occ. eigenvalues --  -10.34471 -10.33596 -10.29716 -10.27217 -10.26692
 Alpha  occ. eigenvalues --  -10.26270 -10.25895 -10.25829 -10.25653 -10.25223
 Alpha  occ. eigenvalues --  -10.25080 -10.24984 -10.24972 -10.24800 -10.24740
 Alpha  occ. eigenvalues --  -10.24384 -10.24228 -10.24008 -10.23860 -10.23661
 Alpha  occ. eigenvalues --  -10.23605 -10.23372 -10.23347 -10.23042 -10.22943
 Alpha  occ. eigenvalues --  -10.22908 -10.22904 -10.22795 -10.22519 -10.22500
 Alpha  occ. eigenvalues --  -10.22424 -10.22302 -10.22230 -10.21884 -10.21878
 Alpha  occ. eigenvalues --  -10.21807 -10.21800 -10.21649 -10.21536 -10.21151
 Alpha  occ. eigenvalues --  -10.20933 -10.20747 -10.20658 -10.20561 -10.20469
 Alpha  occ. eigenvalues --  -10.20443 -10.20350 -10.20300 -10.19528 -10.19328
 Alpha  occ. eigenvalues --  -10.18856 -10.18453 -10.18413 -10.17978 -10.17893
 Alpha  occ. eigenvalues --   -3.08966  -1.83926  -1.83425  -1.83365  -1.12735
 Alpha  occ. eigenvalues --   -1.12671  -1.04287  -1.03535  -1.03366  -1.00251
 Alpha  occ. eigenvalues --   -0.98279  -0.97577  -0.95493  -0.87085  -0.86687
 Alpha  occ. eigenvalues --   -0.85243  -0.84919  -0.84529  -0.84098  -0.83897
 Alpha  occ. eigenvalues --   -0.82968  -0.82907  -0.82573  -0.82242  -0.81076
 Alpha  occ. eigenvalues --   -0.79967  -0.79335  -0.78805  -0.78263  -0.78018
 Alpha  occ. eigenvalues --   -0.76778  -0.76550  -0.76100  -0.75595  -0.73882
 Alpha  occ. eigenvalues --   -0.73139  -0.72914  -0.72449  -0.72136  -0.71932
 Alpha  occ. eigenvalues --   -0.71129  -0.70468  -0.70304  -0.68204  -0.67923
 Alpha  occ. eigenvalues --   -0.66754  -0.65919  -0.65355  -0.64546  -0.64057
 Alpha  occ. eigenvalues --   -0.63345  -0.63129  -0.61685  -0.61155  -0.60442
 Alpha  occ. eigenvalues --   -0.59813  -0.59479  -0.58672  -0.58600  -0.57912
 Alpha  occ. eigenvalues --   -0.57474  -0.56449  -0.56086  -0.55608  -0.54641
 Alpha  occ. eigenvalues --   -0.54593  -0.54430  -0.53912  -0.53330  -0.53198
 Alpha  occ. eigenvalues --   -0.52562  -0.51913  -0.51612  -0.51499  -0.50808
 Alpha  occ. eigenvalues --   -0.50647  -0.50543  -0.50084  -0.49743  -0.49467
 Alpha  occ. eigenvalues --   -0.49031  -0.48692  -0.48466  -0.48327  -0.48113
 Alpha  occ. eigenvalues --   -0.47933  -0.47659  -0.47540  -0.47219  -0.46865
 Alpha  occ. eigenvalues --   -0.46849  -0.46537  -0.46421  -0.46128  -0.46032
 Alpha  occ. eigenvalues --   -0.45865  -0.45633  -0.45071  -0.44979  -0.44646
 Alpha  occ. eigenvalues --   -0.44547  -0.44457  -0.44328  -0.44251  -0.44074
 Alpha  occ. eigenvalues --   -0.43928  -0.43696  -0.43367  -0.43004  -0.42738
 Alpha  occ. eigenvalues --   -0.42560  -0.42308  -0.41942  -0.41763  -0.41709
 Alpha  occ. eigenvalues --   -0.41563  -0.41324  -0.41273  -0.40848  -0.40745
 Alpha  occ. eigenvalues --   -0.40659  -0.40462  -0.40344  -0.40200  -0.39871
 Alpha  occ. eigenvalues --   -0.39634  -0.39611  -0.39479  -0.39233  -0.38931
 Alpha  occ. eigenvalues --   -0.38829  -0.38640  -0.38463  -0.38215  -0.38031
 Alpha  occ. eigenvalues --   -0.37845  -0.37687  -0.37537  -0.37384  -0.37290
 Alpha  occ. eigenvalues --   -0.37048  -0.36693  -0.36297  -0.36148  -0.36131
 Alpha  occ. eigenvalues --   -0.35841  -0.35725  -0.35450  -0.35402  -0.34732
 Alpha  occ. eigenvalues --   -0.34521  -0.34197  -0.34170  -0.33888  -0.33509
 Alpha  occ. eigenvalues --   -0.33230  -0.32806  -0.32573  -0.32538  -0.32501
 Alpha  occ. eigenvalues --   -0.31915  -0.31837  -0.31298  -0.30367  -0.30062
 Alpha  occ. eigenvalues --   -0.30008  -0.29773  -0.29568  -0.28936  -0.26552
 Alpha  occ. eigenvalues --   -0.25889  -0.25841  -0.25567  -0.24720  -0.22138
 Alpha  occ. eigenvalues --   -0.20352
 Alpha virt. eigenvalues --   -0.07486  -0.03960  -0.00306   0.01615   0.03762
 Alpha virt. eigenvalues --    0.03871   0.04147   0.04898   0.04987   0.05097
 Alpha virt. eigenvalues --    0.06410   0.08179   0.08354   0.09713   0.09836

 Mulliken charges:
               1
     1  Mg   0.810935
     2  C    0.047262
     3  C   -0.176710
     4  C   -0.121575
     5  C   -0.174230
     6  N   -0.654975
     7  C    0.299737
     8  C   -0.147355
     9  C   -0.154821
    10  C    0.343359
    11  C   -0.284625
    12  C   -0.158248
    13  C   -0.262542
    14  C    0.607567
    15  O   -0.441504
    16  O   -0.523903
    17  N   -0.706850
    18  C    0.318074
    19  C   -0.036802
    20  C    0.038715
    21  C    0.288763
    22  C   -0.368796
    23  C   -0.112224
    24  C   -0.225661
    25  N   -0.663244
    26  C    0.289947
    27  C    0.012619
    28  C    0.068774
    29  C    0.281918
    30  C   -0.380191
    31  C   -0.233894
    32  C   -0.317221
    33  N   -0.746221
    34  C    0.270805
    35  C    0.016278
    36  C    0.028796
    37  C    0.333730
    38  C   -0.373232
    39  C    0.319040
    40  O   -0.482889
    41  C   -0.241590
    42  C    0.612352
    43  O   -0.472333
    44  O   -0.447072
    45  C   -0.083532
    46  C    0.032814
    47  C   -0.133913
    48  C    0.090265
    49  C   -0.331816
    50  C   -0.239890
    51  C   -0.174363
    52  C   -0.159120
    53  C   -0.052754
    54  C   -0.307778
    55  C   -0.147190
    56  C   -0.185084
    57  C   -0.191084
    58  C   -0.081606
    59  C   -0.318267
    60  C   -0.133768
    61  C   -0.199447
    62  C   -0.172332
    63  C   -0.077653
    64  C   -0.318360
    65  C   -0.303034
    66  H    0.085056
    67  H    0.067915
    68  H    0.082797
    69  H    0.127057
    70  H    0.096455
    71  H    0.096569
    72  H    0.107373
    73  H    0.107954
    74  H    0.112330
    75  H    0.115401
    76  H    0.130943
    77  H    0.105391
    78  H    0.126186
    79  H    0.129645
    80  H    0.110906
    81  H    0.079118
    82  H    0.112600
    83  H    0.097683
    84  H    0.127160
    85  H    0.108250
    86  H    0.135676
    87  H    0.083505
    88  H    0.112762
    89  H    0.106557
    90  H    0.085604
    91  H    0.115038
    92  H    0.097977
    93  H    0.137627
    94  H    0.145355
    95  H    0.137703
    96  H    0.130265
    97  H    0.132652
    98  H    0.119699
    99  H    0.127877
   100  H    0.116534
   101  H    0.094631
   102  H    0.109776
   103  H    0.105728
   104  H    0.121343
   105  H    0.097926
   106  H    0.108974
   107  H    0.116763
   108  H    0.108276
   109  H    0.069247
   110  H    0.093995
   111  H    0.061993
   112  H    0.092281
   113  H    0.115863
   114  H    0.086668
   115  H    0.098824
   116  H    0.050489
   117  H    0.103242
   118  H    0.097745
   119  H    0.085557
   120  H    0.094664
   121  H    0.064993
   122  H    0.110112
   123  H    0.092148
   124  H    0.102429
   125  H    0.093870
   126  H    0.065379
   127  H    0.088395
   128  H    0.082498
   129  H    0.091414
   130  H    0.078396
   131  H    0.091068
   132  H    0.103358
   133  H    0.100424
   134  H    0.113759
   135  H    0.088779
   136  H    0.098243
   137  H    0.117080
 Sum of Mulliken charges =  -0.00000

 Dipole moment (field-independent basis, Debye):
    X=              0.4676    Y=              5.1931    Z=              0.3290  Tot=              5.2245
 Quadrupole moment (field-independent basis, Debye-Ang):
   XX=           -335.3467   YY=           -390.2553   ZZ=           -398.9417
   XY=            -22.5147   XZ=              9.1075   YZ=             -2.3111

 Normal termination of Gaussian 16 at Sun Sep 15 04:17:14 2019.
