 Gaussian 16, Revision A.03,
 Gaussian 16:  ES64L-G16RevA.03 25-Dec-2016

 ----------------------------------------------------------------------
 # td=(NStates=1) iop(3/107=0140000000,3/108=0140000000) CAM-B3LYP/6-31
 G(d,p)
 ----------------------------------------------------------------------

 --
 TD
 --
 Symbolic Z-matrix:
 Charge =  0 Multiplicity = 1

                         Standard orientation:
 ---------------------------------------------------------------------
 Center     Atomic      Atomic             Coordinates (Angstroms)
 Number     Number       Type             X           Y           Z
 ---------------------------------------------------------------------
      1         12           0       -7.101323    0.615790    0.164149
      2          6           0       -4.853826   -1.919149    0.535948
      3          6           0       -4.808208    2.849266    1.234391
      4          6           0       -9.316290    3.074896   -0.536415
      5          6           0       -9.544257   -1.724016   -0.829315
      6          7           0       -5.137240    0.404978    0.812963
      7          6           0       -4.270114   -0.650843    0.787000
      8          6           0       -2.898306   -0.427206    1.347731
      9          6           0       -3.077505    1.041801    1.821264
     10          6           0       -4.380966    1.465458    1.278679
     11          6           0       -2.986670    1.072516    3.397258
     12          6           0       -1.961852   -0.732327    0.144651
     13          6           0       -0.366618   -0.443892    0.637146
     14          6           0        0.609435   -0.633323   -0.555841
     15          8           0        0.216457   -0.949935   -1.646404
     16          8           0        1.856822   -0.372405   -0.119196
     17          7           0       -7.044449    2.565541    0.370666
     18          6           0       -6.021987    3.369491    0.819068
     19          6           0       -6.402374    4.800699    0.742433
     20          6           0       -7.625768    4.815733    0.306956
     21          6           0       -8.148545    3.497541    0.048598
     22          6           0       -5.470371    5.859494    1.134826
     23          6           0       -8.452608    6.010163    0.172720
     24          6           0       -8.441785    7.187507    0.847531
     25          7           0       -9.070266    0.666278   -0.579998
     26          6           0       -9.803824    1.780560   -0.805482
     27          6           0      -11.130675    1.544704   -1.281660
     28          6           0      -11.230210    0.169408   -1.318812
     29          6           0       -9.942340   -0.339938   -0.850682
     30          6           0      -12.171716    2.467719   -1.507945
     31          6           0      -12.510854   -0.718726   -1.765318
     32          6           0      -12.459337   -1.092878   -3.220353
     33          7           0       -7.196497   -1.401894   -0.178946
     34          6           0       -8.220088   -2.208056   -0.557837
     35          6           0       -7.828724   -3.597292   -0.503640
     36          6           0       -6.549372   -3.554226   -0.162617
     37          6           0       -6.222510   -2.166089    0.109312
     38          6           0       -8.773121   -4.684507   -0.870434
     39          6           0       -5.281126   -4.380742    0.142791
     40          8           0       -5.170619   -5.533620    0.110563
     41          6           0       -4.127085   -3.285581    0.524661
     42          6           0       -3.518244   -3.731405    1.771716
     43          8           0       -3.784976   -3.171659    2.886617
     44          8           0       -2.880316   -4.857407    1.692129
     45          6           0       -2.239470   -5.353408    2.895289
     46          6           0        2.836530   -0.470956   -1.055606
     47          6           0        4.162599   -0.305895   -0.477413
     48          6           0        5.135685    0.397433   -0.960841
     49          6           0        5.000141    1.192003   -2.206801
     50          6           0        6.434753    0.555374   -0.259732
     51          6           0        7.643283   -0.099350   -1.038876
     52          6           0        8.941205   -0.042840   -0.132205
     53          6           0       10.139443   -0.585213   -0.897021
     54          6           0        9.984425   -2.093694   -1.276912
     55          6           0       11.413514   -0.351167   -0.018157
     56          6           0       12.769506   -0.562419   -0.672135
     57          6           0       13.943990   -0.145863    0.128751
     58          6           0       15.419014   -0.238157   -0.502669
     59          6           0       15.721781   -1.626101   -0.902150
     60          6           0       16.466237    0.265012    0.372618
     61          6           0       17.796119    0.557189   -0.292197
     62          6           0       18.771740    1.311001    0.675565
     63          6           0       20.288588    1.396395    0.224551
     64          6           0       20.346672    2.013856   -1.049282
     65          6           0       21.119278    2.003545    1.349883
     66          1           0       -4.227800    3.699010    1.708375
     67          1           0      -10.108888    3.970242   -0.540674
     68          1           0      -10.299483   -2.397311   -0.953319
     69          1           0       -2.808872   -1.059048    2.239287
     70          1           0       -2.267623    1.776786    1.507725
     71          1           0       -1.893089    0.469082    3.706237
     72          1           0       -3.263546    2.062153    3.807425
     73          1           0       -3.710118    0.211127    3.732561
     74          1           0       -1.967835   -1.856180   -0.085140
     75          1           0       -1.999170   -0.044167   -0.755845
     76          1           0       -0.434303    0.553213    0.824906
     77          1           0       -0.185616   -0.944416    1.530542
     78          1           0       -5.725650    6.905449    0.747699
     79          1           0       -5.297717    6.198316    2.298342
     80          1           0       -4.415149    5.671214    0.661539
     81          1           0       -9.220869    5.809003   -0.629379
     82          1           0       -9.010140    7.953552    0.598105
     83          1           0       -7.661344    7.162568    1.498464
     84          1           0      -12.065407    3.206136   -2.231685
     85          1           0      -13.129005    1.714074   -2.060615
     86          1           0      -12.120957    3.093799   -0.648198
     87          1           0      -12.458563   -1.604163   -0.938010
     88          1           0      -13.470501   -0.243409   -1.634221
     89          1           0      -13.613258   -1.558671   -3.473956
     90          1           0      -12.167225   -0.060758   -3.849176
     91          1           0      -11.640996   -1.754442   -3.297540
     92          1           0       -9.001188   -4.436178   -2.047463
     93          1           0       -8.179056   -5.656207   -0.834087
     94          1           0       -9.809152   -4.831074   -0.371888
     95          1           0       -3.299227   -3.348861   -0.121931
     96          1           0       -1.575764   -4.612713    3.469342
     97          1           0       -3.110521   -5.515622    3.594841
     98          1           0       -1.676034   -6.177575    2.574486
     99          1           0        2.789511   -1.500907   -1.540280
    100          1           0        2.919247    0.174247   -2.102720
    101          1           0        4.199813   -0.817836    0.531152
    102          1           0        4.060602    1.290401   -2.716698
    103          1           0        5.489317    2.162125   -2.024042
    104          1           0        5.666311    0.801515   -3.110711
    105          1           0        6.663457    1.659301   -0.190379
    106          1           0        6.675390    0.034815    0.798421
    107          1           0        7.379165   -1.193002   -1.201884
    108          1           0        7.713590    0.286551   -2.064091
    109          1           0        8.996973    0.815860    0.140410
    110          1           0        8.573253   -0.635308    0.670715
    111          1           0       10.028957   -0.047900   -1.894651
    112          1           0        9.110678   -2.229459   -2.042073
    113          1           0       10.930706   -2.575347   -1.942551
    114          1           0        9.939919   -2.792847   -0.575138
    115          1           0       11.451544    0.746162    0.255128
    116          1           0       11.280991   -1.117004    0.910909
    117          1           0       12.786973   -1.590781   -0.974639
    118          1           0       12.860616   -0.108697   -1.742572
    119          1           0       13.627289    0.898172    0.302911
    120          1           0       14.067416   -0.582781    1.123104
    121          1           0       15.441806    0.570014   -1.220812
    122          1           0       15.650123   -2.352623   -0.051340
    123          1           0       15.134175   -1.971720   -1.810249
    124          1           0       16.645323   -1.748537   -1.322060
    125          1           0       16.051961    1.271762    1.001344
    126          1           0       16.707278   -0.305133    1.261333
    127          1           0       18.258147   -0.388573   -0.460024
    128          1           0       17.423494    1.248810   -1.100812
    129          1           0       18.338508    2.321742    0.665049
    130          1           0       18.593181    0.808638    1.691515
    131          1           0       20.569538    0.270558   -0.034090
    132          1           0       20.065768    3.132701   -0.841746
    133          1           0       21.211038    2.038773   -1.524066
    134          1           0       19.598686    1.559838   -1.776108
    135          1           0       20.910900    1.236157    2.230005
    136          1           0       22.126659    1.995093    0.985928
    137          1           0       20.888718    3.125692    1.678861
 ---------------------------------------------------------------------

 SCF Done:  E(RCAM-B3LYP) =  -2933.44639346     A.U. after   16 cycles

 Excitation energies and oscillator strengths:

 Excited State   1:      Singlet-A      2.1152 eV  586.16 nm  f=0.1849  <S**2>=0.000
     240 -> 243        0.28426
     241 -> 242        0.64377
 This state for optimization and/or second-order correction.
 Total Energy, E(TD-HF/TD-DFT) =  -2933.36866166
 Copying the excited state density for this state as the 1-particle RhoCI density.

 The electronic state is 1-A.
 Alpha  occ. eigenvalues --  -46.79534 -19.23936 -19.23150 -19.17909 -19.17561
 Alpha  occ. eigenvalues --  -19.14865 -14.37732 -14.34963 -14.34874 -14.34759
 Alpha  occ. eigenvalues --  -10.35427 -10.33768 -10.31486 -10.27873 -10.27806
 Alpha  occ. eigenvalues --  -10.26917 -10.25912 -10.24982 -10.24852 -10.24310
 Alpha  occ. eigenvalues --  -10.24174 -10.24102 -10.24063 -10.24027 -10.24007
 Alpha  occ. eigenvalues --  -10.23857 -10.23790 -10.23671 -10.23541 -10.23353
 Alpha  occ. eigenvalues --  -10.23288 -10.23222 -10.23019 -10.22977 -10.22866
 Alpha  occ. eigenvalues --  -10.22831 -10.22763 -10.22634 -10.22504 -10.22496
 Alpha  occ. eigenvalues --  -10.22474 -10.22346 -10.22087 -10.21981 -10.21977
 Alpha  occ. eigenvalues --  -10.21899 -10.21888 -10.21797 -10.21746 -10.21647
 Alpha  occ. eigenvalues --  -10.21430 -10.21421 -10.20978 -10.20908 -10.20811
 Alpha  occ. eigenvalues --  -10.20755 -10.20713 -10.20631 -10.20543 -10.20374
 Alpha  occ. eigenvalues --  -10.20322 -10.20107 -10.19788 -10.19148 -10.19018
 Alpha  occ. eigenvalues --   -3.08239  -1.83171  -1.82719  -1.82653  -1.15721
 Alpha  occ. eigenvalues --   -1.14338  -1.10289  -1.07029  -1.01232  -1.00892
 Alpha  occ. eigenvalues --   -0.98928  -0.98259  -0.96199  -0.87011  -0.86204
 Alpha  occ. eigenvalues --   -0.85986  -0.84832  -0.84676  -0.84161  -0.84033
 Alpha  occ. eigenvalues --   -0.83610  -0.83410  -0.82669  -0.81495  -0.81156
 Alpha  occ. eigenvalues --   -0.80367  -0.79823  -0.79059  -0.78179  -0.77912
 Alpha  occ. eigenvalues --   -0.77059  -0.76356  -0.75837  -0.75153  -0.73004
 Alpha  occ. eigenvalues --   -0.72830  -0.72567  -0.71882  -0.71677  -0.71391
 Alpha  occ. eigenvalues --   -0.70625  -0.70262  -0.69647  -0.69022  -0.67436
 Alpha  occ. eigenvalues --   -0.66626  -0.65512  -0.64505  -0.63930  -0.63228
 Alpha  occ. eigenvalues --   -0.62767  -0.62536  -0.60791  -0.60650  -0.60167
 Alpha  occ. eigenvalues --   -0.59995  -0.59629  -0.58891  -0.58528  -0.58029
 Alpha  occ. eigenvalues --   -0.57303  -0.56476  -0.56433  -0.55461  -0.55249
 Alpha  occ. eigenvalues --   -0.54406  -0.54079  -0.53676  -0.53380  -0.53107
 Alpha  occ. eigenvalues --   -0.52771  -0.52262  -0.51939  -0.51625  -0.51551
 Alpha  occ. eigenvalues --   -0.51172  -0.50927  -0.50500  -0.50095  -0.49974
 Alpha  occ. eigenvalues --   -0.49592  -0.49087  -0.48863  -0.48666  -0.48561
 Alpha  occ. eigenvalues --   -0.47980  -0.47370  -0.47195  -0.46812  -0.46743
 Alpha  occ. eigenvalues --   -0.46694  -0.46611  -0.46463  -0.46220  -0.45972
 Alpha  occ. eigenvalues --   -0.45529  -0.45439  -0.45201  -0.45058  -0.44920
 Alpha  occ. eigenvalues --   -0.44699  -0.44650  -0.44408  -0.43987  -0.43696
 Alpha  occ. eigenvalues --   -0.43240  -0.42821  -0.42705  -0.42331  -0.42229
 Alpha  occ. eigenvalues --   -0.42103  -0.41968  -0.41752  -0.41509  -0.41193
 Alpha  occ. eigenvalues --   -0.41033  -0.40965  -0.40853  -0.40642  -0.40511
 Alpha  occ. eigenvalues --   -0.40437  -0.40303  -0.40272  -0.40143  -0.39924
 Alpha  occ. eigenvalues --   -0.39722  -0.39694  -0.39277  -0.39273  -0.39172
 Alpha  occ. eigenvalues --   -0.38667  -0.38443  -0.38201  -0.37915  -0.37730
 Alpha  occ. eigenvalues --   -0.37583  -0.37541  -0.37091  -0.36954  -0.36822
 Alpha  occ. eigenvalues --   -0.36707  -0.36153  -0.36046  -0.35985  -0.35813
 Alpha  occ. eigenvalues --   -0.35586  -0.35442  -0.35180  -0.34832  -0.34547
 Alpha  occ. eigenvalues --   -0.34255  -0.33869  -0.33720  -0.33586  -0.33354
 Alpha  occ. eigenvalues --   -0.33228  -0.32941  -0.32823  -0.32644  -0.32270
 Alpha  occ. eigenvalues --   -0.32192  -0.32077  -0.31966  -0.31288  -0.31055
 Alpha  occ. eigenvalues --   -0.30845  -0.29071  -0.28706  -0.28179  -0.27419
 Alpha  occ. eigenvalues --   -0.27046  -0.26818  -0.25749  -0.25285  -0.21175
 Alpha  occ. eigenvalues --   -0.19557
 Alpha virt. eigenvalues --   -0.05944  -0.03765   0.00584   0.02291   0.03679
 Alpha virt. eigenvalues --    0.03761   0.04518   0.04857   0.05097   0.05762
 Alpha virt. eigenvalues --    0.06279   0.07186   0.09099   0.09370   0.09957

 Mulliken charges:
               1
     1  Mg   0.814038
     2  C    0.088508
     3  C   -0.215896
     4  C   -0.207947
     5  C   -0.157800
     6  N   -0.619715
     7  C    0.276112
     8  C   -0.141176
     9  C   -0.155903
    10  C    0.356215
    11  C   -0.300855
    12  C   -0.184631
    13  C   -0.296915
    14  C    0.608695
    15  O   -0.448314
    16  O   -0.422681
    17  N   -0.730544
    18  C    0.317984
    19  C    0.088594
    20  C    0.028263
    21  C    0.289175
    22  C   -0.409969
    23  C   -0.093641
    24  C   -0.204049
    25  N   -0.666306
    26  C    0.304786
    27  C    0.079337
    28  C   -0.002528
    29  C    0.270425
    30  C   -0.378859
    31  C   -0.231997
    32  C   -0.267963
    33  N   -0.693787
    34  C    0.243007
    35  C    0.031287
    36  C   -0.006078
    37  C    0.306889
    38  C   -0.385781
    39  C    0.387027
    40  O   -0.394981
    41  C   -0.342768
    42  C    0.603099
    43  O   -0.526968
    44  O   -0.413891
    45  C   -0.088402
    46  C    0.013111
    47  C   -0.139252
    48  C    0.180291
    49  C   -0.385296
    50  C   -0.234309
    51  C   -0.215017
    52  C   -0.130032
    53  C   -0.056066
    54  C   -0.311294
    55  C   -0.159954
    56  C   -0.176420
    57  C   -0.165815
    58  C   -0.036899
    59  C   -0.309186
    60  C   -0.185486
    61  C   -0.175323
    62  C   -0.163331
    63  C   -0.047479
    64  C   -0.283367
    65  C   -0.291287
    66  H    0.070984
    67  H    0.067139
    68  H    0.069715
    69  H    0.145857
    70  H    0.103857
    71  H    0.080823
    72  H    0.119728
    73  H    0.125302
    74  H    0.113693
    75  H    0.131153
    76  H    0.141615
    77  H    0.130116
    78  H    0.118583
    79  H    0.106608
    80  H    0.112400
    81  H    0.070432
    82  H    0.101235
    83  H    0.088471
    84  H    0.130002
    85  H    0.076622
    86  H    0.128077
    87  H    0.084835
    88  H    0.111437
    89  H    0.076784
    90  H    0.091270
    91  H    0.124661
    92  H    0.107370
    93  H    0.133499
    94  H    0.125889
    95  H    0.151691
    96  H    0.124080
    97  H    0.144140
    98  H    0.135373
    99  H    0.109761
   100  H    0.078539
   101  H    0.080031
   102  H    0.128376
   103  H    0.116011
   104  H    0.103374
   105  H    0.093547
   106  H    0.083791
   107  H    0.094546
   108  H    0.088859
   109  H    0.097735
   110  H    0.093987
   111  H    0.084644
   112  H    0.092971
   113  H    0.064658
   114  H    0.121293
   115  H    0.080543
   116  H    0.077499
   117  H    0.094482
   118  H    0.073507
   119  H    0.079721
   120  H    0.085623
   121  H    0.082571
   122  H    0.101965
   123  H    0.091414
   124  H    0.111952
   125  H    0.041725
   126  H    0.081237
   127  H    0.103511
   128  H    0.092768
   129  H    0.089514
   130  H    0.074428
   131  H    0.060644
   132  H    0.070618
   133  H    0.107159
   134  H    0.100282
   135  H    0.094352
   136  H    0.106517
   137  H    0.091720
 Sum of Mulliken charges =  -0.00000

 Dipole moment (field-independent basis, Debye):
    X=              3.2953    Y=              2.7128    Z=              0.4524  Tot=              4.2922
 Quadrupole moment (field-independent basis, Debye-Ang):
   XX=           -360.4646   YY=           -386.6473   ZZ=           -400.6126
   XY=            -18.2807   XZ=              2.4454   YZ=             -4.4454

 Normal termination of Gaussian 16 at Mon Sep  9 23:24:53 2019.
