 Gaussian 16, Revision A.03,
 Gaussian 16:  ES64L-G16RevA.03 25-Dec-2016

 ----------------------------------------------------------------------
 # td=(NStates=1) iop(3/107=0140000000,3/108=0140000000) CAM-B3LYP/6-31
 G(d,p)
 ----------------------------------------------------------------------

 --
 TD
 --
 Symbolic Z-matrix:
 Charge =  0 Multiplicity = 1

                         Standard orientation:
 ---------------------------------------------------------------------
 Center     Atomic      Atomic             Coordinates (Angstroms)
 Number     Number       Type             X           Y           Z
 ---------------------------------------------------------------------
      1         12           0       -7.154478    0.584853    0.186406
      2          6           0       -4.976445   -2.040679    0.535936
      3          6           0       -4.756750    2.883016    1.098314
      4          6           0       -9.441591    3.156632   -0.508459
      5          6           0       -9.577010   -1.668769   -0.844243
      6          7           0       -5.074247    0.399828    0.720644
      7          6           0       -4.385507   -0.749113    0.807198
      8          6           0       -2.829583   -0.452889    1.139765
      9          6           0       -3.022624    1.059800    1.606380
     10          6           0       -4.346940    1.420689    1.199519
     11          6           0       -2.904559    1.198598    3.209745
     12          6           0       -1.886650   -0.740309    0.051115
     13          6           0       -0.468113   -0.354810    0.450238
     14          6           0        0.521334   -0.641569   -0.585343
     15          8           0        0.404574   -0.981206   -1.724792
     16          8           0        1.783336   -0.482663   -0.101873
     17          7           0       -7.096797    2.608290    0.421080
     18          6           0       -6.000961    3.351560    0.851591
     19          6           0       -6.359734    4.717328    0.736855
     20          6           0       -7.607015    4.910349    0.294682
     21          6           0       -8.111210    3.436847    0.115170
     22          6           0       -5.387089    5.850074    1.136799
     23          6           0       -8.365921    6.054177    0.118892
     24          6           0       -8.261009    7.185444    0.833303
     25          7           0       -9.166588    0.769930   -0.502902
     26          6           0       -9.855001    1.908485   -0.718615
     27          6           0      -11.217467    1.499328   -1.240953
     28          6           0      -11.280918    0.210263   -1.280967
     29          6           0       -9.910312   -0.290014   -0.936509
     30          6           0      -12.285571    2.530491   -1.417806
     31          6           0      -12.373338   -0.673029   -1.653972
     32          6           0      -12.404147   -1.146375   -3.147646
     33          7           0       -7.238141   -1.389173   -0.068211
     34          6           0       -8.364371   -2.143377   -0.455126
     35          6           0       -7.978668   -3.563922   -0.507713
     36          6           0       -6.637833   -3.568919   -0.121810
     37          6           0       -6.255525   -2.222689    0.082216
     38          6           0       -8.840574   -4.755360   -0.733589
     39          6           0       -5.544808   -4.487557    0.053880
     40          8           0       -5.321556   -5.686567    0.077282
     41          6           0       -4.312839   -3.376511    0.608434
     42          6           0       -3.614122   -3.719235    1.839140
     43          8           0       -3.848276   -3.076428    2.883360
     44          8           0       -2.756730   -4.715566    1.736569
     45          6           0       -2.291737   -5.276172    2.993106
     46          6           0        2.828029   -0.682326   -1.155169
     47          6           0        4.138019   -0.453731   -0.458786
     48          6           0        5.177080    0.221477   -0.941285
     49          6           0        5.200726    1.125119   -2.145496
     50          6           0        6.493194    0.371755   -0.187357
     51          6           0        7.656005   -0.163767   -1.005709
     52          6           0        8.908127   -0.124534   -0.151028
     53          6           0       10.191101   -0.531235   -0.886699
     54          6           0       10.061976   -1.966097   -1.492582
     55          6           0       11.482957   -0.344074   -0.084995
     56          6           0       12.741837   -0.267450   -0.870288
     57          6           0       13.949489    0.022818    0.133025
     58          6           0       15.373071   -0.144744   -0.573388
     59          6           0       15.663563   -1.544815   -1.019785
     60          6           0       16.499659    0.354138    0.469093
     61          6           0       17.822976    0.535874   -0.073071
     62          6           0       18.872746    1.321340    0.743480
     63          6           0       20.308749    1.174914    0.308428
     64          6           0       20.446704    2.122592   -0.983051
     65          6           0       21.278245    1.686291    1.427101
     66          1           0       -4.137391    3.524045    1.496477
     67          1           0      -10.060578    4.172603   -0.556167
     68          1           0      -10.503428   -2.288583   -1.266591
     69          1           0       -2.726481   -1.120251    2.001074
     70          1           0       -2.244317    1.637306    1.263491
     71          1           0       -1.905369    1.094670    3.511181
     72          1           0       -3.030252    2.318845    3.498470
     73          1           0       -3.479191    0.407223    3.618471
     74          1           0       -1.971467   -1.824465   -0.248785
     75          1           0       -2.237058   -0.093267   -0.764948
     76          1           0       -0.425917    0.547261    0.954577
     77          1           0        0.027277   -0.918843    1.347985
     78          1           0       -5.423627    6.922717    0.534576
     79          1           0       -5.560771    6.254798    2.306079
     80          1           0       -4.236866    5.438086    0.995713
     81          1           0       -9.305827    6.116205   -0.473888
     82          1           0       -9.018027    8.051074    0.684503
     83          1           0       -7.438963    7.424724    1.558982
     84          1           0      -12.184495    3.112110   -2.490226
     85          1           0      -13.314226    2.033170   -1.658505
     86          1           0      -12.293625    3.402040   -0.617577
     87          1           0      -12.563569   -1.523586   -0.929345
     88          1           0      -13.306352    0.135408   -1.678742
     89          1           0      -13.403856   -1.786601   -3.469823
     90          1           0      -12.386473   -0.191202   -3.911817
     91          1           0      -11.416188   -1.647828   -3.375553
     92          1           0       -9.281835   -4.674349   -1.838830
     93          1           0       -8.312153   -5.724888   -0.627513
     94          1           0       -9.561276   -4.545524    0.000503
     95          1           0       -3.522593   -3.410223   -0.077607
     96          1           0       -1.611916   -4.744451    3.560832
     97          1           0       -3.254397   -5.511299    3.603148
     98          1           0       -1.656950   -6.178055    2.773442
     99          1           0        2.842341   -1.802629   -1.548911
    100          1           0        2.804878    0.082153   -1.985998
    101          1           0        4.197738   -1.227315    0.606587
    102          1           0        4.141826    0.996634   -2.516023
    103          1           0        5.428424    2.183709   -1.989761
    104          1           0        5.635390    0.905553   -2.929237
    105          1           0        6.567880    1.333478    0.033820
    106          1           0        6.404051   -0.079205    0.753511
    107          1           0        7.490796   -1.362010   -1.130934
    108          1           0        7.869425    0.246023   -1.902518
    109          1           0        9.139590    0.806781    0.252118
    110          1           0        8.635335   -0.815587    0.726553
    111          1           0       10.023514    0.135622   -1.728105
    112          1           0        9.292344   -2.193774   -2.089920
    113          1           0       10.947566   -2.112812   -2.126429
    114          1           0       10.331274   -2.513102   -0.593846
    115          1           0       11.332208    0.871539    0.068872
    116          1           0       11.581493   -0.760939    0.845351
    117          1           0       13.100373   -1.374099   -1.268057
    118          1           0       12.541057    0.429208   -1.805529
    119          1           0       13.966829    1.158820    0.416361
    120          1           0       13.857955   -0.591917    1.112981
    121          1           0       15.308733    0.455683   -1.418056
    122          1           0       15.522430   -2.278444   -0.120769
    123          1           0       14.776261   -1.828795   -1.797528
    124          1           0       16.494029   -1.712724   -1.524861
    125          1           0       16.124967    1.285131    0.877302
    126          1           0       16.747916   -0.470525    1.389500
    127          1           0       18.154746   -0.505415   -0.399825
    128          1           0       17.864993    1.181145   -1.003575
    129          1           0       18.497479    2.423435    0.895768
    130          1           0       18.822111    0.940941    1.860398
    131          1           0       20.434031    0.217778    0.079754
    132          1           0       20.232794    3.105260   -0.699395
    133          1           0       21.543259    2.242611   -1.447622
    134          1           0       19.765759    1.628637   -1.618559
    135          1           0       21.321093    0.848188    2.142966
    136          1           0       22.430808    1.648042    0.915620
    137          1           0       20.809964    2.601163    1.777108
 ---------------------------------------------------------------------

 SCF Done:  E(RCAM-B3LYP) =  -2933.42737962     A.U. after   16 cycles

 Excitation energies and oscillator strengths:

 Excited State   1:      Singlet-A      1.9338 eV  641.13 nm  f=0.2705  <S**2>=0.000
     240 -> 243        0.22368
     241 -> 242        0.67086
 This state for optimization and/or second-order correction.
 Total Energy, E(TD-HF/TD-DFT) =  -2933.35631201
 Copying the excited state density for this state as the 1-particle RhoCI density.

 The electronic state is 1-A.
 Alpha  occ. eigenvalues --  -46.80786 -19.22777 -19.20892 -19.17318 -19.16056
 Alpha  occ. eigenvalues --  -19.14881 -14.38620 -14.35992 -14.35675 -14.35297
 Alpha  occ. eigenvalues --  -10.33678 -10.33480 -10.31624 -10.28213 -10.27455
 Alpha  occ. eigenvalues --  -10.27085 -10.26565 -10.26506 -10.25485 -10.25237
 Alpha  occ. eigenvalues --  -10.24871 -10.24731 -10.24508 -10.24081 -10.24056
 Alpha  occ. eigenvalues --  -10.23973 -10.23774 -10.23765 -10.23603 -10.23309
 Alpha  occ. eigenvalues --  -10.23255 -10.23190 -10.23127 -10.23007 -10.22996
 Alpha  occ. eigenvalues --  -10.22974 -10.22898 -10.22730 -10.22667 -10.22648
 Alpha  occ. eigenvalues --  -10.22604 -10.22521 -10.22301 -10.22218 -10.22122
 Alpha  occ. eigenvalues --  -10.21938 -10.21882 -10.21853 -10.21840 -10.21767
 Alpha  occ. eigenvalues --  -10.21593 -10.21567 -10.21420 -10.21269 -10.21257
 Alpha  occ. eigenvalues --  -10.21094 -10.21025 -10.21008 -10.20702 -10.20556
 Alpha  occ. eigenvalues --  -10.20036 -10.19979 -10.19797 -10.19499 -10.18539
 Alpha  occ. eigenvalues --   -3.09311  -1.84262  -1.83767  -1.83724  -1.13197
 Alpha  occ. eigenvalues --   -1.12687  -1.06276  -1.03179  -1.02182  -1.00515
 Alpha  occ. eigenvalues --   -0.99556  -0.98706  -0.97841  -0.87030  -0.86554
 Alpha  occ. eigenvalues --   -0.86083  -0.85245  -0.84826  -0.84629  -0.84547
 Alpha  occ. eigenvalues --   -0.83761  -0.83051  -0.82924  -0.82603  -0.81402
 Alpha  occ. eigenvalues --   -0.80507  -0.79094  -0.78803  -0.78092  -0.77193
 Alpha  occ. eigenvalues --   -0.76920  -0.76874  -0.76094  -0.75539  -0.74409
 Alpha  occ. eigenvalues --   -0.72414  -0.72172  -0.72135  -0.70752  -0.70435
 Alpha  occ. eigenvalues --   -0.70286  -0.70089  -0.69310  -0.68878  -0.67710
 Alpha  occ. eigenvalues --   -0.67317  -0.66451  -0.64741  -0.64507  -0.64382
 Alpha  occ. eigenvalues --   -0.62846  -0.62038  -0.61582  -0.60667  -0.60428
 Alpha  occ. eigenvalues --   -0.59724  -0.59099  -0.58755  -0.58603  -0.58310
 Alpha  occ. eigenvalues --   -0.58132  -0.56759  -0.55677  -0.55602  -0.54989
 Alpha  occ. eigenvalues --   -0.54707  -0.54470  -0.53612  -0.53055  -0.52633
 Alpha  occ. eigenvalues --   -0.52340  -0.51734  -0.51610  -0.51177  -0.50790
 Alpha  occ. eigenvalues --   -0.50469  -0.50184  -0.49917  -0.49502  -0.49370
 Alpha  occ. eigenvalues --   -0.49231  -0.48785  -0.48697  -0.48459  -0.48192
 Alpha  occ. eigenvalues --   -0.47961  -0.47694  -0.47411  -0.47285  -0.47105
 Alpha  occ. eigenvalues --   -0.46711  -0.46389  -0.46294  -0.46115  -0.45690
 Alpha  occ. eigenvalues --   -0.45579  -0.45331  -0.45192  -0.45008  -0.44984
 Alpha  occ. eigenvalues --   -0.44545  -0.44372  -0.44200  -0.43912  -0.43393
 Alpha  occ. eigenvalues --   -0.43328  -0.43141  -0.42935  -0.42720  -0.42475
 Alpha  occ. eigenvalues --   -0.42146  -0.41927  -0.41859  -0.41721  -0.41613
 Alpha  occ. eigenvalues --   -0.41378  -0.41297  -0.41152  -0.41074  -0.41025
 Alpha  occ. eigenvalues --   -0.40644  -0.40408  -0.40251  -0.40089  -0.39986
 Alpha  occ. eigenvalues --   -0.39894  -0.39487  -0.39245  -0.38838  -0.38717
 Alpha  occ. eigenvalues --   -0.38702  -0.38514  -0.38291  -0.38113  -0.38109
 Alpha  occ. eigenvalues --   -0.37656  -0.37554  -0.37523  -0.37218  -0.36926
 Alpha  occ. eigenvalues --   -0.36812  -0.36696  -0.36366  -0.36242  -0.36142
 Alpha  occ. eigenvalues --   -0.35652  -0.35515  -0.35489  -0.35222  -0.34651
 Alpha  occ. eigenvalues --   -0.34291  -0.34050  -0.33967  -0.33936  -0.33802
 Alpha  occ. eigenvalues --   -0.33000  -0.32780  -0.32651  -0.32521  -0.32257
 Alpha  occ. eigenvalues --   -0.32130  -0.31361  -0.30666  -0.30407  -0.30261
 Alpha  occ. eigenvalues --   -0.29959  -0.29633  -0.28834  -0.28267  -0.27706
 Alpha  occ. eigenvalues --   -0.27216  -0.26690  -0.26459  -0.25421  -0.22043
 Alpha  occ. eigenvalues --   -0.18958
 Alpha virt. eigenvalues --   -0.06698  -0.03810  -0.00794   0.01934   0.03771
 Alpha virt. eigenvalues --    0.04353   0.04529   0.04823   0.05119   0.05166
 Alpha virt. eigenvalues --    0.06402   0.07864   0.09116   0.09485   0.09589

 Mulliken charges:
               1
     1  Mg   0.826956
     2  C    0.127806
     3  C   -0.153797
     4  C   -0.190040
     5  C   -0.182921
     6  N   -0.590222
     7  C    0.241574
     8  C   -0.150971
     9  C   -0.183510
    10  C    0.333462
    11  C   -0.318881
    12  C   -0.151696
    13  C   -0.279396
    14  C    0.624216
    15  O   -0.470220
    16  O   -0.494404
    17  N   -0.712082
    18  C    0.340137
    19  C    0.029286
    20  C    0.065532
    21  C    0.273221
    22  C   -0.366154
    23  C   -0.112382
    24  C   -0.237280
    25  N   -0.691824
    26  C    0.351709
    27  C    0.052677
    28  C    0.086448
    29  C    0.272624
    30  C   -0.387711
    31  C   -0.263602
    32  C   -0.287698
    33  N   -0.749845
    34  C    0.273741
    35  C    0.014098
    36  C    0.044672
    37  C    0.305172
    38  C   -0.370542
    39  C    0.351134
    40  O   -0.448496
    41  C   -0.374778
    42  C    0.625364
    43  O   -0.512390
    44  O   -0.434288
    45  C   -0.088406
    46  C    0.017515
    47  C   -0.114284
    48  C    0.097327
    49  C   -0.349277
    50  C   -0.205434
    51  C   -0.173615
    52  C   -0.159587
    53  C   -0.075697
    54  C   -0.310411
    55  C   -0.155971
    56  C   -0.158710
    57  C   -0.176511
    58  C   -0.051875
    59  C   -0.292294
    60  C   -0.152787
    61  C   -0.165611
    62  C   -0.171614
    63  C   -0.054295
    64  C   -0.301195
    65  C   -0.292047
    66  H    0.062260
    67  H    0.091037
    68  H    0.091748
    69  H    0.131957
    70  H    0.105004
    71  H    0.113314
    72  H    0.099544
    73  H    0.145396
    74  H    0.120521
    75  H    0.123368
    76  H    0.148620
    77  H    0.132981
    78  H    0.107852
    79  H    0.097962
    80  H    0.086682
    81  H    0.092048
    82  H    0.092095
    83  H    0.097504
    84  H    0.096699
    85  H    0.105310
    86  H    0.116450
    87  H    0.111860
    88  H    0.076772
    89  H    0.093148
    90  H    0.088833
    91  H    0.108810
    92  H    0.110919
    93  H    0.145955
    94  H    0.143055
    95  H    0.140314
    96  H    0.137827
    97  H    0.130950
    98  H    0.120050
    99  H    0.125067
   100  H    0.119500
   101  H    0.059213
   102  H    0.079441
   103  H    0.116738
   104  H    0.136672
   105  H    0.111371
   106  H    0.096513
   107  H    0.083035
   108  H    0.097307
   109  H    0.087802
   110  H    0.068741
   111  H    0.075567
   112  H    0.109267
   113  H    0.093601
   114  H    0.100551
   115  H    0.063061
   116  H    0.102708
   117  H    0.069449
   118  H    0.086182
   119  H    0.079427
   120  H    0.089149
   121  H    0.098464
   122  H    0.088631
   123  H    0.072080
   124  H    0.116185
   125  H    0.085814
   126  H    0.056248
   127  H    0.082716
   128  H    0.083860
   129  H    0.075973
   130  H    0.059442
   131  H    0.095849
   132  H    0.108466
   133  H    0.071962
   134  H    0.109174
   135  H    0.104609
   136  H    0.071907
   137  H    0.111499
 Sum of Mulliken charges =  -0.00000

 Dipole moment (field-independent basis, Debye):
    X=              1.1445    Y=              3.8889    Z=              0.5462  Tot=              4.0904
 Quadrupole moment (field-independent basis, Debye-Ang):
   XX=           -363.6947   YY=           -394.2398   ZZ=           -398.6626
   XY=            -17.3331   XZ=              5.7289   YZ=             -3.7037

 Normal termination of Gaussian 16 at Tue Sep  3 19:30:38 2019.
