 Gaussian 16, Revision A.03,
 Gaussian 16:  ES64L-G16RevA.03 25-Dec-2016

 ----------------------------------------------------------------------
 # td=(NStates=1) iop(3/107=0140000000,3/108=0140000000) CAM-B3LYP/6-31
 G(d,p)
 ----------------------------------------------------------------------

 --
 TD
 --
 Symbolic Z-matrix:
 Charge =  0 Multiplicity = 1

                         Standard orientation:
 ---------------------------------------------------------------------
 Center     Atomic      Atomic             Coordinates (Angstroms)
 Number     Number       Type             X           Y           Z
 ---------------------------------------------------------------------
      1         12           0       -7.189274    0.591391    0.109464
      2          6           0       -4.829669   -2.029096    0.579739
      3          6           0       -4.713069    2.845499    1.288899
      4          6           0       -9.375600    3.101830   -0.479532
      5          6           0       -9.508166   -1.714035   -0.906484
      6          7           0       -5.092353    0.456090    0.757075
      7          6           0       -4.370037   -0.705327    0.760769
      8          6           0       -2.913403   -0.445334    1.322995
      9          6           0       -3.016601    1.075021    1.774119
     10          6           0       -4.424960    1.466325    1.292355
     11          6           0       -2.769995    1.339109    3.245425
     12          6           0       -1.956851   -0.614390    0.088912
     13          6           0       -0.466215   -0.311658    0.555001
     14          6           0        0.503484   -0.714301   -0.549156
     15          8           0        0.228344   -1.195137   -1.637050
     16          8           0        1.747447   -0.322698   -0.153475
     17          7           0       -7.090385    2.629837    0.274950
     18          6           0       -5.988567    3.374925    0.811004
     19          6           0       -6.315497    4.780737    0.771109
     20          6           0       -7.650524    4.860775    0.401163
     21          6           0       -8.099570    3.524270   -0.006140
     22          6           0       -5.430673    5.907519    1.135004
     23          6           0       -8.524015    5.966041    0.045578
     24          6           0       -8.391678    7.220409    0.520049
     25          7           0       -9.102134    0.646502   -0.623651
     26          6           0       -9.789040    1.791930   -0.767444
     27          6           0      -11.191606    1.499983   -1.091608
     28          6           0      -11.197093    0.228907   -1.317258
     29          6           0       -9.884291   -0.396207   -0.851078
     30          6           0      -12.330168    2.572984   -1.304375
     31          6           0      -12.393184   -0.657310   -1.662695
     32          6           0      -12.209514   -1.199763   -3.137978
     33          7           0       -7.197861   -1.372460   -0.061012
     34          6           0       -8.242210   -2.266051   -0.497828
     35          6           0       -7.772626   -3.578124   -0.562995
     36          6           0       -6.395792   -3.542084   -0.111825
     37          6           0       -6.107477   -2.149407    0.070478
     38          6           0       -8.626213   -4.855779   -0.802809
     39          6           0       -5.229838   -4.348450    0.030931
     40          8           0       -5.185997   -5.592745    0.096089
     41          6           0       -4.138393   -3.362388    0.501197
     42          6           0       -3.509813   -3.758319    1.880129
     43          8           0       -3.758011   -3.087800    2.928382
     44          8           0       -2.702099   -4.797385    1.730672
     45          6           0       -2.167810   -5.180283    3.062256
     46          6           0        2.754388   -0.766434   -1.170981
     47          6           0        4.039550   -0.680229   -0.652299
     48          6           0        5.010014    0.230106   -1.031147
     49          6           0        4.904901    1.231481   -2.202246
     50          6           0        6.312383    0.396761   -0.227939
     51          6           0        7.644448   -0.278957   -0.980165
     52          6           0        8.969880   -0.106185   -0.129503
     53          6           0       10.237167   -0.594678   -0.844401
     54          6           0       10.086593   -2.085153   -1.263651
     55          6           0       11.411401   -0.180187    0.083090
     56          6           0       12.767817   -0.534865   -0.722894
     57          6           0       13.922811    0.027532    0.154727
     58          6           0       15.381885   -0.217650   -0.547049
     59          6           0       15.647234   -1.662589   -0.802925
     60          6           0       16.369980    0.497203    0.417648
     61          6           0       17.752456    0.503629   -0.145011
     62          6           0       18.719954    1.346497    0.713559
     63          6           0       20.114527    1.295909    0.231858
     64          6           0       20.196858    2.024893   -1.173337
     65          6           0       21.037545    2.139636    1.224419
     66          1           0       -3.970593    3.605334    1.689131
     67          1           0      -10.289285    3.721749   -0.510405
     68          1           0      -10.253535   -2.460897   -1.255748
     69          1           0       -2.647433   -1.192336    2.110065
     70          1           0       -2.249181    1.653113    1.302457
     71          1           0       -1.653695    1.211142    3.549020
     72          1           0       -3.172629    2.270588    3.678112
     73          1           0       -3.395634    0.685084    3.853958
     74          1           0       -2.185202   -1.694768   -0.120030
     75          1           0       -2.189916   -0.134071   -0.900815
     76          1           0       -0.396698    0.714540    0.742931
     77          1           0       -0.041700   -0.688842    1.526054
     78          1           0       -5.650579    6.869158    0.560680
     79          1           0       -5.619422    6.289817    2.197002
     80          1           0       -4.442081    5.587713    0.896399
     81          1           0       -9.323760    5.788686   -0.596804
     82          1           0       -9.199461    7.927214    0.072078
     83          1           0       -7.541568    7.683136    1.126108
     84          1           0      -12.164262    3.198215   -2.224815
     85          1           0      -13.249120    1.943217   -1.582195
     86          1           0      -12.380828    3.271319   -0.456347
     87          1           0      -12.545048   -1.424157   -1.051979
     88          1           0      -13.280858   -0.229566   -1.665211
     89          1           0      -12.951247   -2.123871   -3.386202
     90          1           0      -12.262274   -0.379577   -4.006276
     91          1           0      -11.306094   -1.706964   -3.204853
     92          1           0       -9.247333   -5.039712   -1.745995
     93          1           0       -8.144732   -5.789099   -0.749604
     94          1           0       -9.374265   -5.055288   -0.032772
     95          1           0       -3.199726   -3.282523   -0.197243
     96          1           0       -1.521192   -4.305897    3.343365
     97          1           0       -3.035865   -5.161051    3.655027
     98          1           0       -1.614114   -6.068291    2.910773
     99          1           0        2.955433   -1.818046   -1.494004
    100          1           0        2.679351   -0.114514   -2.047689
    101          1           0        4.413721   -1.223831    0.278657
    102          1           0        3.821955    1.239880   -2.689546
    103          1           0        5.078738    2.162842   -1.893919
    104          1           0        5.575835    1.010645   -3.095908
    105          1           0        6.727578    1.412501   -0.038636
    106          1           0        6.088245   -0.283691    0.610064
    107          1           0        7.463999   -1.234936   -1.376193
    108          1           0        7.744816    0.299681   -1.909702
    109          1           0        9.138730    1.006114    0.022751
    110          1           0        8.757964   -0.584915    0.962338
    111          1           0       10.304190    0.049371   -1.847606
    112          1           0        9.207061   -2.217457   -1.730329
    113          1           0       10.914179   -2.372569   -1.910580
    114          1           0       10.213416   -2.682545   -0.318976
    115          1           0       11.366892    0.905724    0.384363
    116          1           0       11.271586   -0.683048    1.071696
    117          1           0       12.828706   -1.661632   -0.750964
    118          1           0       12.711313    0.084652   -1.829777
    119          1           0       13.761556    1.218367    0.318440
    120          1           0       13.864017   -0.536885    1.059717
    121          1           0       15.525949    0.029077   -1.737799
    122          1           0       15.739055   -2.173752    0.081510
    123          1           0       14.966190   -2.280503   -1.616999
    124          1           0       16.651393   -1.996056   -1.233659
    125          1           0       16.100261    1.504811    0.708852
    126          1           0       16.284486   -0.063439    1.479143
    127          1           0       18.208758   -0.532878   -0.323257
    128          1           0       17.675459    0.892107   -1.077862
    129          1           0       18.195172    2.460664    0.865317
    130          1           0       18.851174    1.069250    1.704820
    131          1           0       20.624964    0.400171    0.443056
    132          1           0       19.754928    2.925236   -1.172112
    133          1           0       21.247241    2.215014   -1.436004
    134          1           0       19.750040    1.478753   -2.064141
    135          1           0       20.811462    1.666034    2.291667
    136          1           0       22.204489    2.042907    0.745389
    137          1           0       20.901260    3.165370    1.462013
 ---------------------------------------------------------------------

 SCF Done:  E(RCAM-B3LYP) =  -2933.53976300     A.U. after   16 cycles

 Excitation energies and oscillator strengths:

 Excited State   1:      Singlet-A      1.9835 eV  625.08 nm  f=0.3077  <S**2>=0.000
     240 -> 243        0.22766
     241 -> 242        0.66554
 This state for optimization and/or second-order correction.
 Total Energy, E(TD-HF/TD-DFT) =  -2933.46687100
 Copying the excited state density for this state as the 1-particle RhoCI density.

 The electronic state is 1-A.
 Alpha  occ. eigenvalues --  -46.79729 -19.23522 -19.22516 -19.16840 -19.16796
 Alpha  occ. eigenvalues --  -19.14845 -14.38095 -14.35604 -14.35285 -14.35121
 Alpha  occ. eigenvalues --  -10.35228 -10.34341 -10.29454 -10.26999 -10.26841
 Alpha  occ. eigenvalues --  -10.26510 -10.26315 -10.26214 -10.25595 -10.25034
 Alpha  occ. eigenvalues --  -10.24960 -10.24902 -10.24835 -10.24046 -10.23677
 Alpha  occ. eigenvalues --  -10.23659 -10.23509 -10.23356 -10.23346 -10.23206
 Alpha  occ. eigenvalues --  -10.23002 -10.22968 -10.22967 -10.22955 -10.22844
 Alpha  occ. eigenvalues --  -10.22712 -10.22635 -10.22609 -10.22549 -10.22527
 Alpha  occ. eigenvalues --  -10.22502 -10.22402 -10.22261 -10.22253 -10.22198
 Alpha  occ. eigenvalues --  -10.22149 -10.22115 -10.22022 -10.21789 -10.21719
 Alpha  occ. eigenvalues --  -10.21710 -10.21667 -10.21607 -10.21577 -10.21410
 Alpha  occ. eigenvalues --  -10.21374 -10.21188 -10.21123 -10.20744 -10.20709
 Alpha  occ. eigenvalues --  -10.20525 -10.20185 -10.19827 -10.19722 -10.19607
 Alpha  occ. eigenvalues --   -3.08383  -1.83323  -1.82862  -1.82782  -1.13342
 Alpha  occ. eigenvalues --   -1.12053  -1.03717  -1.03405  -1.02642  -0.99972
 Alpha  occ. eigenvalues --   -0.99181  -0.97251  -0.96517  -0.87670  -0.85665
 Alpha  occ. eigenvalues --   -0.85134  -0.83956  -0.83914  -0.83840  -0.83545
 Alpha  occ. eigenvalues --   -0.83399  -0.82634  -0.82155  -0.81314  -0.80385
 Alpha  occ. eigenvalues --   -0.79599  -0.78517  -0.78422  -0.77884  -0.77517
 Alpha  occ. eigenvalues --   -0.76692  -0.75985  -0.75399  -0.74490  -0.73189
 Alpha  occ. eigenvalues --   -0.72839  -0.72203  -0.71875  -0.71284  -0.70974
 Alpha  occ. eigenvalues --   -0.70912  -0.70257  -0.69379  -0.68710  -0.67107
 Alpha  occ. eigenvalues --   -0.66769  -0.65873  -0.65465  -0.64044  -0.63857
 Alpha  occ. eigenvalues --   -0.62088  -0.61849  -0.60818  -0.60715  -0.59807
 Alpha  occ. eigenvalues --   -0.59440  -0.59179  -0.59008  -0.58509  -0.58040
 Alpha  occ. eigenvalues --   -0.56959  -0.56607  -0.56046  -0.55732  -0.55233
 Alpha  occ. eigenvalues --   -0.54786  -0.54321  -0.53836  -0.52829  -0.52230
 Alpha  occ. eigenvalues --   -0.52174  -0.51445  -0.51124  -0.50932  -0.50778
 Alpha  occ. eigenvalues --   -0.50279  -0.50179  -0.49554  -0.49401  -0.49041
 Alpha  occ. eigenvalues --   -0.48855  -0.48405  -0.48159  -0.47935  -0.47787
 Alpha  occ. eigenvalues --   -0.47096  -0.47006  -0.46791  -0.46620  -0.46317
 Alpha  occ. eigenvalues --   -0.46147  -0.45969  -0.45691  -0.45524  -0.45453
 Alpha  occ. eigenvalues --   -0.45258  -0.45112  -0.44922  -0.44804  -0.44454
 Alpha  occ. eigenvalues --   -0.44373  -0.44063  -0.43954  -0.43643  -0.43354
 Alpha  occ. eigenvalues --   -0.43088  -0.42837  -0.42707  -0.42458  -0.42204
 Alpha  occ. eigenvalues --   -0.42124  -0.41939  -0.41893  -0.41534  -0.41235
 Alpha  occ. eigenvalues --   -0.41144  -0.40997  -0.40811  -0.40617  -0.40412
 Alpha  occ. eigenvalues --   -0.40279  -0.40044  -0.39836  -0.39760  -0.39656
 Alpha  occ. eigenvalues --   -0.39466  -0.39257  -0.39062  -0.38856  -0.38760
 Alpha  occ. eigenvalues --   -0.38620  -0.38463  -0.38329  -0.38219  -0.37737
 Alpha  occ. eigenvalues --   -0.37688  -0.37664  -0.37511  -0.37433  -0.37099
 Alpha  occ. eigenvalues --   -0.37023  -0.36694  -0.36617  -0.36150  -0.35786
 Alpha  occ. eigenvalues --   -0.35655  -0.35433  -0.35346  -0.35153  -0.34835
 Alpha  occ. eigenvalues --   -0.34345  -0.34220  -0.33803  -0.33530  -0.33309
 Alpha  occ. eigenvalues --   -0.33206  -0.33191  -0.32972  -0.32935  -0.32593
 Alpha  occ. eigenvalues --   -0.32256  -0.32093  -0.31896  -0.30538  -0.30121
 Alpha  occ. eigenvalues --   -0.29804  -0.29698  -0.28839  -0.28607  -0.27491
 Alpha  occ. eigenvalues --   -0.26221  -0.26103  -0.25470  -0.24765  -0.21621
 Alpha  occ. eigenvalues --   -0.20114
 Alpha virt. eigenvalues --   -0.07674  -0.03374  -0.00496   0.02268   0.02733
 Alpha virt. eigenvalues --    0.03485   0.04289   0.04660   0.05629   0.05733
 Alpha virt. eigenvalues --    0.06156   0.09103   0.09609   0.09697   0.10175

 Mulliken charges:
               1
     1  Mg   0.819852
     2  C    0.143868
     3  C   -0.183185
     4  C   -0.160551
     5  C   -0.169215
     6  N   -0.608231
     7  C    0.236834
     8  C   -0.166509
     9  C   -0.127493
    10  C    0.336444
    11  C   -0.323995
    12  C   -0.172096
    13  C   -0.279584
    14  C    0.622766
    15  O   -0.472518
    16  O   -0.472499
    17  N   -0.709291
    18  C    0.295372
    19  C    0.030556
    20  C    0.016029
    21  C    0.298856
    22  C   -0.381840
    23  C   -0.063158
    24  C   -0.248422
    25  N   -0.690736
    26  C    0.300985
    27  C    0.023267
    28  C    0.008548
    29  C    0.310968
    30  C   -0.372900
    31  C   -0.225783
    32  C   -0.321576
    33  N   -0.737780
    34  C    0.263006
    35  C    0.026372
    36  C    0.002918
    37  C    0.299588
    38  C   -0.401829
    39  C    0.359351
    40  O   -0.481384
    41  C   -0.349141
    42  C    0.636784
    43  O   -0.499655
    44  O   -0.429620
    45  C   -0.091385
    46  C    0.027684
    47  C   -0.154684
    48  C    0.124862
    49  C   -0.366012
    50  C   -0.227046
    51  C   -0.207246
    52  C   -0.156135
    53  C   -0.045369
    54  C   -0.307872
    55  C   -0.179444
    56  C   -0.168807
    57  C   -0.163668
    58  C   -0.047097
    59  C   -0.313640
    60  C   -0.159707
    61  C   -0.166413
    62  C   -0.144626
    63  C   -0.053866
    64  C   -0.310780
    65  C   -0.311944
    66  H    0.097228
    67  H    0.078982
    68  H    0.095545
    69  H    0.127191
    70  H    0.106220
    71  H    0.093340
    72  H    0.106017
    73  H    0.123746
    74  H    0.099302
    75  H    0.125526
    76  H    0.146440
    77  H    0.130777
    78  H    0.117326
    79  H    0.124283
    80  H    0.117580
    81  H    0.096880
    82  H    0.083084
    83  H    0.098599
    84  H    0.126612
    85  H    0.115608
    86  H    0.129348
    87  H    0.116566
    88  H    0.105283
    89  H    0.071970
    90  H    0.096764
    91  H    0.125703
    92  H    0.105506
    93  H    0.150332
    94  H    0.126010
    95  H    0.157045
    96  H    0.129755
    97  H    0.158461
    98  H    0.137221
    99  H    0.137148
   100  H    0.117937
   101  H    0.080058
   102  H    0.086032
   103  H    0.133018
   104  H    0.116217
   105  H    0.107656
   106  H    0.094145
   107  H    0.103530
   108  H    0.089131
   109  H    0.081791
   110  H    0.066556
   111  H    0.062718
   112  H    0.114994
   113  H    0.104156
   114  H    0.094687
   115  H    0.087928
   116  H    0.087924
   117  H    0.106361
   118  H    0.067630
   119  H    0.074551
   120  H    0.104426
   121  H    0.063191
   122  H    0.104651
   123  H    0.083354
   124  H    0.092795
   125  H    0.096605
   126  H    0.064019
   127  H    0.081930
   128  H    0.111336
   129  H    0.052537
   130  H    0.087531
   131  H    0.110145
   132  H    0.120677
   133  H    0.090032
   134  H    0.089319
   135  H    0.073383
   136  H    0.065677
   137  H    0.113790
 Sum of Mulliken charges =  -0.00000

 Dipole moment (field-independent basis, Debye):
    X=              1.8274    Y=              4.3513    Z=              1.1115  Tot=              4.8486
 Quadrupole moment (field-independent basis, Debye-Ang):
   XX=           -347.9791   YY=           -393.7621   ZZ=           -397.1848
   XY=            -27.0601   XZ=              8.2973   YZ=             -5.6076

 Normal termination of Gaussian 16 at Tue Sep 10 01:04:58 2019.
