 Gaussian 16, Revision A.03,
 Gaussian 16:  ES64L-G16RevA.03 25-Dec-2016

 ----------------------------------------------------------------------
 # td=(NStates=1) iop(3/107=0140000000,3/108=0140000000) CAM-B3LYP/6-31
 G(d,p)
 ----------------------------------------------------------------------

 --
 TD
 --
 Symbolic Z-matrix:
 Charge =  0 Multiplicity = 1

                         Standard orientation:
 ---------------------------------------------------------------------
 Center     Atomic      Atomic             Coordinates (Angstroms)
 Number     Number       Type             X           Y           Z
 ---------------------------------------------------------------------
      1         12           0       -7.151213    0.571748    0.013191
      2          6           0       -4.897186   -1.973207    0.577326
      3          6           0       -4.773213    2.799078    1.150033
      4          6           0       -9.437907    3.115383   -0.474255
      5          6           0       -9.570788   -1.674635   -0.873274
      6          7           0       -5.185988    0.410370    0.689970
      7          6           0       -4.384697   -0.756787    0.843718
      8          6           0       -2.866601   -0.360539    1.201591
      9          6           0       -3.003514    1.061834    1.698258
     10          6           0       -4.461407    1.506651    1.124722
     11          6           0       -2.958922    1.128241    3.230136
     12          6           0       -1.936377   -0.381498   -0.005774
     13          6           0       -0.467536   -0.324909    0.477165
     14          6           0        0.510879   -0.743229   -0.518593
     15          8           0        0.267578   -1.173785   -1.688299
     16          8           0        1.744263   -0.537779   -0.250969
     17          7           0       -7.130247    2.588957    0.340141
     18          6           0       -6.086750    3.365365    0.803864
     19          6           0       -6.421055    4.682400    0.750205
     20          6           0       -7.764005    4.841112    0.393550
     21          6           0       -8.137962    3.451362   -0.071282
     22          6           0       -5.639044    5.896033    1.204299
     23          6           0       -8.606759    6.024641    0.139059
     24          6           0       -8.370744    7.200933    0.761623
     25          7           0       -9.072955    0.723697   -0.584930
     26          6           0       -9.940972    1.790664   -0.678495
     27          6           0      -11.265871    1.477466   -1.135766
     28          6           0      -11.245870    0.109851   -1.253252
     29          6           0       -9.969897   -0.315305   -0.881607
     30          6           0      -12.281487    2.543959   -1.276675
     31          6           0      -12.396729   -0.858154   -1.665036
     32          6           0      -12.214438   -1.303574   -3.210365
     33          7           0       -7.244570   -1.392138   -0.157941
     34          6           0       -8.361471   -2.215255   -0.422016
     35          6           0       -7.854792   -3.561969   -0.667731
     36          6           0       -6.479825   -3.572123   -0.292985
     37          6           0       -6.189692   -2.185579    0.010750
     38          6           0       -8.627457   -4.723569   -1.094191
     39          6           0       -5.350084   -4.394149    0.323371
     40          8           0       -5.159477   -5.554917    0.381831
     41          6           0       -4.138361   -3.390152    0.635923
     42          6           0       -3.613816   -3.625717    1.925675
     43          8           0       -3.690515   -3.100820    3.015955
     44          8           0       -2.758985   -4.693956    1.799090
     45          6           0       -2.128697   -5.207678    3.016984
     46          6           0        2.847685   -0.827527   -1.200596
     47          6           0        4.093252   -0.551595   -0.509407
     48          6           0        5.036059    0.299733   -0.918024
     49          6           0        4.987890    1.128204   -2.229813
     50          6           0        6.372512    0.386254   -0.184956
     51          6           0        7.628959    0.013356   -0.968114
     52          6           0        8.907092    0.040560   -0.174537
     53          6           0       10.185506   -0.483283   -0.909378
     54          6           0       10.173063   -1.961655   -1.241544
     55          6           0       11.444020   -0.170563   -0.066148
     56          6           0       12.806999   -0.438321   -0.781060
     57          6           0       14.021973   -0.097954    0.164517
     58          6           0       15.418197   -0.264243   -0.405695
     59          6           0       15.717837   -1.656051   -0.859864
     60          6           0       16.446009    0.390679    0.550230
     61          6           0       17.848461    0.630450   -0.199695
     62          6           0       18.971640    1.169053    0.862853
     63          6           0       20.326464    1.362675    0.209687
     64          6           0       20.329253    2.073735   -1.204290
     65          6           0       21.255179    1.916141    1.269643
     66          1           0       -4.108564    3.788905    1.340510
     67          1           0       -9.985712    4.164396   -0.659477
     68          1           0      -10.444760   -2.313202   -1.147573
     69          1           0       -2.557306   -0.995947    2.000868
     70          1           0       -2.287397    1.588151    1.135231
     71          1           0       -1.976797    0.691576    3.696840
     72          1           0       -3.110093    2.049273    3.671854
     73          1           0       -3.866612    0.533528    3.686865
     74          1           0       -2.253141   -1.457804   -0.444489
     75          1           0       -1.943274    0.405758   -0.747080
     76          1           0       -0.171056    0.682153    0.673956
     77          1           0       -0.254297   -0.871449    1.147321
     78          1           0       -5.982759    6.972367    0.772672
     79          1           0       -5.522553    6.065659    2.335957
     80          1           0       -4.617464    5.740669    0.784647
     81          1           0       -9.191280    6.015044   -0.701300
     82          1           0       -8.912218    8.007156    0.623471
     83          1           0       -7.575938    7.201168    1.672844
     84          1           0      -12.057375    3.120810   -2.294287
     85          1           0      -13.279284    2.302813   -1.252421
     86          1           0      -12.129476    3.149475   -0.309912
     87          1           0      -12.166589   -1.638790   -0.842495
     88          1           0      -13.321887   -0.654303   -1.405088
     89          1           0      -13.127758   -1.770842   -3.484553
     90          1           0      -12.172337   -0.351627   -3.887200
     91          1           0      -11.323338   -1.915848   -3.325392
     92          1           0       -9.015293   -4.505360   -2.063162
     93          1           0       -8.092117   -5.522229   -1.099853
     94          1           0       -9.407666   -4.676014   -0.333396
     95          1           0       -3.505211   -3.740644   -0.145677
     96          1           0       -1.535411   -4.405391    3.607837
     97          1           0       -2.929376   -5.621663    3.582398
     98          1           0       -1.236554   -6.037963    2.744978
     99          1           0        2.824704   -1.877028   -1.374535
    100          1           0        2.652984   -0.211077   -2.202483
    101          1           0        4.072682   -1.105112    0.330334
    102          1           0        4.098456    1.080127   -2.703809
    103          1           0        5.039606    2.179740   -1.969459
    104          1           0        5.913808    0.656334   -3.093315
    105          1           0        6.299923    1.333637    0.196314
    106          1           0        6.342288   -0.242223    0.796394
    107          1           0        7.199832   -1.027468   -1.536408
    108          1           0        7.529445    0.654035   -1.857482
    109          1           0        9.262742    1.180541    0.209530
    110          1           0        8.760637   -0.743873    0.592327
    111          1           0       10.231610    0.270616   -1.774548
    112          1           0        9.275052   -2.347219   -1.944055
    113          1           0       11.169801   -2.269187   -1.943423
    114          1           0       10.303388   -2.726821   -0.399491
    115          1           0       11.423342    0.892289    0.088336
    116          1           0       11.406818   -0.677142    0.850862
    117          1           0       13.079196   -1.362361   -1.065551
    118          1           0       12.805364    0.383186   -1.476166
    119          1           0       13.857049    0.938524    0.585820
    120          1           0       13.909151   -0.484640    1.246175
    121          1           0       15.281210    0.328819   -1.355296
    122          1           0       15.959274   -2.393042    0.104504
    123          1           0       15.060245   -2.015837   -1.518864
    124          1           0       16.748089   -1.551613   -1.341070
    125          1           0       15.972587    1.372662    0.832086
    126          1           0       16.570860   -0.109095    1.336872
    127          1           0       18.269592   -0.308742   -0.514823
    128          1           0       17.669879    1.277921   -1.152334
    129          1           0       18.394598    2.096509    1.163080
    130          1           0       18.968286    0.614353    1.832268
    131          1           0       20.535097    0.356905   -0.174351
    132          1           0       19.827084    3.073382   -1.186786
    133          1           0       21.249317    2.311240   -1.505358
    134          1           0       19.718130    1.368220   -1.916141
    135          1           0       21.142128    1.121271    2.040773
    136          1           0       22.474687    2.065921    1.080210
    137          1           0       20.879896    2.889761    1.450559
 ---------------------------------------------------------------------

 SCF Done:  E(RCAM-B3LYP) =  -2933.40214260     A.U. after   15 cycles

 Excitation energies and oscillator strengths:

 Excited State   1:      Singlet-A      2.0763 eV  597.13 nm  f=0.2326  <S**2>=0.000
     240 -> 243        0.24332
     241 -> 242        0.65726
 This state for optimization and/or second-order correction.
 Total Energy, E(TD-HF/TD-DFT) =  -2933.32583905
 Copying the excited state density for this state as the 1-particle RhoCI density.

 The electronic state is 1-A.
 Alpha  occ. eigenvalues --  -46.78514 -19.21086 -19.19773 -19.16722 -19.15520
 Alpha  occ. eigenvalues --  -19.12891 -14.36917 -14.35436 -14.35089 -14.34745
 Alpha  occ. eigenvalues --  -10.33119 -10.32494 -10.31313 -10.27612 -10.27431
 Alpha  occ. eigenvalues --  -10.25938 -10.25830 -10.25059 -10.24970 -10.24753
 Alpha  occ. eigenvalues --  -10.24694 -10.24672 -10.24341 -10.24180 -10.23960
 Alpha  occ. eigenvalues --  -10.23753 -10.23650 -10.23631 -10.23394 -10.23204
 Alpha  occ. eigenvalues --  -10.23172 -10.22921 -10.22894 -10.22866 -10.22826
 Alpha  occ. eigenvalues --  -10.22696 -10.22663 -10.22575 -10.22546 -10.22479
 Alpha  occ. eigenvalues --  -10.22333 -10.22151 -10.22076 -10.22069 -10.22042
 Alpha  occ. eigenvalues --  -10.21977 -10.21868 -10.21860 -10.21853 -10.21700
 Alpha  occ. eigenvalues --  -10.21497 -10.21432 -10.21362 -10.21342 -10.21247
 Alpha  occ. eigenvalues --  -10.21223 -10.20666 -10.20661 -10.20543 -10.20507
 Alpha  occ. eigenvalues --  -10.20277 -10.20087 -10.20004 -10.19950 -10.19911
 Alpha  occ. eigenvalues --   -3.07361  -1.82286  -1.81838  -1.81788  -1.13262
 Alpha  occ. eigenvalues --   -1.11313  -1.08704  -1.02068  -0.98931  -0.98612
 Alpha  occ. eigenvalues --   -0.97806  -0.97248  -0.95493  -0.86539  -0.86418
 Alpha  occ. eigenvalues --   -0.85596  -0.85204  -0.84174  -0.83870  -0.83753
 Alpha  occ. eigenvalues --   -0.83255  -0.83218  -0.82793  -0.81838  -0.81652
 Alpha  occ. eigenvalues --   -0.80345  -0.79632  -0.78810  -0.78143  -0.77629
 Alpha  occ. eigenvalues --   -0.76357  -0.76152  -0.75248  -0.74879  -0.73876
 Alpha  occ. eigenvalues --   -0.73337  -0.71825  -0.71476  -0.71446  -0.70695
 Alpha  occ. eigenvalues --   -0.70599  -0.70405  -0.69303  -0.68698  -0.67988
 Alpha  occ. eigenvalues --   -0.67213  -0.65991  -0.65750  -0.64836  -0.63750
 Alpha  occ. eigenvalues --   -0.62842  -0.62347  -0.61328  -0.61084  -0.60041
 Alpha  occ. eigenvalues --   -0.58878  -0.58421  -0.58396  -0.58317  -0.57612
 Alpha  occ. eigenvalues --   -0.57551  -0.57015  -0.56435  -0.56088  -0.54742
 Alpha  occ. eigenvalues --   -0.54446  -0.53867  -0.53703  -0.53293  -0.52942
 Alpha  occ. eigenvalues --   -0.51844  -0.51679  -0.51260  -0.51004  -0.50620
 Alpha  occ. eigenvalues --   -0.50249  -0.49907  -0.49798  -0.49652  -0.48982
 Alpha  occ. eigenvalues --   -0.48664  -0.48531  -0.48341  -0.48049  -0.47851
 Alpha  occ. eigenvalues --   -0.47555  -0.47445  -0.47312  -0.46889  -0.46616
 Alpha  occ. eigenvalues --   -0.46446  -0.46220  -0.46063  -0.45661  -0.45328
 Alpha  occ. eigenvalues --   -0.45192  -0.45044  -0.44973  -0.44872  -0.44661
 Alpha  occ. eigenvalues --   -0.44521  -0.44296  -0.43918  -0.43736  -0.43722
 Alpha  occ. eigenvalues --   -0.43615  -0.43354  -0.43155  -0.42980  -0.42847
 Alpha  occ. eigenvalues --   -0.42549  -0.41986  -0.41861  -0.41645  -0.41117
 Alpha  occ. eigenvalues --   -0.41004  -0.40798  -0.40662  -0.40526  -0.40465
 Alpha  occ. eigenvalues --   -0.40361  -0.40049  -0.40011  -0.39820  -0.39648
 Alpha  occ. eigenvalues --   -0.39488  -0.39193  -0.39054  -0.39014  -0.38868
 Alpha  occ. eigenvalues --   -0.38720  -0.38450  -0.38274  -0.38085  -0.37903
 Alpha  occ. eigenvalues --   -0.37807  -0.37457  -0.37202  -0.37139  -0.36847
 Alpha  occ. eigenvalues --   -0.36785  -0.36393  -0.35934  -0.35865  -0.35729
 Alpha  occ. eigenvalues --   -0.35364  -0.34987  -0.34780  -0.34368  -0.34284
 Alpha  occ. eigenvalues --   -0.34148  -0.33987  -0.33640  -0.33407  -0.32872
 Alpha  occ. eigenvalues --   -0.32846  -0.32546  -0.32362  -0.32358  -0.31889
 Alpha  occ. eigenvalues --   -0.31762  -0.31327  -0.30636  -0.30408  -0.30347
 Alpha  occ. eigenvalues --   -0.29576  -0.29278  -0.28832  -0.28133  -0.26867
 Alpha  occ. eigenvalues --   -0.26681  -0.26460  -0.26037  -0.24940  -0.21532
 Alpha  occ. eigenvalues --   -0.20598
 Alpha virt. eigenvalues --   -0.07286  -0.03955   0.00670   0.02161   0.03560
 Alpha virt. eigenvalues --    0.03695   0.04938   0.05280   0.05890   0.06363
 Alpha virt. eigenvalues --    0.06708   0.08723   0.09041   0.09283   0.09660

 Mulliken charges:
               1
     1  Mg   0.803252
     2  C    0.022859
     3  C   -0.179584
     4  C   -0.169084
     5  C   -0.172489
     6  N   -0.627854
     7  C    0.280059
     8  C   -0.132722
     9  C   -0.110450
    10  C    0.324056
    11  C   -0.312595
    12  C   -0.165891
    13  C   -0.208983
    14  C    0.542035
    15  O   -0.530636
    16  O   -0.447732
    17  N   -0.700731
    18  C    0.337304
    19  C    0.010070
    20  C    0.009114
    21  C    0.257512
    22  C   -0.391638
    23  C   -0.065014
    24  C   -0.236324
    25  N   -0.665170
    26  C    0.270570
    27  C    0.049732
    28  C    0.005779
    29  C    0.304858
    30  C   -0.365760
    31  C   -0.231421
    32  C   -0.310108
    33  N   -0.715676
    34  C    0.259954
    35  C   -0.040478
    36  C   -0.019890
    37  C    0.309191
    38  C   -0.344327
    39  C    0.359968
    40  O   -0.415187
    41  C   -0.300804
    42  C    0.649426
    43  O   -0.492093
    44  O   -0.472082
    45  C   -0.069008
    46  C    0.014553
    47  C   -0.094350
    48  C    0.086633
    49  C   -0.336227
    50  C   -0.207061
    51  C   -0.165748
    52  C   -0.154549
    53  C   -0.044977
    54  C   -0.304258
    55  C   -0.178046
    56  C   -0.170155
    57  C   -0.198234
    58  C   -0.046599
    59  C   -0.289440
    60  C   -0.163331
    61  C   -0.205503
    62  C   -0.177775
    63  C   -0.062401
    64  C   -0.309993
    65  C   -0.289882
    66  H    0.077435
    67  H    0.082971
    68  H    0.084837
    69  H    0.125121
    70  H    0.094414
    71  H    0.093967
    72  H    0.117590
    73  H    0.115155
    74  H    0.104390
    75  H    0.120221
    76  H    0.137354
    77  H    0.126399
    78  H    0.111521
    79  H    0.118273
    80  H    0.103746
    81  H    0.106868
    82  H    0.098449
    83  H    0.099769
    84  H    0.110627
    85  H    0.122131
    86  H    0.120144
    87  H    0.094202
    88  H    0.108731
    89  H    0.116267
    90  H    0.106075
    91  H    0.120259
    92  H    0.128575
    93  H    0.139604
    94  H    0.130338
    95  H    0.183834
    96  H    0.115700
    97  H    0.140523
    98  H    0.096363
    99  H    0.134818
   100  H    0.113755
   101  H    0.091751
   102  H    0.119251
   103  H    0.124681
   104  H    0.080751
   105  H    0.111926
   106  H    0.077617
   107  H    0.069742
   108  H    0.098059
   109  H    0.073075
   110  H    0.098035
   111  H    0.076223
   112  H    0.089641
   113  H    0.076057
   114  H    0.106438
   115  H    0.086936
   116  H    0.096419
   117  H    0.105848
   118  H    0.100467
   119  H    0.067893
   120  H    0.063132
   121  H    0.074958
   122  H    0.068994
   123  H    0.114343
   124  H    0.094108
   125  H    0.086494
   126  H    0.102314
   127  H    0.099427
   128  H    0.092809
   129  H    0.084546
   130  H    0.090938
   131  H    0.091378
   132  H    0.088450
   133  H    0.115437
   134  H    0.089663
   135  H    0.103950
   136  H    0.065781
   137  H    0.117380
 Sum of Mulliken charges =  -0.00000

 Dipole moment (field-independent basis, Debye):
    X=             -0.1942    Y=              4.7336    Z=             -0.5065  Tot=              4.7646
 Quadrupole moment (field-independent basis, Debye-Ang):
   XX=           -316.0430   YY=           -389.7613   ZZ=           -399.6193
   XY=            -19.3967   XZ=             19.7035   YZ=             -1.5159

 Normal termination of Gaussian 16 at Sun Sep 22 08:20:13 2019.
