 Gaussian 09, Revision D.01,
 Gaussian 09:  ES64L-G09RevD.01 24-Apr-2013

 -------------------------------------
 # td=(NStates=1) CAM-B3LYP/6-31G(d,p)
 -------------------------------------

 --
 TD
 --
 Symbolic Z-matrix:
 Charge =  0 Multiplicity = 1

                         Standard orientation:
 ---------------------------------------------------------------------
 Center     Atomic      Atomic             Coordinates (Angstroms)
 Number     Number       Type             X           Y           Z
 ---------------------------------------------------------------------
      1         12           0       -7.141252    0.639720   -0.022706
      2          6           0       -4.877749   -1.905346    0.562883
      3          6           0       -4.799909    2.794014    1.077902
      4          6           0       -9.437215    3.110490   -0.446914
      5          6           0       -9.500003   -1.781337   -0.803884
      6          7           0       -5.081565    0.493654    0.661903
      7          6           0       -4.354425   -0.724573    0.762447
      8          6           0       -2.845014   -0.319770    1.229606
      9          6           0       -3.030151    1.106268    1.659175
     10          6           0       -4.363046    1.541605    1.121953
     11          6           0       -2.818767    1.387364    3.190925
     12          6           0       -1.850451   -0.566295    0.165629
     13          6           0       -0.390343   -0.442383    0.602952
     14          6           0        0.619318   -0.741890   -0.508523
     15          8           0        0.391647   -1.221722   -1.610706
     16          8           0        1.890290   -0.381909   -0.108881
     17          7           0       -7.100556    2.573349    0.248619
     18          6           0       -6.035588    3.359933    0.720621
     19          6           0       -6.462833    4.777087    0.779745
     20          6           0       -7.742923    4.787272    0.314788
     21          6           0       -8.153655    3.478587    0.051823
     22          6           0       -5.627960    5.973343    1.287880
     23          6           0       -8.715908    5.905091    0.162644
     24          6           0       -8.633021    7.012031    0.874388
     25          7           0       -9.072606    0.657832   -0.668736
     26          6           0       -9.906228    1.763863   -0.709402
     27          6           0      -11.312730    1.492706   -1.094475
     28          6           0      -11.295854    0.058664   -1.297103
     29          6           0       -9.951411   -0.392293   -0.935917
     30          6           0      -12.350672    2.433130   -1.426636
     31          6           0      -12.416920   -0.762263   -1.700331
     32          6           0      -12.481189   -1.081723   -3.306355
     33          7           0       -7.228303   -1.409970   -0.253031
     34          6           0       -8.224055   -2.237394   -0.511880
     35          6           0       -7.782189   -3.605178   -0.517992
     36          6           0       -6.469389   -3.567059   -0.125274
     37          6           0       -6.208811   -2.257636    0.072956
     38          6           0       -8.780440   -4.783269   -0.681258
     39          6           0       -5.230715   -4.382973    0.318090
     40          8           0       -5.092441   -5.567409    0.135857
     41          6           0       -4.158474   -3.323608    0.594006
     42          6           0       -3.534853   -3.729864    1.918391
     43          8           0       -3.714487   -3.066793    2.954969
     44          8           0       -2.706184   -4.770656    1.658345
     45          6           0       -2.109558   -5.283526    2.896042
     46          6           0        2.854652   -0.680180   -1.131939
     47          6           0        4.134499   -0.446384   -0.506863
     48          6           0        5.140041    0.323280   -0.945094
     49          6           0        5.008131    1.264228   -2.148115
     50          6           0        6.424159    0.552741   -0.202786
     51          6           0        7.684878   -0.083025   -0.941087
     52          6           0        8.938249   -0.066179   -0.068831
     53          6           0       10.161600   -0.548733   -0.843777
     54          6           0       10.034826   -2.042561   -1.266061
     55          6           0       11.505338   -0.371862   -0.037747
     56          6           0       12.813036   -0.524819   -0.778565
     57          6           0       13.969134   -0.121101    0.107309
     58          6           0       15.383712   -0.305474   -0.488568
     59          6           0       15.871316   -1.666735   -0.777639
     60          6           0       16.403362    0.369356    0.444678
     61          6           0       17.796583    0.608617   -0.257451
     62          6           0       18.823923    1.304718    0.681253
     63          6           0       20.245717    1.336024    0.207991
     64          6           0       20.370138    2.266613   -1.130140
     65          6           0       21.091456    1.932769    1.245610
     66          1           0       -4.245219    3.542470    1.553220
     67          1           0      -10.254704    3.705140   -0.714634
     68          1           0      -10.234803   -2.467470   -1.127549
     69          1           0       -2.804623   -0.950274    2.146235
     70          1           0       -2.397887    1.848651    1.048242
     71          1           0       -1.625079    1.020614    3.257848
     72          1           0       -2.841138    2.417085    3.528059
     73          1           0       -3.395768    0.736969    4.080209
     74          1           0       -2.147881   -1.524405   -0.229886
     75          1           0       -1.972222    0.211422   -0.693250
     76          1           0       -0.178557    0.556391    1.101002
     77          1           0       -0.276138   -1.166904    1.464576
     78          1           0       -6.121178    6.873287    0.672851
     79          1           0       -5.903220    6.225560    2.250992
     80          1           0       -4.442891    5.811463    1.150813
     81          1           0       -9.510348    5.853114   -0.517874
     82          1           0       -9.392839    7.797467    0.721598
     83          1           0       -7.939192    7.088043    1.744806
     84          1           0      -11.956061    3.101006   -2.148582
     85          1           0      -13.284435    2.015608   -1.923086
     86          1           0      -12.641820    2.936199   -0.536147
     87          1           0      -12.473161   -1.744373   -1.377006
     88          1           0      -13.276721   -0.112409   -1.322339
     89          1           0      -13.533590   -1.537323   -3.351298
     90          1           0      -12.540617   -0.127392   -3.741620
     91          1           0      -11.625215   -1.669901   -3.739731
     92          1           0       -9.263487   -4.811646   -1.599628
     93          1           0       -8.213656   -5.680759   -0.621015
     94          1           0       -9.522866   -4.778086   -0.003684
     95          1           0       -3.383232   -3.410167   -0.099742
     96          1           0       -1.385124   -4.660787    3.306387
     97          1           0       -3.009692   -5.624544    3.521511
     98          1           0       -1.522427   -6.250723    2.599392
     99          1           0        2.852651   -1.716813   -1.453578
    100          1           0        2.635892   -0.084654   -2.077303
    101          1           0        4.238854   -0.931746    0.410446
    102          1           0        3.931825    1.049157   -2.459575
    103          1           0        5.206336    2.405424   -1.749436
    104          1           0        5.796452    1.100928   -2.981694
    105          1           0        6.507749    1.496822   -0.081891
    106          1           0        6.331466    0.012549    0.828675
    107          1           0        7.627061   -1.198370   -1.072978
    108          1           0        7.868050    0.383936   -2.081167
    109          1           0        9.000972    0.976737    0.102835
    110          1           0        8.867921   -0.750069    0.780636
    111          1           0       10.254695   -0.129764   -1.871723
    112          1           0        9.242661   -2.266588   -1.999393
    113          1           0       11.099049   -2.238982   -1.669700
    114          1           0        9.860832   -2.610847   -0.161700
    115          1           0       11.624097    0.619325    0.388574
    116          1           0       11.507314   -0.859035    0.797787
    117          1           0       12.794860   -1.544684   -1.103841
    118          1           0       12.849008    0.087670   -1.701375
    119          1           0       13.862907    0.827673    0.281035
    120          1           0       14.031757   -0.668906    1.163360
    121          1           0       15.361467    0.386793   -1.393118
    122          1           0       15.768307   -2.429999   -0.003777
    123          1           0       15.036415   -2.006012   -1.481777
    124          1           0       16.762289   -1.851930   -1.070736
    125          1           0       16.067763    1.586013    0.497369
    126          1           0       16.398650   -0.198951    1.263326
    127          1           0       18.159171   -0.351036   -0.353591
    128          1           0       17.802332    1.175482   -1.285581
    129          1           0       18.420075    2.288929    0.788154
    130          1           0       18.629382    1.109307    1.721052
    131          1           0       20.588362    0.488398   -0.351576
    132          1           0       19.878407    3.285446   -0.975490
    133          1           0       21.446115    2.385480   -1.284741
    134          1           0       19.793520    2.050554   -2.178015
    135          1           0       21.164242    1.125516    2.037508
    136          1           0       22.106783    2.098423    0.861317
    137          1           0       20.336015    2.695546    1.869032
 ---------------------------------------------------------------------

 SCF Done:  E(RCAM-B3LYP) =  -2932.67626801     A.U. after   17 cycles

 Excitation energies and oscillator strengths:

 Excited State   1:      Singlet-A      2.0661 eV  600.10 nm  f=0.2408  <S**2>=0.000
     240 -> 243       -0.23824
     241 -> 242        0.65769
 This state for optimization and/or second-order correction.
 Total Energy, E(TD-HF/TD-KS) =  -2932.60034170
 Copying the excited state density for this state as the 1-particle RhoCI density.

 The electronic state is 1-A.
 Alpha  occ. eigenvalues --  -46.83288 -19.27909 -19.26449 -19.21696 -19.21676
 Alpha  occ. eigenvalues --  -19.21311 -14.40213 -14.39215 -14.38932 -14.38447
 Alpha  occ. eigenvalues --  -10.40088 -10.39888 -10.36039 -10.32738 -10.31223
 Alpha  occ. eigenvalues --  -10.30318 -10.29660 -10.29523 -10.29145 -10.29144
 Alpha  occ. eigenvalues --  -10.28871 -10.28796 -10.28713 -10.28294 -10.28140
 Alpha  occ. eigenvalues --  -10.28008 -10.27809 -10.27552 -10.27526 -10.27459
 Alpha  occ. eigenvalues --  -10.27425 -10.27401 -10.27239 -10.27084 -10.26977
 Alpha  occ. eigenvalues --  -10.26947 -10.26723 -10.26723 -10.26632 -10.26522
 Alpha  occ. eigenvalues --  -10.26497 -10.26486 -10.26460 -10.26228 -10.26203
 Alpha  occ. eigenvalues --  -10.26081 -10.26069 -10.26052 -10.25997 -10.25809
 Alpha  occ. eigenvalues --  -10.25645 -10.25450 -10.25378 -10.25187 -10.24884
 Alpha  occ. eigenvalues --  -10.24637 -10.24598 -10.24578 -10.24542 -10.24529
 Alpha  occ. eigenvalues --  -10.23895 -10.23863 -10.23840 -10.23262 -10.23023
 Alpha  occ. eigenvalues --   -3.12414  -1.87114  -1.86656  -1.86602  -1.18025
 Alpha  occ. eigenvalues --   -1.17819  -1.12210  -1.09124  -1.09054  -1.05049
 Alpha  occ. eigenvalues --   -1.02544  -1.01632  -1.00816  -0.92277  -0.91357
 Alpha  occ. eigenvalues --   -0.90892  -0.90249  -0.89761  -0.89264  -0.88863
 Alpha  occ. eigenvalues --   -0.88625  -0.87907  -0.87127  -0.86188  -0.86112
 Alpha  occ. eigenvalues --   -0.85133  -0.84479  -0.84065  -0.83150  -0.82522
 Alpha  occ. eigenvalues --   -0.81615  -0.80953  -0.80643  -0.79761  -0.78174
 Alpha  occ. eigenvalues --   -0.77733  -0.77212  -0.76780  -0.76432  -0.75147
 Alpha  occ. eigenvalues --   -0.74914  -0.74438  -0.74404  -0.72937  -0.72444
 Alpha  occ. eigenvalues --   -0.71258  -0.70230  -0.69677  -0.69222  -0.67902
 Alpha  occ. eigenvalues --   -0.66566  -0.66303  -0.65328  -0.64689  -0.64458
 Alpha  occ. eigenvalues --   -0.63984  -0.63721  -0.63482  -0.62895  -0.61932
 Alpha  occ. eigenvalues --   -0.61914  -0.60429  -0.60147  -0.59822  -0.58937
 Alpha  occ. eigenvalues --   -0.58476  -0.58174  -0.57726  -0.57514  -0.56865
 Alpha  occ. eigenvalues --   -0.56182  -0.56040  -0.55847  -0.55062  -0.54922
 Alpha  occ. eigenvalues --   -0.54630  -0.54037  -0.53712  -0.53693  -0.53321
 Alpha  occ. eigenvalues --   -0.53251  -0.52841  -0.52170  -0.51841  -0.51732
 Alpha  occ. eigenvalues --   -0.51534  -0.51332  -0.51161  -0.50608  -0.50550
 Alpha  occ. eigenvalues --   -0.50270  -0.50104  -0.50024  -0.49717  -0.49585
 Alpha  occ. eigenvalues --   -0.49433  -0.49128  -0.48920  -0.48557  -0.48120
 Alpha  occ. eigenvalues --   -0.47878  -0.47599  -0.47418  -0.47219  -0.46816
 Alpha  occ. eigenvalues --   -0.46751  -0.46738  -0.46562  -0.46423  -0.46242
 Alpha  occ. eigenvalues --   -0.45845  -0.45443  -0.45336  -0.44966  -0.44888
 Alpha  occ. eigenvalues --   -0.44580  -0.44361  -0.44174  -0.44001  -0.43974
 Alpha  occ. eigenvalues --   -0.43873  -0.43853  -0.43526  -0.43356  -0.43198
 Alpha  occ. eigenvalues --   -0.43104  -0.42953  -0.42843  -0.42734  -0.42334
 Alpha  occ. eigenvalues --   -0.42249  -0.42023  -0.42009  -0.41969  -0.41831
 Alpha  occ. eigenvalues --   -0.41499  -0.41315  -0.40982  -0.40859  -0.40500
 Alpha  occ. eigenvalues --   -0.40398  -0.40297  -0.39576  -0.39455  -0.39027
 Alpha  occ. eigenvalues --   -0.38986  -0.38720  -0.38310  -0.37769  -0.37552
 Alpha  occ. eigenvalues --   -0.37482  -0.37316  -0.37031  -0.36776  -0.36718
 Alpha  occ. eigenvalues --   -0.36548  -0.36283  -0.35558  -0.35423  -0.35273
 Alpha  occ. eigenvalues --   -0.35164  -0.34371  -0.33916  -0.33903  -0.33636
 Alpha  occ. eigenvalues --   -0.33440  -0.33004  -0.31782  -0.30903  -0.30354
 Alpha  occ. eigenvalues --   -0.29230  -0.29216  -0.28176  -0.27005  -0.22860
 Alpha  occ. eigenvalues --   -0.20935
 Alpha virt. eigenvalues --   -0.06142  -0.02758   0.02043   0.04762   0.05409
 Alpha virt. eigenvalues --    0.05688   0.06713   0.06897   0.07111   0.07440
 Alpha virt. eigenvalues --    0.09039   0.10786   0.11311   0.11637   0.12068

 Mulliken charges:
               1
     1  Mg   0.816575
     2  C    0.085985
     3  C   -0.213806
     4  C   -0.157407
     5  C   -0.178901
     6  N   -0.641710
     7  C    0.210260
     8  C   -0.146193
     9  C   -0.143483
    10  C    0.396012
    11  C   -0.293966
    12  C   -0.152417
    13  C   -0.277202
    14  C    0.625756
    15  O   -0.470434
    16  O   -0.481326
    17  N   -0.732092
    18  C    0.297860
    19  C    0.000182
    20  C    0.031082
    21  C    0.303819
    22  C   -0.373788
    23  C   -0.044500
    24  C   -0.255952
    25  N   -0.668603
    26  C    0.252364
    27  C    0.023078
    28  C    0.045972
    29  C    0.254155
    30  C   -0.390538
    31  C   -0.268235
    32  C   -0.318885
    33  N   -0.691373
    34  C    0.324436
    35  C   -0.067045
    36  C    0.014425
    37  C    0.256774
    38  C   -0.365919
    39  C    0.395809
    40  O   -0.428890
    41  C   -0.313843
    42  C    0.616049
    43  O   -0.483229
    44  O   -0.446817
    45  C   -0.090442
    46  C    0.003477
    47  C   -0.121521
    48  C    0.110625
    49  C   -0.338235
    50  C   -0.203119
    51  C   -0.184378
    52  C   -0.153516
    53  C   -0.077874
    54  C   -0.295364
    55  C   -0.167503
    56  C   -0.191772
    57  C   -0.152702
    58  C   -0.070395
    59  C   -0.307585
    60  C   -0.161950
    61  C   -0.183367
    62  C   -0.189219
    63  C   -0.034718
    64  C   -0.324484
    65  C   -0.303526
    66  H    0.058346
    67  H    0.074736
    68  H    0.082398
    69  H    0.142161
    70  H    0.107817
    71  H    0.072238
    72  H    0.120646
    73  H    0.111568
    74  H    0.120254
    75  H    0.105337
    76  H    0.136964
    77  H    0.135302
    78  H    0.116214
    79  H    0.142658
    80  H    0.107381
    81  H    0.100122
    82  H    0.098683
    83  H    0.103100
    84  H    0.136151
    85  H    0.113755
    86  H    0.132869
    87  H    0.118879
    88  H    0.099186
    89  H    0.100276
    90  H    0.119011
    91  H    0.118471
    92  H    0.121908
    93  H    0.136751
    94  H    0.134673
    95  H    0.179992
    96  H    0.144018
    97  H    0.140140
    98  H    0.119995
    99  H    0.134537
   100  H    0.118678
   101  H    0.089939
   102  H    0.096257
   103  H    0.092595
   104  H    0.113514
   105  H    0.110090
   106  H    0.082420
   107  H    0.098023
   108  H    0.065930
   109  H    0.098402
   110  H    0.095297
   111  H    0.079789
   112  H    0.113282
   113  H    0.094693
   114  H    0.060599
   115  H    0.079694
   116  H    0.099489
   117  H    0.098258
   118  H    0.090560
   119  H    0.107568
   120  H    0.061756
   121  H    0.072046
   122  H    0.094487
   123  H    0.092193
   124  H    0.119172
   125  H    0.045248
   126  H    0.097737
   127  H    0.100316
   128  H    0.087541
   129  H    0.094997
   130  H    0.086522
   131  H    0.105172
   132  H    0.089650
   133  H    0.097006
   134  H    0.078857
   135  H    0.100585
   136  H    0.106723
   137  H    0.091907
 Sum of Mulliken charges =   0.00000

 Dipole moment (field-independent basis, Debye):
    X=              0.4909    Y=              3.2789    Z=              1.4363  Tot=              3.6132
 Quadrupole moment (field-independent basis, Debye-Ang):
   XX=           -334.1992   YY=           -389.6624   ZZ=           -396.4247
   XY=            -28.4292   XZ=             12.1578   YZ=             -5.3671

 Normal termination of Gaussian 09 at Wed Jul  3 15:43:43 2019.
