 Gaussian 16, Revision A.03,
 Gaussian 16:  ES64L-G16RevA.03 25-Dec-2016

 ----------------------------------------------------------------------
 # td=(NStates=1) iop(3/107=0140000000,3/108=0140000000) CAM-B3LYP/6-31
 G(d,p)
 ----------------------------------------------------------------------

 --
 TD
 --
 Symbolic Z-matrix:
 Charge =  0 Multiplicity = 1

                         Standard orientation:
 ---------------------------------------------------------------------
 Center     Atomic      Atomic             Coordinates (Angstroms)
 Number     Number       Type             X           Y           Z
 ---------------------------------------------------------------------
      1         12           0       -7.169416    0.613034    0.098577
      2          6           0       -4.867497   -1.984033    0.406460
      3          6           0       -4.715309    2.811342    1.039398
      4          6           0       -9.408731    3.123103   -0.382312
      5          6           0       -9.635682   -1.707080   -0.808912
      6          7           0       -5.183086    0.395709    0.736201
      7          6           0       -4.421559   -0.684921    0.819902
      8          6           0       -2.975861   -0.402716    1.167680
      9          6           0       -3.106338    1.008609    1.703999
     10          6           0       -4.396255    1.418472    1.143392
     11          6           0       -2.922837    1.201868    3.285707
     12          6           0       -2.025262   -0.586364   -0.046058
     13          6           0       -0.546250   -0.328680    0.382374
     14          6           0        0.523846   -0.605956   -0.746187
     15          8           0        0.179348   -0.939495   -1.861322
     16          8           0        1.794781   -0.449742   -0.273518
     17          7           0       -7.082584    2.665122    0.357968
     18          6           0       -6.026245    3.388006    0.783038
     19          6           0       -6.376183    4.787452    0.829342
     20          6           0       -7.642117    4.803810    0.347457
     21          6           0       -8.089331    3.508206    0.023386
     22          6           0       -5.486149    5.918454    1.109539
     23          6           0       -8.440116    6.012536    0.152589
     24          6           0       -8.374343    7.216180    0.683767
     25          7           0       -9.093907    0.684577   -0.509071
     26          6           0       -9.873806    1.819794   -0.605706
     27          6           0      -11.235341    1.452284   -1.076488
     28          6           0      -11.333578    0.088008   -1.099830
     29          6           0      -10.010730   -0.405022   -0.791238
     30          6           0      -12.223446    2.536913   -1.354880
     31          6           0      -12.481247   -0.691217   -1.562229
     32          6           0      -12.260655   -1.086492   -3.073712
     33          7           0       -7.255766   -1.316443   -0.048879
     34          6           0       -8.289418   -2.141675   -0.526321
     35          6           0       -7.825342   -3.606180   -0.486587
     36          6           0       -6.513949   -3.550754   -0.134364
     37          6           0       -6.266003   -2.184040    0.080106
     38          6           0       -8.688291   -4.893869   -0.748089
     39          6           0       -5.300937   -4.339619    0.169854
     40          8           0       -5.179358   -5.535748    0.247135
     41          6           0       -4.134208   -3.336601    0.482408
     42          6           0       -3.499196   -3.708689    1.798061
     43          8           0       -3.725537   -3.175298    2.894843
     44          8           0       -2.698137   -4.757662    1.696071
     45          6           0       -2.050587   -5.168885    2.938014
     46          6           0        2.795198   -0.636800   -1.352297
     47          6           0        4.131013   -0.507131   -0.640034
     48          6           0        5.152491    0.242085   -1.089561
     49          6           0        5.045473    1.125389   -2.326625
     50          6           0        6.470102    0.307441   -0.465513
     51          6           0        7.680417   -0.345265   -0.965975
     52          6           0        8.955420   -0.075328   -0.090598
     53          6           0       10.205601   -0.622418   -0.652525
     54          6           0       10.101622   -1.933151   -1.256935
     55          6           0       11.525569   -0.289212    0.243312
     56          6           0       12.782789   -0.518310   -0.521777
     57          6           0       13.963687   -0.135172    0.233624
     58          6           0       15.380529   -0.255645   -0.531460
     59          6           0       15.634364   -1.729597   -0.906667
     60          6           0       16.450304    0.333561    0.378370
     61          6           0       17.836982    0.456225   -0.055838
     62          6           0       18.819409    1.415999    0.767538
     63          6           0       20.227375    1.455966    0.247128
     64          6           0       20.385318    2.184663   -1.112328
     65          6           0       21.148389    2.190254    1.227894
     66          1           0       -3.979535    3.455915    1.681719
     67          1           0      -10.165075    4.068583   -0.157659
     68          1           0      -10.301683   -2.350545   -1.126890
     69          1           0       -2.791163   -1.057388    1.825886
     70          1           0       -2.095643    1.666817    1.317377
     71          1           0       -1.948546    0.873452    3.514964
     72          1           0       -3.180474    2.233526    3.643087
     73          1           0       -3.556318    0.311293    3.720879
     74          1           0       -2.057434   -1.621181   -0.391138
     75          1           0       -2.138984    0.018530   -0.937681
     76          1           0       -0.634657    0.939815    0.622928
     77          1           0       -0.377701   -1.011342    1.324676
     78          1           0       -5.807936    6.812115    0.411568
     79          1           0       -5.545317    6.283360    2.204004
     80          1           0       -4.465880    5.626710    0.694138
     81          1           0       -9.284574    5.954405   -0.585785
     82          1           0       -9.037093    7.994527    0.358318
     83          1           0       -7.741455    7.400109    1.387745
     84          1           0      -11.748553    3.255640   -2.029107
     85          1           0      -13.301954    2.123346   -1.766724
     86          1           0      -12.614219    3.290921   -0.519914
     87          1           0      -12.636674   -1.669336   -0.985463
     88          1           0      -13.541356   -0.276958   -1.488569
     89          1           0      -13.083987   -1.619091   -3.607789
     90          1           0      -12.258774   -0.311329   -3.561477
     91          1           0      -11.226359   -1.461608   -3.346087
     92          1           0       -9.058496   -4.914533   -1.806846
     93          1           0       -8.228737   -5.872453   -0.525517
     94          1           0       -9.667607   -4.968438   -0.337298
     95          1           0       -3.391068   -3.703494   -0.296119
     96          1           0       -1.368624   -4.359401    3.302518
     97          1           0       -2.767412   -5.784950    3.482169
     98          1           0       -1.306946   -5.925315    2.724922
     99          1           0        2.719095   -1.605150   -1.829299
    100          1           0        2.498974    0.036719   -2.205247
    101          1           0        4.252785   -1.343512    0.185098
    102          1           0        4.024720    1.087059   -2.520526
    103          1           0        5.734469    2.059467   -2.186447
    104          1           0        5.610696    0.632613   -3.130688
    105          1           0        6.703266    1.179514   -0.028438
    106          1           0        6.269680    0.108193    0.720569
    107          1           0        7.396758   -1.458280   -0.979288
    108          1           0        7.671640    0.136070   -1.945154
    109          1           0        9.055028    0.873980    0.386586
    110          1           0        8.874326   -0.676404    0.770728
    111          1           0       10.465096    0.016489   -1.571604
    112          1           0        9.374729   -2.156042   -2.059389
    113          1           0       11.227164   -2.382935   -1.601637
    114          1           0        9.613072   -2.824830   -0.527844
    115          1           0       11.454342    0.849246    0.418943
    116          1           0       11.307003   -0.869261    1.168679
    117          1           0       13.063869   -1.529899   -0.823676
    118          1           0       12.590364   -0.238872   -1.563351
    119          1           0       13.856848    0.839439    0.642989
    120          1           0       14.033065   -0.974133    1.109314
    121          1           0       15.265082    0.377844   -1.618916
    122          1           0       15.435534   -2.439130    0.181281
    123          1           0       14.873217   -2.330302   -1.469699
    124          1           0       16.725723   -2.051427   -1.227823
    125          1           0       16.043902    1.237224    0.627909
    126          1           0       16.486795   -0.241534    1.385663
    127          1           0       18.161265   -0.613268   -0.098275
    128          1           0       17.793108    1.112975   -1.083425
    129          1           0       18.480412    2.562655    0.830996
    130          1           0       18.628687    1.125477    1.841941
    131          1           0       20.651408    0.418979   -0.015253
    132          1           0       20.244987    3.172417   -0.902344
    133          1           0       21.559900    2.134053   -1.295214
    134          1           0       19.708848    1.751814   -1.747932
    135          1           0       21.096999    1.657680    2.293385
    136          1           0       22.289183    2.207401    0.818496
    137          1           0       20.801226    3.185598    1.540179
 ---------------------------------------------------------------------

 SCF Done:  E(RCAM-B3LYP) =  -2933.43364536     A.U. after   16 cycles

 Excitation energies and oscillator strengths:

 Excited State   1:      Singlet-A      1.9490 eV  636.14 nm  f=0.2510  <S**2>=0.000
     240 -> 243        0.23096
     241 -> 242        0.66663
 This state for optimization and/or second-order correction.
 Total Energy, E(TD-HF/TD-DFT) =  -2933.36202061
 Copying the excited state density for this state as the 1-particle RhoCI density.

 The electronic state is 1-A.
 Alpha  occ. eigenvalues --  -46.79285 -19.22825 -19.22495 -19.17587 -19.16558
 Alpha  occ. eigenvalues --  -19.15677 -14.37909 -14.36042 -14.35404 -14.34719
 Alpha  occ. eigenvalues --  -10.35331 -10.34436 -10.30990 -10.28221 -10.27465
 Alpha  occ. eigenvalues --  -10.26224 -10.26102 -10.26080 -10.25552 -10.25021
 Alpha  occ. eigenvalues --  -10.25013 -10.24990 -10.24947 -10.24689 -10.24565
 Alpha  occ. eigenvalues --  -10.24393 -10.24384 -10.24370 -10.23846 -10.23512
 Alpha  occ. eigenvalues --  -10.23401 -10.23336 -10.23198 -10.23192 -10.22953
 Alpha  occ. eigenvalues --  -10.22839 -10.22821 -10.22624 -10.22533 -10.22508
 Alpha  occ. eigenvalues --  -10.22423 -10.22417 -10.22338 -10.22305 -10.22166
 Alpha  occ. eigenvalues --  -10.22153 -10.22018 -10.22016 -10.21995 -10.21964
 Alpha  occ. eigenvalues --  -10.21818 -10.21810 -10.21697 -10.21669 -10.21507
 Alpha  occ. eigenvalues --  -10.21305 -10.21060 -10.20996 -10.20837 -10.20554
 Alpha  occ. eigenvalues --  -10.20319 -10.20307 -10.19594 -10.19404 -10.19229
 Alpha  occ. eigenvalues --   -3.08139  -1.83058  -1.82611  -1.82574  -1.13336
 Alpha  occ. eigenvalues --   -1.12544  -1.07178  -1.04889  -1.02540  -1.01130
 Alpha  occ. eigenvalues --   -0.99234  -0.99047  -0.96023  -0.87299  -0.86956
 Alpha  occ. eigenvalues --   -0.86040  -0.85073  -0.84927  -0.84298  -0.84011
 Alpha  occ. eigenvalues --   -0.83641  -0.82809  -0.82234  -0.81596  -0.81478
 Alpha  occ. eigenvalues --   -0.80233  -0.79768  -0.78579  -0.78347  -0.77810
 Alpha  occ. eigenvalues --   -0.76921  -0.76241  -0.75570  -0.75158  -0.73305
 Alpha  occ. eigenvalues --   -0.72949  -0.72637  -0.71907  -0.71787  -0.70803
 Alpha  occ. eigenvalues --   -0.70064  -0.69939  -0.69742  -0.69299  -0.67637
 Alpha  occ. eigenvalues --   -0.66970  -0.66464  -0.65646  -0.64682  -0.64185
 Alpha  occ. eigenvalues --   -0.63337  -0.62744  -0.61374  -0.60583  -0.60112
 Alpha  occ. eigenvalues --   -0.59693  -0.59130  -0.58495  -0.58068  -0.57894
 Alpha  occ. eigenvalues --   -0.56987  -0.56485  -0.56341  -0.55560  -0.55427
 Alpha  occ. eigenvalues --   -0.54928  -0.54344  -0.53665  -0.53158  -0.53032
 Alpha  occ. eigenvalues --   -0.52283  -0.51955  -0.51626  -0.51313  -0.50983
 Alpha  occ. eigenvalues --   -0.50583  -0.50510  -0.50203  -0.49991  -0.49374
 Alpha  occ. eigenvalues --   -0.49004  -0.48931  -0.48766  -0.48516  -0.47995
 Alpha  occ. eigenvalues --   -0.47979  -0.47758  -0.47360  -0.47050  -0.46918
 Alpha  occ. eigenvalues --   -0.46493  -0.46199  -0.45997  -0.45946  -0.45783
 Alpha  occ. eigenvalues --   -0.45473  -0.45451  -0.45097  -0.44814  -0.44671
 Alpha  occ. eigenvalues --   -0.44331  -0.43977  -0.43833  -0.43624  -0.43343
 Alpha  occ. eigenvalues --   -0.43172  -0.42959  -0.42864  -0.42728  -0.42714
 Alpha  occ. eigenvalues --   -0.42619  -0.41847  -0.41794  -0.41754  -0.41461
 Alpha  occ. eigenvalues --   -0.41208  -0.41045  -0.40820  -0.40709  -0.40614
 Alpha  occ. eigenvalues --   -0.40403  -0.40267  -0.40195  -0.40059  -0.39989
 Alpha  occ. eigenvalues --   -0.39806  -0.39558  -0.39502  -0.39397  -0.39041
 Alpha  occ. eigenvalues --   -0.38845  -0.38787  -0.38460  -0.38310  -0.38101
 Alpha  occ. eigenvalues --   -0.37893  -0.37734  -0.37509  -0.37475  -0.37130
 Alpha  occ. eigenvalues --   -0.36808  -0.36728  -0.36663  -0.36401  -0.36367
 Alpha  occ. eigenvalues --   -0.36088  -0.35822  -0.35681  -0.35148  -0.34665
 Alpha  occ. eigenvalues --   -0.34613  -0.33891  -0.33752  -0.33629  -0.33467
 Alpha  occ. eigenvalues --   -0.33033  -0.32900  -0.32729  -0.32644  -0.32353
 Alpha  occ. eigenvalues --   -0.32214  -0.31117  -0.30927  -0.30829  -0.30565
 Alpha  occ. eigenvalues --   -0.30292  -0.29599  -0.29165  -0.28139  -0.27930
 Alpha  occ. eigenvalues --   -0.27525  -0.27231  -0.25746  -0.24914  -0.21527
 Alpha  occ. eigenvalues --   -0.19570
 Alpha virt. eigenvalues --   -0.07060  -0.03690   0.00002   0.02207   0.03180
 Alpha virt. eigenvalues --    0.03753   0.03968   0.04381   0.04778   0.05934
 Alpha virt. eigenvalues --    0.06181   0.08070   0.08807   0.08938   0.09733

 Mulliken charges:
               1
     1  Mg   0.821021
     2  C    0.027190
     3  C   -0.204568
     4  C   -0.186976
     5  C   -0.138592
     6  N   -0.598320
     7  C    0.275993
     8  C   -0.089922
     9  C   -0.164621
    10  C    0.356458
    11  C   -0.308502
    12  C   -0.169728
    13  C   -0.253450
    14  C    0.611769
    15  O   -0.461254
    16  O   -0.460588
    17  N   -0.697894
    18  C    0.287828
    19  C    0.046021
    20  C    0.016046
    21  C    0.318530
    22  C   -0.393382
    23  C   -0.089403
    24  C   -0.228900
    25  N   -0.695014
    26  C    0.316948
    27  C    0.053521
    28  C    0.067775
    29  C    0.275839
    30  C   -0.382302
    31  C   -0.269749
    32  C   -0.315291
    33  N   -0.711669
    34  C    0.224959
    35  C   -0.021660
    36  C    0.079689
    37  C    0.309219
    38  C   -0.393206
    39  C    0.361422
    40  O   -0.445710
    41  C   -0.311798
    42  C    0.629827
    43  O   -0.505034
    44  O   -0.435139
    45  C   -0.085558
    46  C   -0.023960
    47  C   -0.116340
    48  C    0.112416
    49  C   -0.344203
    50  C   -0.247855
    51  C   -0.146608
    52  C   -0.184266
    53  C   -0.049775
    54  C   -0.294343
    55  C   -0.173160
    56  C   -0.164099
    57  C   -0.168132
    58  C   -0.035838
    59  C   -0.300546
    60  C   -0.153624
    61  C   -0.168832
    62  C   -0.162077
    63  C   -0.048704
    64  C   -0.289509
    65  C   -0.301161
    66  H    0.074968
    67  H    0.095944
    68  H    0.068236
    69  H    0.100549
    70  H    0.070545
    71  H    0.124638
    72  H    0.116561
    73  H    0.115357
    74  H    0.116223
    75  H    0.125572
    76  H    0.093046
    77  H    0.113425
    78  H    0.114695
    79  H    0.119254
    80  H    0.116513
    81  H    0.071534
    82  H    0.095461
    83  H    0.084414
    84  H    0.130697
    85  H    0.087705
    86  H    0.107448
    87  H    0.100129
    88  H    0.105244
    89  H    0.092892
    90  H    0.134350
    91  H    0.102161
    92  H    0.118386
    93  H    0.145097
    94  H    0.128603
    95  H    0.160316
    96  H    0.132188
    97  H    0.145744
    98  H    0.121526
    99  H    0.140432
   100  H    0.129517
   101  H    0.095821
   102  H    0.106775
   103  H    0.109023
   104  H    0.124540
   105  H    0.118461
   106  H    0.042758
   107  H    0.099633
   108  H    0.095493
   109  H    0.093923
   110  H    0.104342
   111  H    0.072022
   112  H    0.121838
   113  H    0.073782
   114  H    0.049170
   115  H    0.088348
   116  H    0.095457
   117  H    0.093539
   118  H    0.092052
   119  H    0.089467
   120  H    0.077871
   121  H    0.056639
   122  H    0.041408
   123  H    0.114620
   124  H    0.099935
   125  H    0.098084
   126  H    0.075275
   127  H    0.098027
   128  H    0.068037
   129  H    0.068017
   130  H    0.084710
   131  H    0.081416
   132  H    0.109927
   133  H    0.082139
   134  H    0.109982
   135  H    0.079355
   136  H    0.081350
   137  H    0.106190
 Sum of Mulliken charges =  -0.00000

 Dipole moment (field-independent basis, Debye):
    X=              2.2168    Y=              2.4970    Z=             -0.1195  Tot=              3.3412
 Quadrupole moment (field-independent basis, Debye-Ang):
   XX=           -358.7900   YY=           -393.9835   ZZ=           -399.8446
   XY=             -9.0169   XZ=             14.7761   YZ=              0.7672

 Normal termination of Gaussian 16 at Mon Sep  9 17:03:02 2019.
