 Gaussian 09, Revision D.01,
 Gaussian 09:  ES64L-G09RevD.01 24-Apr-2013

 -------------------------------------
 # td=(NStates=1) CAM-B3LYP/6-31G(d,p)
 -------------------------------------

 --
 TD
 --
 Symbolic Z-matrix:
 Charge =  0 Multiplicity = 1

                         Standard orientation:
 ---------------------------------------------------------------------
 Center     Atomic      Atomic             Coordinates (Angstroms)
 Number     Number       Type             X           Y           Z
 ---------------------------------------------------------------------
      1         12           0       -7.244613    0.572959    0.140500
      2          6           0       -4.868972   -1.980641    0.437964
      3          6           0       -4.842791    2.818879    1.270563
      4          6           0       -9.378149    3.177390   -0.368662
      5          6           0       -9.603771   -1.742764   -0.779539
      6          7           0       -5.131892    0.479252    0.697869
      7          6           0       -4.354345   -0.710874    0.764207
      8          6           0       -2.889861   -0.316749    1.238703
      9          6           0       -2.981080    1.204641    1.651611
     10          6           0       -4.401656    1.523466    1.185217
     11          6           0       -3.033394    1.164290    3.216847
     12          6           0       -1.863222   -0.526416    0.094671
     13          6           0       -0.465550   -0.434143    0.481965
     14          6           0        0.540652   -0.770352   -0.588711
     15          8           0        0.277537   -1.046797   -1.733381
     16          8           0        1.796851   -0.522984   -0.199660
     17          7           0       -7.107422    2.587797    0.296333
     18          6           0       -6.162415    3.358551    0.828068
     19          6           0       -6.410945    4.746846    0.939047
     20          6           0       -7.704162    4.811459    0.366717
     21          6           0       -8.092691    3.484168    0.085521
     22          6           0       -5.446154    5.859001    1.150627
     23          6           0       -8.505453    6.006161    0.098588
     24          6           0       -8.585170    7.199686    0.741260
     25          7           0       -9.189743    0.642896   -0.532731
     26          6           0       -9.983477    1.873741   -0.645261
     27          6           0      -11.332698    1.492891   -1.109300
     28          6           0      -11.284165    0.107594   -1.306521
     29          6           0       -9.961064   -0.313175   -0.817281
     30          6           0      -12.208247    2.438932   -1.383147
     31          6           0      -12.417999   -0.659691   -1.741118
     32          6           0      -12.423610   -1.035265   -3.259593
     33          7           0       -7.270840   -1.401544   -0.198999
     34          6           0       -8.332562   -2.246446   -0.361344
     35          6           0       -7.910539   -3.664017   -0.364710
     36          6           0       -6.504666   -3.516418   -0.048134
     37          6           0       -6.211662   -2.188083    0.104686
     38          6           0       -8.613652   -4.826888   -0.700669
     39          6           0       -5.390439   -4.405790    0.164854
     40          8           0       -5.279512   -5.604111    0.293629
     41          6           0       -4.198321   -3.364703    0.528508
     42          6           0       -3.533469   -3.781588    1.858292
     43          8           0       -3.615315   -3.267830    2.919711
     44          8           0       -2.586145   -4.689628    1.617015
     45          6           0       -2.018571   -5.299366    2.744876
     46          6           0        2.847420   -0.819065   -1.200257
     47          6           0        4.186381   -0.502962   -0.497268
     48          6           0        5.118667    0.292770   -0.944001
     49          6           0        5.051361    1.165819   -2.205270
     50          6           0        6.417703    0.568491   -0.243170
     51          6           0        7.613368   -0.165743   -0.968109
     52          6           0        8.877538   -0.176048   -0.127477
     53          6           0       10.227248   -0.479588   -0.904101
     54          6           0       10.206648   -1.933582   -1.404655
     55          6           0       11.360783   -0.216646    0.050617
     56          6           0       12.668822   -0.489000   -0.771535
     57          6           0       13.987210    0.007162    0.135878
     58          6           0       15.394444   -0.053098   -0.510537
     59          6           0       15.898204   -1.529524   -0.789779
     60          6           0       16.425468    0.497051    0.465897
     61          6           0       17.788279    0.515639   -0.246843
     62          6           0       18.867925    1.268056    0.756901
     63          6           0       20.307785    1.304543    0.219589
     64          6           0       20.403303    2.176220   -0.990975
     65          6           0       21.346327    1.787955    1.268631
     66          1           0       -4.158011    3.700036    1.398010
     67          1           0      -10.095317    4.000448   -0.558384
     68          1           0      -10.339614   -2.398265   -1.239341
     69          1           0       -2.834359   -1.027185    2.222189
     70          1           0       -2.172309    1.827538    1.231176
     71          1           0       -2.091738    0.615036    3.377953
     72          1           0       -3.251232    2.191736    3.713143
     73          1           0       -3.721746    0.387491    3.393662
     74          1           0       -2.145776   -1.561324   -0.408009
     75          1           0       -2.087154    0.120526   -0.763664
     76          1           0        0.002900    0.609560    0.797843
     77          1           0       -0.039464   -0.953687    1.446818
     78          1           0       -5.755754    6.992965    0.544607
     79          1           0       -5.312853    6.085967    2.320249
     80          1           0       -4.559309    5.722157    0.667302
     81          1           0       -9.102547    5.960842   -0.852613
     82          1           0       -9.272910    7.951291    0.411579
     83          1           0       -7.996003    7.358945    1.536777
     84          1           0      -11.969032    3.022545   -2.346259
     85          1           0      -13.007680    1.969893   -1.807777
     86          1           0      -12.375305    3.252224   -0.615862
     87          1           0      -12.557058   -1.621097   -1.205967
     88          1           0      -13.338777   -0.130233   -1.523760
     89          1           0      -13.386368   -1.544581   -3.664809
     90          1           0      -12.330195   -0.154375   -3.827524
     91          1           0      -11.728376   -1.728654   -3.626704
     92          1           0       -8.707663   -4.704594   -1.916362
     93          1           0       -8.172045   -5.899127   -0.557087
     94          1           0       -9.713008   -4.999571   -0.267760
     95          1           0       -3.306936   -3.277788   -0.355772
     96          1           0       -1.310755   -4.732108    3.167012
     97          1           0       -2.772267   -5.670482    3.316753
     98          1           0       -1.460034   -6.118414    2.443677
     99          1           0        2.774908   -1.852439   -1.646009
    100          1           0        2.369711   -0.061214   -2.090485
    101          1           0        4.373930   -1.027146    0.462657
    102          1           0        3.870274    1.069211   -2.363914
    103          1           0        5.517643    2.097200   -1.935625
    104          1           0        5.537702    0.913654   -3.183513
    105          1           0        6.756455    1.732691    0.010285
    106          1           0        6.439810   -0.076732    0.793702
    107          1           0        7.275538   -1.172872   -1.569411
    108          1           0        7.713885    0.317143   -1.884051
    109          1           0        9.373225    0.892921    0.320699
    110          1           0        8.847133   -0.727631    0.829458
    111          1           0       10.350207   -0.049509   -1.744797
    112          1           0        9.404648   -2.330381   -1.862121
    113          1           0       10.898631   -2.207831   -2.154066
    114          1           0       10.268986   -2.576124   -0.601625
    115          1           0       11.461118    0.778060    0.303258
    116          1           0       11.206087   -0.842444    0.979491
    117          1           0       12.845998   -1.622076   -0.856425
    118          1           0       12.830186    0.150595   -1.756461
    119          1           0       13.757588    0.917514    0.529934
    120          1           0       13.823469   -0.509513    1.008710
    121          1           0       15.183071    0.419239   -1.472109
    122          1           0       15.939822   -2.236382    0.066140
    123          1           0       15.138691   -2.059639   -1.466353
    124          1           0       16.868234   -1.469365   -1.297389
    125          1           0       15.966168    1.443995    0.842229
    126          1           0       16.518003   -0.106031    1.431616
    127          1           0       17.965646   -0.545704   -0.600108
    128          1           0       17.592527    1.092355   -1.173867
    129          1           0       18.447270    2.265437    1.129447
    130          1           0       19.050943    0.778151    1.601364
    131          1           0       20.502822    0.264274   -0.012346
    132          1           0       20.025250    3.162486   -0.649430
    133          1           0       21.324989    2.268635   -1.547865
    134          1           0       19.613151    1.788443   -1.779059
    135          1           0       21.345066    1.047139    2.094735
    136          1           0       22.249403    1.726892    0.865543
    137          1           0       21.004100    2.899090    1.790820
 ---------------------------------------------------------------------

 SCF Done:  E(RCAM-B3LYP) =  -2932.59055068     A.U. after   16 cycles

 Excitation energies and oscillator strengths:

 Excited State   1:      Singlet-A      1.9383 eV  639.64 nm  f=0.2481  <S**2>=0.000
     240 -> 242        0.16369
     240 -> 243        0.21979
     241 -> 242        0.63576
     241 -> 243       -0.11147
 This state for optimization and/or second-order correction.
 Total Energy, E(TD-HF/TD-KS) =  -2932.51931834
 Copying the excited state density for this state as the 1-particle RhoCI density.

 The electronic state is 1-A.
 Alpha  occ. eigenvalues --  -46.84704 -19.25725 -19.25097 -19.20939 -19.20678
 Alpha  occ. eigenvalues --  -19.20194 -14.41375 -14.39653 -14.39554 -14.39345
 Alpha  occ. eigenvalues --  -10.38852 -10.38476 -10.35455 -10.34214 -10.31651
 Alpha  occ. eigenvalues --  -10.30307 -10.29726 -10.29724 -10.29702 -10.29250
 Alpha  occ. eigenvalues --  -10.29229 -10.29144 -10.29051 -10.29039 -10.28817
 Alpha  occ. eigenvalues --  -10.28772 -10.28438 -10.28387 -10.28355 -10.28241
 Alpha  occ. eigenvalues --  -10.28240 -10.28145 -10.27647 -10.27447 -10.27400
 Alpha  occ. eigenvalues --  -10.27213 -10.27088 -10.27011 -10.26907 -10.26668
 Alpha  occ. eigenvalues --  -10.26640 -10.26563 -10.26432 -10.26389 -10.26216
 Alpha  occ. eigenvalues --  -10.26011 -10.25988 -10.25883 -10.25825 -10.25520
 Alpha  occ. eigenvalues --  -10.25451 -10.25207 -10.25187 -10.25095 -10.25069
 Alpha  occ. eigenvalues --  -10.25030 -10.24998 -10.24966 -10.24943 -10.24789
 Alpha  occ. eigenvalues --  -10.24735 -10.24369 -10.24097 -10.23142 -10.21593
 Alpha  occ. eigenvalues --   -3.13707  -1.88415  -1.87951  -1.87882  -1.19423
 Alpha  occ. eigenvalues --   -1.18076  -1.11633  -1.09959  -1.08540  -1.05308
 Alpha  occ. eigenvalues --   -1.04780  -1.03310  -1.01481  -0.92424  -0.91191
 Alpha  occ. eigenvalues --   -0.91090  -0.90320  -0.89738  -0.89525  -0.88791
 Alpha  occ. eigenvalues --   -0.88479  -0.88073  -0.87713  -0.86678  -0.85918
 Alpha  occ. eigenvalues --   -0.84616  -0.84158  -0.83641  -0.82920  -0.82249
 Alpha  occ. eigenvalues --   -0.81603  -0.80428  -0.79863  -0.79174  -0.78034
 Alpha  occ. eigenvalues --   -0.77726  -0.77201  -0.76314  -0.76189  -0.75214
 Alpha  occ. eigenvalues --   -0.75108  -0.74749  -0.74288  -0.73258  -0.71986
 Alpha  occ. eigenvalues --   -0.71505  -0.70238  -0.69834  -0.68882  -0.68415
 Alpha  occ. eigenvalues --   -0.67417  -0.66660  -0.65653  -0.64620  -0.64462
 Alpha  occ. eigenvalues --   -0.64245  -0.63771  -0.63433  -0.62092  -0.61860
 Alpha  occ. eigenvalues --   -0.61789  -0.60872  -0.59912  -0.59504  -0.59103
 Alpha  occ. eigenvalues --   -0.58497  -0.58300  -0.58152  -0.57000  -0.56639
 Alpha  occ. eigenvalues --   -0.56086  -0.55798  -0.55201  -0.55060  -0.54482
 Alpha  occ. eigenvalues --   -0.54087  -0.53887  -0.53513  -0.53316  -0.53241
 Alpha  occ. eigenvalues --   -0.52664  -0.52578  -0.51870  -0.51598  -0.51527
 Alpha  occ. eigenvalues --   -0.51212  -0.50952  -0.50840  -0.50797  -0.50494
 Alpha  occ. eigenvalues --   -0.50178  -0.49872  -0.49851  -0.49636  -0.49613
 Alpha  occ. eigenvalues --   -0.49029  -0.48892  -0.48672  -0.48531  -0.48401
 Alpha  occ. eigenvalues --   -0.48135  -0.47938  -0.47660  -0.47550  -0.47277
 Alpha  occ. eigenvalues --   -0.47102  -0.47022  -0.46317  -0.46027  -0.45875
 Alpha  occ. eigenvalues --   -0.45764  -0.45470  -0.45331  -0.45167  -0.45106
 Alpha  occ. eigenvalues --   -0.44926  -0.44841  -0.44638  -0.44383  -0.44219
 Alpha  occ. eigenvalues --   -0.44046  -0.43884  -0.43694  -0.43515  -0.43171
 Alpha  occ. eigenvalues --   -0.43061  -0.42676  -0.42569  -0.42374  -0.42345
 Alpha  occ. eigenvalues --   -0.42167  -0.41948  -0.41552  -0.41496  -0.41169
 Alpha  occ. eigenvalues --   -0.40859  -0.40692  -0.40675  -0.40532  -0.40236
 Alpha  occ. eigenvalues --   -0.39826  -0.39740  -0.39578  -0.39398  -0.39235
 Alpha  occ. eigenvalues --   -0.38952  -0.38394  -0.38302  -0.37768  -0.37359
 Alpha  occ. eigenvalues --   -0.37053  -0.36875  -0.36762  -0.36674  -0.36206
 Alpha  occ. eigenvalues --   -0.36037  -0.35928  -0.35707  -0.35164  -0.35057
 Alpha  occ. eigenvalues --   -0.34790  -0.34727  -0.34141  -0.33713  -0.33374
 Alpha  occ. eigenvalues --   -0.32948  -0.32287  -0.32070  -0.30379  -0.30224
 Alpha  occ. eigenvalues --   -0.30156  -0.28965  -0.27932  -0.27481  -0.22477
 Alpha  occ. eigenvalues --   -0.21126
 Alpha virt. eigenvalues --   -0.07019  -0.03059   0.01249   0.04567   0.05420
 Alpha virt. eigenvalues --    0.06142   0.06324   0.06713   0.07022   0.07415
 Alpha virt. eigenvalues --    0.08501   0.10284   0.10979   0.11186   0.11631

 Mulliken charges:
               1
     1  Mg   0.831225
     2  C    0.020124
     3  C   -0.207788
     4  C   -0.188470
     5  C   -0.168072
     6  N   -0.620049
     7  C    0.267210
     8  C   -0.176256
     9  C   -0.138655
    10  C    0.349663
    11  C   -0.298875
    12  C   -0.171744
    13  C   -0.264304
    14  C    0.611383
    15  O   -0.483577
    16  O   -0.483518
    17  N   -0.687310
    18  C    0.264062
    19  C    0.039939
    20  C    0.011300
    21  C    0.332479
    22  C   -0.364246
    23  C   -0.105667
    24  C   -0.226567
    25  N   -0.674493
    26  C    0.200275
    27  C    0.110178
    28  C    0.034822
    29  C    0.336622
    30  C   -0.422656
    31  C   -0.279889
    32  C   -0.318773
    33  N   -0.723570
    34  C    0.245508
    35  C    0.123573
    36  C   -0.036560
    37  C    0.366927
    38  C   -0.422801
    39  C    0.364817
    40  O   -0.451664
    41  C   -0.327995
    42  C    0.611759
    43  O   -0.455221
    44  O   -0.442894
    45  C   -0.067676
    46  C   -0.003767
    47  C   -0.137321
    48  C    0.143494
    49  C   -0.344925
    50  C   -0.230501
    51  C   -0.173307
    52  C   -0.163625
    53  C   -0.042102
    54  C   -0.331435
    55  C   -0.178412
    56  C   -0.204216
    57  C   -0.206156
    58  C   -0.052911
    59  C   -0.322259
    60  C   -0.160410
    61  C   -0.196459
    62  C   -0.164189
    63  C   -0.071273
    64  C   -0.287950
    65  C   -0.292478
    66  H    0.071605
    67  H    0.091131
    68  H    0.100083
    69  H    0.126516
    70  H    0.108244
    71  H    0.105306
    72  H    0.108650
    73  H    0.134421
    74  H    0.105819
    75  H    0.133957
    76  H    0.131879
    77  H    0.131943
    78  H    0.082309
    79  H    0.108299
    80  H    0.140705
    81  H    0.088951
    82  H    0.104704
    83  H    0.101637
    84  H    0.118390
    85  H    0.110773
    86  H    0.127268
    87  H    0.104877
    88  H    0.114676
    89  H    0.084482
    90  H    0.113251
    91  H    0.116817
    92  H    0.120754
    93  H    0.155293
    94  H    0.119051
    95  H    0.142143
    96  H    0.120468
    97  H    0.130487
    98  H    0.118398
    99  H    0.140050
   100  H    0.120318
   101  H    0.103201
   102  H    0.093341
   103  H    0.118725
   104  H    0.119063
   105  H    0.095277
   106  H    0.069348
   107  H    0.085711
   108  H    0.109509
   109  H    0.055441
   110  H    0.097167
   111  H    0.093114
   112  H    0.100327
   113  H    0.099528
   114  H    0.097983
   115  H    0.108026
   116  H    0.093442
   117  H    0.105623
   118  H    0.081208
   119  H    0.085823
   120  H    0.091495
   121  H    0.090475
   122  H    0.104991
   123  H    0.082742
   124  H    0.105670
   125  H    0.081899
   126  H    0.089128
   127  H    0.098849
   128  H    0.100946
   129  H    0.080443
   130  H    0.099965
   131  H    0.088433
   132  H    0.096202
   133  H    0.097453
   134  H    0.076130
   135  H    0.092027
   136  H    0.116344
   137  H    0.068925
 Sum of Mulliken charges =   0.00000

 Dipole moment (field-independent basis, Debye):
    X=              0.4940    Y=              2.4736    Z=             -0.5316  Tot=              2.5779
 Quadrupole moment (field-independent basis, Debye-Ang):
   XX=           -337.9049   YY=           -390.5758   ZZ=           -398.3704
   XY=            -18.7044   XZ=             17.7387   YZ=             -1.7587

 Normal termination of Gaussian 09 at Tue Jul  2 17:33:42 2019.
