 Gaussian 16, Revision A.03,
 Gaussian 16:  ES64L-G16RevA.03 25-Dec-2016

 ----------------------------------------------------------------------
 # td=(NStates=1) iop(3/107=0140000000,3/108=0140000000) CAM-B3LYP/6-31
 G(d,p)
 ----------------------------------------------------------------------

 --
 TD
 --
 Symbolic Z-matrix:
 Charge =  0 Multiplicity = 1

                         Standard orientation:
 ---------------------------------------------------------------------
 Center     Atomic      Atomic             Coordinates (Angstroms)
 Number     Number       Type             X           Y           Z
 ---------------------------------------------------------------------
      1         12           0       -7.106241    0.586679    0.166013
      2          6           0       -4.830851   -1.970517    0.544259
      3          6           0       -4.780424    2.788542    1.287986
      4          6           0       -9.328366    3.140981   -0.526946
      5          6           0       -9.475327   -1.759820   -0.860990
      6          7           0       -5.124465    0.432779    0.736493
      7          6           0       -4.366262   -0.699472    0.763120
      8          6           0       -2.981617   -0.404258    1.236505
      9          6           0       -2.992133    1.025520    1.678647
     10          6           0       -4.337535    1.467233    1.214047
     11          6           0       -2.984176    1.230457    3.246575
     12          6           0       -2.064440   -0.601934   -0.006111
     13          6           0       -0.522814   -0.507857    0.474394
     14          6           0        0.471643   -0.580511   -0.655022
     15          8           0        0.170901   -1.039955   -1.778313
     16          8           0        1.669117   -0.287169   -0.326394
     17          7           0       -7.067530    2.629352    0.301723
     18          6           0       -5.993067    3.371454    0.796886
     19          6           0       -6.392070    4.767981    0.842736
     20          6           0       -7.658335    4.866363    0.310451
     21          6           0       -8.082929    3.452737    0.012836
     22          6           0       -5.449815    5.904660    1.173215
     23          6           0       -8.553196    6.030734    0.323504
     24          6           0       -8.452929    7.218976    0.941168
     25          7           0       -8.968461    0.688771   -0.593780
     26          6           0       -9.731188    1.788377   -0.695279
     27          6           0      -11.097668    1.515544   -1.195021
     28          6           0      -11.259024    0.138767   -1.240645
     29          6           0       -9.797072   -0.374568   -0.963185
     30          6           0      -12.210287    2.525223   -1.575553
     31          6           0      -12.406816   -0.661142   -1.797180
     32          6           0      -12.298466   -1.062749   -3.275497
     33          7           0       -7.187030   -1.404617   -0.161699
     34          6           0       -8.277815   -2.253210   -0.503988
     35          6           0       -7.784157   -3.623573   -0.447712
     36          6           0       -6.398756   -3.570081    0.004214
     37          6           0       -6.141769   -2.216630    0.112260
     38          6           0       -8.566066   -4.885131   -0.832327
     39          6           0       -5.290345   -4.376172    0.297326
     40          8           0       -5.326133   -5.590364    0.434610
     41          6           0       -4.154885   -3.314910    0.569713
     42          6           0       -3.422750   -3.654310    1.968417
     43          8           0       -3.583962   -3.098805    2.978592
     44          8           0       -2.668859   -4.811707    1.820313
     45          6           0       -2.109012   -5.295535    3.038758
     46          6           0        2.765827   -0.586291   -1.232603
     47          6           0        4.111722   -0.408863   -0.638525
     48          6           0        5.114119    0.322369   -1.012271
     49          6           0        5.039469    1.239049   -2.160928
     50          6           0        6.428101    0.401202   -0.264766
     51          6           0        7.645224   -0.264513   -1.017992
     52          6           0        8.933949   -0.244882   -0.243942
     53          6           0       10.204924   -0.612381   -1.003114
     54          6           0       10.048637   -2.039784   -1.454394
     55          6           0       11.398040   -0.388926   -0.126579
     56          6           0       12.796643   -0.543975   -0.799664
     57          6           0       13.895246   -0.263998    0.074550
     58          6           0       15.287482   -0.211500   -0.604960
     59          6           0       15.676126   -1.627121   -0.983489
     60          6           0       16.370475    0.460459    0.398874
     61          6           0       17.689843    0.675433   -0.237412
     62          6           0       18.668980    1.326007    0.761033
     63          6           0       20.101628    1.397010    0.456097
     64          6           0       20.371793    2.179054   -0.827368
     65          6           0       20.898010    2.034326    1.447864
     66          1           0       -4.098525    3.368870    1.770916
     67          1           0       -9.958749    3.909992   -0.955419
     68          1           0      -10.309971   -2.560797   -1.102863
     69          1           0       -2.667307   -0.983384    1.986809
     70          1           0       -2.230432    1.621476    1.018819
     71          1           0       -1.948513    0.825838    3.632749
     72          1           0       -2.818178    2.351034    3.591334
     73          1           0       -3.774885    0.607391    3.746033
     74          1           0       -2.094868   -1.614348   -0.286320
     75          1           0       -2.240800    0.263554   -0.657736
     76          1           0       -0.314431    0.521921    1.089583
     77          1           0       -0.218412   -1.355648    1.133296
     78          1           0       -5.468851    6.614440    0.376137
     79          1           0       -5.576863    6.136238    2.174978
     80          1           0       -4.491559    5.532393    1.015099
     81          1           0       -9.462930    5.862128   -0.264076
     82          1           0       -9.478872    7.831350    0.854297
     83          1           0       -7.725401    7.461428    1.767457
     84          1           0      -12.156882    2.874814   -2.516563
     85          1           0      -13.180072    2.044329   -1.576745
     86          1           0      -12.220412    3.393150   -0.847632
     87          1           0      -12.642215   -1.522969   -1.052433
     88          1           0      -13.404743   -0.168370   -1.646147
     89          1           0      -13.020618   -1.778927   -3.791553
     90          1           0      -12.238070   -0.137296   -3.738052
     91          1           0      -11.308601   -1.655326   -3.498659
     92          1           0       -9.146629   -4.744300   -1.826706
     93          1           0       -8.103927   -5.706220   -0.723318
     94          1           0       -9.374039   -4.805440   -0.211393
     95          1           0       -3.167015   -3.361030   -0.068705
     96          1           0       -1.571661   -4.481473    3.321786
     97          1           0       -2.927165   -5.618457    3.845410
     98          1           0       -1.522046   -6.209086    2.816321
     99          1           0        2.708895   -1.678787   -1.639706
    100          1           0        2.687989    0.216387   -2.155949
    101          1           0        3.996032   -0.998374    0.216981
    102          1           0        3.997926    1.357504   -2.793367
    103          1           0        5.315438    2.185245   -1.818702
    104          1           0        5.938609    1.005969   -2.962775
    105          1           0        6.715786    1.476375   -0.216889
    106          1           0        6.241509   -0.121524    0.914304
    107          1           0        7.414862   -1.244891   -1.444412
    108          1           0        7.929017    0.179442   -1.919410
    109          1           0        9.094998    0.795658   -0.065007
    110          1           0        8.682862   -0.751201    0.715671
    111          1           0       10.146622    0.018385   -1.868409
    112          1           0        9.218188   -2.189758   -2.008604
    113          1           0       10.781428   -2.299909   -2.108227
    114          1           0        9.943321   -2.754219   -0.533328
    115          1           0       11.590193    0.569839    0.411981
    116          1           0       11.429175   -0.808183    0.804734
    117          1           0       12.857682   -1.593561   -1.226237
    118          1           0       12.848109    0.346723   -1.597279
    119          1           0       13.891363    0.818848    0.421728
    120          1           0       13.817780   -0.885818    1.100381
    121          1           0       15.245626    0.362449   -1.545632
    122          1           0       15.707916   -2.233469   -0.214773
    123          1           0       14.882172   -2.010604   -1.655187
    124          1           0       16.807167   -1.699628   -1.305397
    125          1           0       16.007120    1.365340    0.686728
    126          1           0       16.237932   -0.310673    1.324576
    127          1           0       18.163785   -0.337172   -0.568199
    128          1           0       17.754146    1.259612   -1.085395
    129          1           0       18.328799    2.182991    1.053051
    130          1           0       18.732566    1.138451    1.956280
    131          1           0       20.499454    0.442924    0.371385
    132          1           0       19.732546    3.074689   -0.601097
    133          1           0       21.341998    2.134239   -1.190498
    134          1           0       19.859286    1.724219   -1.727211
    135          1           0       20.780137    1.402612    2.377331
    136          1           0       22.069211    1.934950    1.270234
    137          1           0       20.731680    2.984414    1.496016
 ---------------------------------------------------------------------

 SCF Done:  E(RCAM-B3LYP) =  -2933.48425339     A.U. after   16 cycles

 Excitation energies and oscillator strengths:

 Excited State   1:      Singlet-A      2.0120 eV  616.22 nm  f=0.2594  <S**2>=0.000
     240 -> 243        0.23252
     241 -> 242        0.66478
 This state for optimization and/or second-order correction.
 Total Energy, E(TD-HF/TD-DFT) =  -2933.41031389
 Copying the excited state density for this state as the 1-particle RhoCI density.

 The electronic state is 1-A.
 Alpha  occ. eigenvalues --  -46.79059 -19.23138 -19.21041 -19.17675 -19.15181
 Alpha  occ. eigenvalues --  -19.14616 -14.37417 -14.36098 -14.35274 -14.34464
 Alpha  occ. eigenvalues --  -10.34444 -10.33785 -10.29532 -10.29232 -10.26468
 Alpha  occ. eigenvalues --  -10.26126 -10.25866 -10.25796 -10.25468 -10.25154
 Alpha  occ. eigenvalues --  -10.24958 -10.24945 -10.24774 -10.24529 -10.24467
 Alpha  occ. eigenvalues --  -10.24232 -10.24218 -10.24106 -10.23568 -10.23483
 Alpha  occ. eigenvalues --  -10.23428 -10.23377 -10.23377 -10.22845 -10.22844
 Alpha  occ. eigenvalues --  -10.22804 -10.22665 -10.22511 -10.22408 -10.22173
 Alpha  occ. eigenvalues --  -10.22029 -10.21798 -10.21727 -10.21693 -10.21649
 Alpha  occ. eigenvalues --  -10.21570 -10.21443 -10.21345 -10.21311 -10.21278
 Alpha  occ. eigenvalues --  -10.21245 -10.21141 -10.20982 -10.20964 -10.20241
 Alpha  occ. eigenvalues --  -10.20212 -10.20080 -10.19984 -10.19790 -10.19573
 Alpha  occ. eigenvalues --  -10.19572 -10.19118 -10.19103 -10.19029 -10.19001
 Alpha  occ. eigenvalues --   -3.07848  -1.82779  -1.82339  -1.82248  -1.15058
 Alpha  occ. eigenvalues --   -1.13586  -1.05750  -1.04912  -1.01737  -0.99341
 Alpha  occ. eigenvalues --   -0.98184  -0.97562  -0.96686  -0.87694  -0.87375
 Alpha  occ. eigenvalues --   -0.86931  -0.86337  -0.85223  -0.84583  -0.83636
 Alpha  occ. eigenvalues --   -0.83387  -0.82961  -0.82270  -0.81605  -0.81460
 Alpha  occ. eigenvalues --   -0.80636  -0.79644  -0.78765  -0.78450  -0.77707
 Alpha  occ. eigenvalues --   -0.77323  -0.76385  -0.76035  -0.75716  -0.73783
 Alpha  occ. eigenvalues --   -0.73084  -0.72389  -0.71889  -0.71300  -0.71274
 Alpha  occ. eigenvalues --   -0.71151  -0.70872  -0.70667  -0.69574  -0.68194
 Alpha  occ. eigenvalues --   -0.67204  -0.66390  -0.65534  -0.65147  -0.63827
 Alpha  occ. eigenvalues --   -0.63542  -0.62257  -0.61095  -0.60615  -0.60539
 Alpha  occ. eigenvalues --   -0.60363  -0.60189  -0.59536  -0.59073  -0.58172
 Alpha  occ. eigenvalues --   -0.57432  -0.56882  -0.55983  -0.55960  -0.54836
 Alpha  occ. eigenvalues --   -0.54476  -0.54095  -0.53338  -0.53105  -0.52463
 Alpha  occ. eigenvalues --   -0.52088  -0.51788  -0.51526  -0.51305  -0.50848
 Alpha  occ. eigenvalues --   -0.50618  -0.50469  -0.50193  -0.49798  -0.49653
 Alpha  occ. eigenvalues --   -0.49419  -0.49152  -0.48942  -0.48816  -0.48546
 Alpha  occ. eigenvalues --   -0.48070  -0.47787  -0.47483  -0.47228  -0.47170
 Alpha  occ. eigenvalues --   -0.47051  -0.46997  -0.46626  -0.46126  -0.45865
 Alpha  occ. eigenvalues --   -0.45806  -0.45480  -0.45337  -0.45125  -0.44895
 Alpha  occ. eigenvalues --   -0.44801  -0.44491  -0.44395  -0.44199  -0.44066
 Alpha  occ. eigenvalues --   -0.43855  -0.43689  -0.43355  -0.42702  -0.42598
 Alpha  occ. eigenvalues --   -0.42266  -0.42069  -0.42028  -0.41820  -0.41787
 Alpha  occ. eigenvalues --   -0.41667  -0.41504  -0.41307  -0.41180  -0.41133
 Alpha  occ. eigenvalues --   -0.40868  -0.40709  -0.40452  -0.40352  -0.40044
 Alpha  occ. eigenvalues --   -0.39898  -0.39633  -0.39575  -0.38918  -0.38896
 Alpha  occ. eigenvalues --   -0.38622  -0.38617  -0.38425  -0.38075  -0.37921
 Alpha  occ. eigenvalues --   -0.37720  -0.37490  -0.37402  -0.37160  -0.36954
 Alpha  occ. eigenvalues --   -0.36822  -0.36579  -0.36461  -0.36311  -0.36081
 Alpha  occ. eigenvalues --   -0.35830  -0.35512  -0.35249  -0.35088  -0.34998
 Alpha  occ. eigenvalues --   -0.34808  -0.34396  -0.33994  -0.33736  -0.33515
 Alpha  occ. eigenvalues --   -0.33344  -0.33126  -0.33069  -0.32778  -0.32424
 Alpha  occ. eigenvalues --   -0.32045  -0.31863  -0.31010  -0.30751  -0.30650
 Alpha  occ. eigenvalues --   -0.30473  -0.29693  -0.29029  -0.27776  -0.27693
 Alpha  occ. eigenvalues --   -0.26618  -0.26479  -0.25587  -0.24884  -0.21522
 Alpha  occ. eigenvalues --   -0.19746
 Alpha virt. eigenvalues --   -0.06979  -0.03712   0.00198   0.02292   0.03850
 Alpha virt. eigenvalues --    0.04250   0.04685   0.05046   0.05718   0.06022
 Alpha virt. eigenvalues --    0.06787   0.08332   0.09002   0.09134   0.10144

 Mulliken charges:
               1
     1  Mg   0.809337
     2  C    0.129427
     3  C   -0.180613
     4  C   -0.160944
     5  C   -0.192362
     6  N   -0.637092
     7  C    0.301584
     8  C   -0.139806
     9  C   -0.144982
    10  C    0.323429
    11  C   -0.313333
    12  C   -0.151644
    13  C   -0.285375
    14  C    0.591024
    15  O   -0.506467
    16  O   -0.420298
    17  N   -0.708275
    18  C    0.313358
    19  C   -0.034374
    20  C    0.009858
    21  C    0.323702
    22  C   -0.365415
    23  C   -0.053884
    24  C   -0.251047
    25  N   -0.661557
    26  C    0.305423
    27  C    0.023473
    28  C    0.023801
    29  C    0.241632
    30  C   -0.379679
    31  C   -0.257494
    32  C   -0.299148
    33  N   -0.754167
    34  C    0.321600
    35  C   -0.027781
    36  C    0.052773
    37  C    0.301227
    38  C   -0.344279
    39  C    0.356660
    40  O   -0.470702
    41  C   -0.361014
    42  C    0.589723
    43  O   -0.422188
    44  O   -0.458860
    45  C   -0.072202
    46  C    0.011811
    47  C   -0.136339
    48  C    0.185714
    49  C   -0.370081
    50  C   -0.219252
    51  C   -0.191774
    52  C   -0.166287
    53  C   -0.060765
    54  C   -0.298538
    55  C   -0.168914
    56  C   -0.159707
    57  C   -0.169621
    58  C   -0.074316
    59  C   -0.299734
    60  C   -0.159698
    61  C   -0.169064
    62  C   -0.159145
    63  C   -0.055542
    64  C   -0.305376
    65  C   -0.288311
    66  H    0.058751
    67  H    0.100479
    68  H    0.092044
    69  H    0.111318
    70  H    0.101827
    71  H    0.093982
    72  H    0.108430
    73  H    0.142681
    74  H    0.129144
    75  H    0.122211
    76  H    0.101174
    77  H    0.133501
    78  H    0.134740
    79  H    0.130506
    80  H    0.116185
    81  H    0.078440
    82  H    0.086722
    83  H    0.104633
    84  H    0.137579
    85  H    0.115633
    86  H    0.109019
    87  H    0.091181
    88  H    0.103908
    89  H    0.104566
    90  H    0.123789
    91  H    0.096273
    92  H    0.108564
    93  H    0.140482
    94  H    0.136144
    95  H    0.147308
    96  H    0.126314
    97  H    0.111095
    98  H    0.125259
    99  H    0.131250
   100  H    0.086804
   101  H    0.086657
   102  H    0.103316
   103  H    0.131550
   104  H    0.097178
   105  H    0.102833
   106  H    0.070769
   107  H    0.098466
   108  H    0.094605
   109  H    0.090381
   110  H    0.085193
   111  H    0.085018
   112  H    0.106731
   113  H    0.104856
   114  H    0.088021
   115  H    0.075570
   116  H    0.096450
   117  H    0.093037
   118  H    0.073567
   119  H    0.079862
   120  H    0.067019
   121  H    0.080456
   122  H    0.114263
   123  H    0.096690
   124  H    0.075689
   125  H    0.097537
   126  H    0.079509
   127  H    0.082458
   128  H    0.114064
   129  H    0.095583
   130  H    0.044610
   131  H    0.087687
   132  H    0.093720
   133  H    0.107782
   134  H    0.077657
   135  H    0.088370
   136  H    0.075919
   137  H    0.106880
 Sum of Mulliken charges =  -0.00000

 Dipole moment (field-independent basis, Debye):
    X=              2.3504    Y=              4.5771    Z=              0.9741  Tot=              5.2367
 Quadrupole moment (field-independent basis, Debye-Ang):
   XX=           -344.8219   YY=           -402.6065   ZZ=           -396.5512
   XY=            -13.9352   XZ=              7.6269   YZ=             -1.7799

 Normal termination of Gaussian 16 at Sun Sep 15 14:53:09 2019.
