 Gaussian 16, Revision A.03,
 Gaussian 16:  ES64L-G16RevA.03 25-Dec-2016

 ----------------------------------------------------------------------
 # td=(NStates=1) iop(3/107=0140000000,3/108=0140000000) CAM-B3LYP/6-31
 G(d,p)
 ----------------------------------------------------------------------

 --
 TD
 --
 Symbolic Z-matrix:
 Charge =  0 Multiplicity = 1

                         Standard orientation:
 ---------------------------------------------------------------------
 Center     Atomic      Atomic             Coordinates (Angstroms)
 Number     Number       Type             X           Y           Z
 ---------------------------------------------------------------------
      1         12           0       -7.123981    0.620876    0.063322
      2          6           0       -4.800385   -1.974339    0.406450
      3          6           0       -4.824784    2.859289    0.958480
      4          6           0       -9.469830    3.097487   -0.350462
      5          6           0       -9.662691   -1.696523   -0.654286
      6          7           0       -5.153135    0.495059    0.661464
      7          6           0       -4.326698   -0.719533    0.781154
      8          6           0       -2.973176   -0.444402    1.218461
      9          6           0       -2.937717    1.100534    1.523957
     10          6           0       -4.332026    1.507483    1.085712
     11          6           0       -2.920827    1.227077    3.132819
     12          6           0       -1.983993   -0.581380    0.070998
     13          6           0       -0.464344   -0.459169    0.544448
     14          6           0        0.529692   -0.753061   -0.604397
     15          8           0        0.194039   -0.949015   -1.781698
     16          8           0        1.774597   -0.500514   -0.203001
     17          7           0       -7.116852    2.655071    0.214743
     18          6           0       -6.054524    3.374948    0.731796
     19          6           0       -6.424111    4.741003    0.721482
     20          6           0       -7.710314    4.851418    0.400667
     21          6           0       -8.161243    3.563140    0.040522
     22          6           0       -5.445232    5.907680    1.026073
     23          6           0       -8.667834    6.011075    0.344447
     24          6           0       -8.423260    7.280269    0.785837
     25          7           0       -9.079909    0.672153   -0.482864
     26          6           0       -9.902589    1.796120   -0.611238
     27          6           0      -11.168383    1.501811   -1.111012
     28          6           0      -11.229833    0.128976   -1.241759
     29          6           0       -9.904176   -0.320488   -0.932495
     30          6           0      -12.252876    2.560739   -1.449479
     31          6           0      -12.341806   -0.692602   -1.798421
     32          6           0      -12.129630   -1.381960   -3.179851
     33          7           0       -7.319798   -1.380092   -0.155442
     34          6           0       -8.319628   -2.196017   -0.514497
     35          6           0       -7.956765   -3.598189   -0.417567
     36          6           0       -6.567316   -3.522480   -0.153558
     37          6           0       -6.269735   -2.236521    0.140762
     38          6           0       -8.774284   -4.891482   -0.792201
     39          6           0       -5.471361   -4.414394    0.166468
     40          8           0       -5.276518   -5.635950    0.036111
     41          6           0       -4.265060   -3.325619    0.595793
     42          6           0       -3.524871   -3.736781    1.863372
     43          8           0       -3.705888   -3.227686    2.926655
     44          8           0       -2.690352   -4.713481    1.785732
     45          6           0       -2.047016   -5.079942    3.065350
     46          6           0        2.746587   -0.814786   -1.171737
     47          6           0        4.133657   -0.517849   -0.538656
     48          6           0        5.064253    0.324782   -0.897694
     49          6           0        5.007638    1.111306   -2.143274
     50          6           0        6.357600    0.357359   -0.088224
     51          6           0        7.695420   -0.042597   -0.919452
     52          6           0        8.928141    0.016491   -0.068865
     53          6           0       10.291481   -0.442685   -0.820392
     54          6           0       10.160357   -1.922849   -1.328376
     55          6           0       11.422834   -0.206925    0.008262
     56          6           0       12.832726   -0.387459   -0.570817
     57          6           0       13.989478   -0.092923    0.297902
     58          6           0       15.326761   -0.191257   -0.406745
     59          6           0       15.658356   -1.562240   -1.027413
     60          6           0       16.518187    0.319863    0.441562
     61          6           0       17.892986    0.578903   -0.285183
     62          6           0       18.885911    1.123696    0.728328
     63          6           0       20.316656    1.338562    0.158088
     64          6           0       20.273843    2.259738   -1.096353
     65          6           0       21.245160    1.812679    1.312225
     66          1           0       -4.004125    3.555866    1.322355
     67          1           0      -10.009096    4.044208   -0.436612
     68          1           0      -10.313022   -2.410442   -1.164398
     69          1           0       -2.600284   -0.998205    2.057284
     70          1           0       -1.998673    1.583464    1.135794
     71          1           0       -1.888607    0.771409    3.548078
     72          1           0       -3.132239    2.270779    3.408560
     73          1           0       -3.783426    0.869446    3.661616
     74          1           0       -2.160814   -1.437230   -0.322427
     75          1           0       -2.066425    0.363356   -0.651258
     76          1           0       -0.196067    0.540201    0.997236
     77          1           0       -0.195047   -1.560558    1.334548
     78          1           0       -5.709888    6.735750    0.404802
     79          1           0       -5.829723    6.388870    2.067706
     80          1           0       -4.371611    5.690251    1.170984
     81          1           0       -9.665072    5.983992   -0.097789
     82          1           0       -9.069134    8.029956    0.771602
     83          1           0       -7.297219    7.544323    1.233890
     84          1           0      -11.843781    3.105555   -2.236250
     85          1           0      -13.181225    1.951905   -1.306649
     86          1           0      -12.370044    3.260275   -0.486843
     87          1           0      -12.543249   -1.521945   -1.225399
     88          1           0      -13.331700   -0.012255   -2.057287
     89          1           0      -12.830490   -2.320093   -3.377518
     90          1           0      -12.023361   -0.567225   -3.864467
     91          1           0      -10.964300   -1.742065   -3.136570
     92          1           0       -9.012954   -4.719695   -1.908493
     93          1           0       -8.195839   -5.732329   -0.641825
     94          1           0       -9.744695   -4.973697    0.078344
     95          1           0       -3.739234   -3.510272   -0.373620
     96          1           0       -1.398530   -4.266673    3.495977
     97          1           0       -2.751804   -5.269090    3.756336
     98          1           0       -1.605246   -6.059023    2.971711
     99          1           0        2.995511   -1.881115   -1.244814
    100          1           0        2.538608   -0.272728   -2.020261
    101          1           0        4.296191   -1.320924    0.184127
    102          1           0        3.983224    1.144598   -2.472279
    103          1           0        5.373440    2.142126   -2.316100
    104          1           0        5.696618    0.358064   -2.878906
    105          1           0        6.531364    1.225383    0.279529
    106          1           0        6.369484   -0.313046    0.850530
    107          1           0        7.469250   -0.989406   -1.405164
    108          1           0        7.660860    0.568740   -1.812010
    109          1           0        9.093233    0.945111    0.347924
    110          1           0        8.848088   -0.530023    0.910908
    111          1           0       10.168592    0.177213   -1.914901
    112          1           0        9.450894   -2.025483   -2.131370
    113          1           0       11.018558   -2.389471   -1.947055
    114          1           0       10.115829   -2.703052   -0.524257
    115          1           0       11.463374    0.672136    0.736602
    116          1           0       11.444143   -0.924204    0.800224
    117          1           0       12.910092   -1.311195   -0.851197
    118          1           0       12.767249    0.249501   -1.526226
    119          1           0       13.776535    0.891824    0.871344
    120          1           0       13.978105   -1.174511    1.104564
    121          1           0       15.311222    0.370853   -1.260571
    122          1           0       15.836463   -2.307131   -0.232315
    123          1           0       14.606271   -1.890389   -1.641863
    124          1           0       16.358465   -1.508603   -1.957923
    125          1           0       16.149816    1.302189    0.859067
    126          1           0       16.626928   -0.537402    1.145845
    127          1           0       18.276854   -0.209806   -0.672071
    128          1           0       17.647030    1.206652   -1.217552
    129          1           0       18.611650    1.930257    1.299218
    130          1           0       18.801134    0.427262    1.629987
    131          1           0       20.916268    0.358462   -0.167327
    132          1           0       19.742640    3.287555   -1.052778
    133          1           0       21.531433    2.285250   -1.258876
    134          1           0       19.830476    1.670607   -2.040234
    135          1           0       20.940060    1.288028    2.244875
    136          1           0       22.228368    1.747432    1.018673
    137          1           0       20.854751    2.841900    1.335586
 ---------------------------------------------------------------------

 SCF Done:  E(RCAM-B3LYP) =  -2933.37555367     A.U. after   16 cycles

 Excitation energies and oscillator strengths:

 Excited State   1:      Singlet-A      1.9223 eV  644.98 nm  f=0.2322  <S**2>=0.000
     240 -> 243       -0.19632
     241 -> 242        0.67560
 This state for optimization and/or second-order correction.
 Total Energy, E(TD-HF/TD-DFT) =  -2933.30491079
 Copying the excited state density for this state as the 1-particle RhoCI density.

 The electronic state is 1-A.
 Alpha  occ. eigenvalues --  -46.79200 -19.22841 -19.21827 -19.16574 -19.16565
 Alpha  occ. eigenvalues --  -19.14559 -14.38531 -14.34895 -14.34891 -14.34458
 Alpha  occ. eigenvalues --  -10.34897 -10.33463 -10.31087 -10.27813 -10.26711
 Alpha  occ. eigenvalues --  -10.26649 -10.26342 -10.26302 -10.24924 -10.24883
 Alpha  occ. eigenvalues --  -10.24843 -10.24491 -10.24277 -10.24267 -10.24262
 Alpha  occ. eigenvalues --  -10.23982 -10.23895 -10.23881 -10.23863 -10.23638
 Alpha  occ. eigenvalues --  -10.23562 -10.23447 -10.23433 -10.23177 -10.23135
 Alpha  occ. eigenvalues --  -10.22846 -10.22769 -10.22760 -10.22738 -10.22686
 Alpha  occ. eigenvalues --  -10.22664 -10.22613 -10.22612 -10.22601 -10.22580
 Alpha  occ. eigenvalues --  -10.22472 -10.22426 -10.22358 -10.22313 -10.22170
 Alpha  occ. eigenvalues --  -10.21821 -10.21566 -10.21178 -10.21146 -10.21137
 Alpha  occ. eigenvalues --  -10.20990 -10.20835 -10.20833 -10.20599 -10.20437
 Alpha  occ. eigenvalues --  -10.20352 -10.20195 -10.19907 -10.19635 -10.19281
 Alpha  occ. eigenvalues --   -3.07913  -1.82846  -1.82398  -1.82320  -1.14778
 Alpha  occ. eigenvalues --   -1.14360  -1.04515  -1.03686  -1.03389  -0.99131
 Alpha  occ. eigenvalues --   -0.98419  -0.97770  -0.97006  -0.87265  -0.86366
 Alpha  occ. eigenvalues --   -0.85921  -0.85360  -0.84428  -0.83814  -0.83591
 Alpha  occ. eigenvalues --   -0.83089  -0.83046  -0.82011  -0.80958  -0.80817
 Alpha  occ. eigenvalues --   -0.79758  -0.79186  -0.78403  -0.78091  -0.77646
 Alpha  occ. eigenvalues --   -0.77022  -0.76445  -0.75957  -0.75341  -0.73189
 Alpha  occ. eigenvalues --   -0.73057  -0.72418  -0.71820  -0.71484  -0.70742
 Alpha  occ. eigenvalues --   -0.70195  -0.70090  -0.69193  -0.69107  -0.67735
 Alpha  occ. eigenvalues --   -0.67171  -0.66200  -0.65388  -0.64572  -0.63923
 Alpha  occ. eigenvalues --   -0.63467  -0.62689  -0.61748  -0.61361  -0.60607
 Alpha  occ. eigenvalues --   -0.59803  -0.59399  -0.58967  -0.57997  -0.57540
 Alpha  occ. eigenvalues --   -0.57462  -0.57026  -0.56873  -0.56572  -0.55180
 Alpha  occ. eigenvalues --   -0.54855  -0.54257  -0.53710  -0.53370  -0.53094
 Alpha  occ. eigenvalues --   -0.51963  -0.51618  -0.51565  -0.51366  -0.50760
 Alpha  occ. eigenvalues --   -0.50468  -0.50006  -0.49653  -0.49413  -0.49258
 Alpha  occ. eigenvalues --   -0.49196  -0.48807  -0.48716  -0.48188  -0.48026
 Alpha  occ. eigenvalues --   -0.47937  -0.47295  -0.47081  -0.46783  -0.46658
 Alpha  occ. eigenvalues --   -0.46469  -0.46155  -0.46040  -0.45773  -0.45695
 Alpha  occ. eigenvalues --   -0.45375  -0.45280  -0.45173  -0.44804  -0.44658
 Alpha  occ. eigenvalues --   -0.44426  -0.44362  -0.44029  -0.43908  -0.43798
 Alpha  occ. eigenvalues --   -0.43676  -0.43188  -0.42716  -0.42675  -0.42338
 Alpha  occ. eigenvalues --   -0.42110  -0.41884  -0.41678  -0.41566  -0.41449
 Alpha  occ. eigenvalues --   -0.41176  -0.40981  -0.40821  -0.40734  -0.40584
 Alpha  occ. eigenvalues --   -0.40505  -0.40021  -0.39786  -0.39647  -0.39536
 Alpha  occ. eigenvalues --   -0.39458  -0.39305  -0.39004  -0.38800  -0.38629
 Alpha  occ. eigenvalues --   -0.38475  -0.38197  -0.37962  -0.37919  -0.37862
 Alpha  occ. eigenvalues --   -0.37659  -0.37568  -0.37176  -0.37158  -0.36919
 Alpha  occ. eigenvalues --   -0.36771  -0.36668  -0.36580  -0.36501  -0.35617
 Alpha  occ. eigenvalues --   -0.35516  -0.35145  -0.34936  -0.34733  -0.34304
 Alpha  occ. eigenvalues --   -0.34266  -0.34135  -0.34054  -0.33786  -0.33503
 Alpha  occ. eigenvalues --   -0.33418  -0.33217  -0.32850  -0.32719  -0.32572
 Alpha  occ. eigenvalues --   -0.32357  -0.31996  -0.31469  -0.31046  -0.30556
 Alpha  occ. eigenvalues --   -0.29909  -0.29694  -0.29126  -0.28096  -0.26845
 Alpha  occ. eigenvalues --   -0.26724  -0.26545  -0.26051  -0.25229  -0.21826
 Alpha  occ. eigenvalues --   -0.19972
 Alpha virt. eigenvalues --   -0.07684  -0.03911  -0.00443   0.01828   0.02917
 Alpha virt. eigenvalues --    0.04571   0.04803   0.04984   0.05189   0.05621
 Alpha virt. eigenvalues --    0.06397   0.07414   0.08743   0.08850   0.09117

 Mulliken charges:
               1
     1  Mg   0.809490
     2  C    0.042819
     3  C   -0.217001
     4  C   -0.159943
     5  C   -0.139615
     6  N   -0.603236
     7  C    0.288893
     8  C   -0.148320
     9  C   -0.150215
    10  C    0.338140
    11  C   -0.321258
    12  C   -0.127772
    13  C   -0.253737
    14  C    0.605133
    15  O   -0.480006
    16  O   -0.430906
    17  N   -0.712731
    18  C    0.340343
    19  C    0.028291
    20  C    0.050702
    21  C    0.253631
    22  C   -0.386131
    23  C   -0.076548
    24  C   -0.232650
    25  N   -0.652203
    26  C    0.313905
    27  C    0.009373
    28  C    0.052579
    29  C    0.248984
    30  C   -0.354851
    31  C   -0.248101
    32  C   -0.306234
    33  N   -0.663616
    34  C    0.245645
    35  C   -0.008585
    36  C    0.022594
    37  C    0.255931
    38  C   -0.351701
    39  C    0.351030
    40  O   -0.468775
    41  C   -0.325527
    42  C    0.601560
    43  O   -0.487012
    44  O   -0.426505
    45  C   -0.091730
    46  C    0.021118
    47  C   -0.166039
    48  C    0.142716
    49  C   -0.358704
    50  C   -0.222898
    51  C   -0.201373
    52  C   -0.169030
    53  C   -0.028637
    54  C   -0.318673
    55  C   -0.186094
    56  C   -0.149464
    57  C   -0.147229
    58  C   -0.046657
    59  C   -0.314730
    60  C   -0.172949
    61  C   -0.163483
    62  C   -0.167207
    63  C   -0.063262
    64  C   -0.279920
    65  C   -0.303513
    66  H    0.064608
    67  H    0.064459
    68  H    0.087335
    69  H    0.134680
    70  H    0.105078
    71  H    0.098829
    72  H    0.101469
    73  H    0.137709
    74  H    0.112542
    75  H    0.105632
    76  H    0.134215
    77  H    0.072220
    78  H    0.141526
    79  H    0.105454
    80  H    0.119421
    81  H    0.101042
    82  H    0.103789
    83  H    0.067445
    84  H    0.143235
    85  H    0.125273
    86  H    0.101120
    87  H    0.121277
    88  H    0.081729
    89  H    0.105272
    90  H    0.122020
    91  H    0.080147
    92  H    0.128554
    93  H    0.157281
    94  H    0.089525
    95  H    0.163059
    96  H    0.125163
    97  H    0.149579
    98  H    0.124753
    99  H    0.121793
   100  H    0.121702
   101  H    0.088771
   102  H    0.115039
   103  H    0.120340
   104  H    0.096545
   105  H    0.115327
   106  H    0.083281
   107  H    0.101295
   108  H    0.095617
   109  H    0.103729
   110  H    0.083163
   111  H    0.046317
   112  H    0.109143
   113  H    0.086768
   114  H    0.101474
   115  H    0.074788
   116  H    0.097488
   117  H    0.114281
   118  H    0.071276
   119  H    0.083436
   120  H    0.021135
   121  H    0.092633
   122  H    0.106588
   123  H    0.065137
   124  H    0.105147
   125  H    0.082644
   126  H    0.084785
   127  H    0.111003
   128  H    0.072966
   129  H    0.096755
   130  H    0.074530
   131  H    0.065160
   132  H    0.103371
   133  H    0.064585
   134  H    0.096228
   135  H    0.104122
   136  H    0.107123
   137  H    0.100970
 Sum of Mulliken charges =  -0.00000

 Dipole moment (field-independent basis, Debye):
    X=              2.1126    Y=              4.4978    Z=              0.6229  Tot=              5.0082
 Quadrupole moment (field-independent basis, Debye-Ang):
   XX=           -354.6326   YY=           -392.6002   ZZ=           -398.8113
   XY=            -26.7801   XZ=              8.6288   YZ=             -3.3304

 Normal termination of Gaussian 16 at Thu Sep 12 11:33:01 2019.
