 Gaussian 16, Revision A.03,
 Gaussian 16:  ES64L-G16RevA.03 25-Dec-2016

 ----------------------------------------------------------------------
 # td=(NStates=1) iop(3/107=0140000000,3/108=0140000000) CAM-B3LYP/6-31
 G(d,p)
 ----------------------------------------------------------------------

 --
 TD
 --
 Symbolic Z-matrix:
 Charge =  0 Multiplicity = 1

                         Standard orientation:
 ---------------------------------------------------------------------
 Center     Atomic      Atomic             Coordinates (Angstroms)
 Number     Number       Type             X           Y           Z
 ---------------------------------------------------------------------
      1         12           0       -7.136115    0.609706    0.038255
      2          6           0       -4.833542   -1.943002    0.530079
      3          6           0       -4.857585    2.837176    1.206596
      4          6           0       -9.459618    3.038104   -0.390202
      5          6           0       -9.584769   -1.686324   -0.871758
      6          7           0       -5.109006    0.445441    0.654220
      7          6           0       -4.388876   -0.694538    0.853803
      8          6           0       -2.971785   -0.345982    1.185872
      9          6           0       -3.083123    1.083469    1.642683
     10          6           0       -4.422213    1.496727    1.140424
     11          6           0       -2.892951    1.162711    3.178936
     12          6           0       -1.883434   -0.495899    0.115338
     13          6           0       -0.510358   -0.459626    0.523707
     14          6           0        0.546218   -0.641911   -0.553585
     15          8           0        0.292377   -0.773904   -1.749875
     16          8           0        1.817131   -0.594124   -0.006443
     17          7           0       -7.126803    2.603530    0.342623
     18          6           0       -6.078964    3.351106    0.851314
     19          6           0       -6.457551    4.782793    0.779928
     20          6           0       -7.751036    4.890321    0.334932
     21          6           0       -8.184492    3.410155   -0.031234
     22          6           0       -5.650320    5.997278    1.067942
     23          6           0       -8.572606    6.017877    0.101080
     24          6           0       -8.447822    7.198780    0.722237
     25          7           0       -9.156792    0.651768   -0.626700
     26          6           0       -9.913217    1.751801   -0.696422
     27          6           0      -11.234917    1.490592   -1.109411
     28          6           0      -11.274161    0.039276   -1.235559
     29          6           0       -9.936341   -0.380068   -0.902540
     30          6           0      -12.432309    2.414228   -1.453062
     31          6           0      -12.481553   -0.764816   -1.713339
     32          6           0      -12.379211   -1.296916   -3.168165
     33          7           0       -7.176270   -1.381783   -0.123724
     34          6           0       -8.275212   -2.199615   -0.420975
     35          6           0       -7.761384   -3.542469   -0.426258
     36          6           0       -6.516607   -3.445073   -0.110121
     37          6           0       -6.169414   -2.161948    0.181310
     38          6           0       -8.560687   -4.799254   -0.808125
     39          6           0       -5.314368   -4.335957    0.229812
     40          8           0       -5.079775   -5.527877    0.084042
     41          6           0       -4.094772   -3.274397    0.459845
     42          6           0       -3.449191   -3.723220    1.863005
     43          8           0       -3.592493   -3.221237    2.912844
     44          8           0       -2.583609   -4.852095    1.686070
     45          6           0       -1.910149   -5.124688    2.912902
     46          6           0        2.838035   -0.650070   -1.062653
     47          6           0        4.141043   -0.423065   -0.291313
     48          6           0        5.134942    0.384914   -0.790714
     49          6           0        5.149236    1.193651   -2.062732
     50          6           0        6.496932    0.251854   -0.035000
     51          6           0        7.658996   -0.160258   -0.961852
     52          6           0        8.951176   -0.086337   -0.219545
     53          6           0       10.256800   -0.643436   -0.945242
     54          6           0       10.059018   -2.047755   -1.326815
     55          6           0       11.470985   -0.424771   -0.077996
     56          6           0       12.713653   -0.669016   -0.645699
     57          6           0       13.961075   -0.125357    0.086339
     58          6           0       15.345545   -0.251777   -0.520713
     59          6           0       15.705205   -1.547663   -1.075807
     60          6           0       16.395181    0.384944    0.386914
     61          6           0       17.807305    0.572492   -0.249707
     62          6           0       18.754140    1.350975    0.741394
     63          6           0       20.185608    1.449300    0.213110
     64          6           0       20.242657    2.299945   -1.031710
     65          6           0       21.015655    2.042261    1.354197
     66          1           0       -4.232603    3.570902    1.526400
     67          1           0      -10.096474    3.923681   -0.642792
     68          1           0      -10.436360   -2.749518   -1.032418
     69          1           0       -2.726276   -0.939219    2.042477
     70          1           0       -2.330271    1.723651    1.230086
     71          1           0       -2.104327    0.601968    3.463478
     72          1           0       -3.004001    2.187373    3.437605
     73          1           0       -3.834312    0.604557    3.651320
     74          1           0       -2.168827   -1.387101   -0.229222
     75          1           0       -2.164708    0.299418   -0.640554
     76          1           0       -0.315122    0.370613    1.018111
     77          1           0       -0.205976   -1.254250    1.299895
     78          1           0       -5.737785    6.833981    0.408365
     79          1           0       -5.603166    6.255607    2.096267
     80          1           0       -4.539091    5.746947    0.930619
     81          1           0       -9.314954    6.015254   -0.733953
     82          1           0       -9.177213    7.982777    0.418506
     83          1           0       -7.863923    7.469989    1.554323
     84          1           0      -12.153916    2.867430   -2.571093
     85          1           0      -13.409578    1.851375   -1.586958
     86          1           0      -12.468113    3.285313   -0.713943
     87          1           0      -12.450585   -1.691383   -1.074444
     88          1           0      -13.363802   -0.242789   -1.775018
     89          1           0      -13.217715   -2.059821   -3.269566
     90          1           0      -12.478062   -0.298702   -3.764849
     91          1           0      -11.583246   -1.995262   -3.454084
     92          1           0       -9.366110   -4.554854   -1.722703
     93          1           0       -7.925505   -5.919516   -0.996654
     94          1           0       -9.272218   -4.960157    0.090373
     95          1           0       -3.402472   -3.396049   -0.225066
     96          1           0       -1.459677   -4.281865    3.202853
     97          1           0       -2.832996   -5.220734    3.797283
     98          1           0       -1.140989   -6.015013    2.794890
     99          1           0        2.696042   -1.731441   -1.590553
    100          1           0        2.749210   -0.042810   -1.822560
    101          1           0        4.321817   -1.045875    0.679589
    102          1           0        4.037413    1.522132   -2.083844
    103          1           0        5.901032    2.227617   -1.907657
    104          1           0        5.448285    0.512811   -3.053451
    105          1           0        6.946682    1.352675    0.464791
    106          1           0        6.533200   -0.350295    0.731148
    107          1           0        7.439717   -1.211738   -1.330757
    108          1           0        7.840283    0.251829   -1.901687
    109          1           0        9.267540    0.988620    0.152187
    110          1           0        8.933009   -0.788299    0.730768
    111          1           0       10.465619    0.065549   -1.806212
    112          1           0        9.284893   -2.294602   -1.950809
    113          1           0       10.903902   -2.511905   -1.925130
    114          1           0       10.053454   -2.864525   -0.489571
    115          1           0       11.568233    0.567890    0.456187
    116          1           0       11.401482   -1.121915    0.956858
    117          1           0       12.832029   -1.719610   -0.741294
    118          1           0       12.722137   -0.319758   -1.718733
    119          1           0       13.844803    0.971280    0.275250
    120          1           0       13.983403   -0.735288    0.942912
    121          1           0       15.298162    0.269620   -1.414866
    122          1           0       15.849876   -2.217665   -0.210977
    123          1           0       14.917586   -1.894242   -1.816574
    124          1           0       16.633688   -1.524832   -1.578908
    125          1           0       15.874671    1.362641    0.741026
    126          1           0       16.150484   -0.267253    1.306980
    127          1           0       18.493029   -0.408868   -0.553804
    128          1           0       17.806047    1.185185   -1.392795
    129          1           0       18.463338    2.302072    0.911334
    130          1           0       18.792106    0.787835    1.633857
    131          1           0       20.565351    0.508939   -0.183974
    132          1           0       19.663470    3.169204   -1.104549
    133          1           0       21.359157    2.573906   -1.244696
    134          1           0       19.747714    1.924607   -1.946317
    135          1           0       21.132412    1.660819    2.297777
    136          1           0       22.058853    2.155388    0.948756
    137          1           0       20.617475    2.985303    1.560983
 ---------------------------------------------------------------------

 SCF Done:  E(RCAM-B3LYP) =  -2933.44465428     A.U. after   16 cycles

 Excitation energies and oscillator strengths:

 Excited State   1:      Singlet-A      2.1751 eV  570.02 nm  f=0.2102  <S**2>=0.000
     240 -> 243        0.25823
     241 -> 242        0.64893
 This state for optimization and/or second-order correction.
 Total Energy, E(TD-HF/TD-DFT) =  -2933.36472102
 Copying the excited state density for this state as the 1-particle RhoCI density.

 The electronic state is 1-A.
 Alpha  occ. eigenvalues --  -46.79940 -19.22495 -19.20735 -19.18183 -19.17247
 Alpha  occ. eigenvalues --  -19.16766 -14.37783 -14.35738 -14.34976 -14.34728
 Alpha  occ. eigenvalues --  -10.34948 -10.34809 -10.31168 -10.27680 -10.26855
 Alpha  occ. eigenvalues --  -10.26811 -10.26304 -10.25837 -10.25829 -10.25806
 Alpha  occ. eigenvalues --  -10.25481 -10.25033 -10.24898 -10.24664 -10.24492
 Alpha  occ. eigenvalues --  -10.24421 -10.24148 -10.24053 -10.23968 -10.23231
 Alpha  occ. eigenvalues --  -10.23193 -10.23166 -10.23074 -10.23058 -10.22679
 Alpha  occ. eigenvalues --  -10.22436 -10.22406 -10.22356 -10.22334 -10.22322
 Alpha  occ. eigenvalues --  -10.22243 -10.22174 -10.22159 -10.22116 -10.22094
 Alpha  occ. eigenvalues --  -10.22063 -10.21936 -10.21876 -10.21834 -10.21685
 Alpha  occ. eigenvalues --  -10.21349 -10.21248 -10.21156 -10.21140 -10.21118
 Alpha  occ. eigenvalues --  -10.20969 -10.20430 -10.20087 -10.19950 -10.19638
 Alpha  occ. eigenvalues --  -10.19511 -10.19310 -10.19168 -10.19071 -10.18987
 Alpha  occ. eigenvalues --   -3.08569  -1.83517  -1.83036  -1.82974  -1.13029
 Alpha  occ. eigenvalues --   -1.11883  -1.05801  -1.04661  -1.03889  -1.00768
 Alpha  occ. eigenvalues --   -0.99904  -0.99522  -0.97055  -0.87254  -0.86868
 Alpha  occ. eigenvalues --   -0.86759  -0.85499  -0.84828  -0.84783  -0.84145
 Alpha  occ. eigenvalues --   -0.84084  -0.83199  -0.82596  -0.82123  -0.81939
 Alpha  occ. eigenvalues --   -0.81000  -0.79570  -0.78318  -0.78124  -0.77659
 Alpha  occ. eigenvalues --   -0.76675  -0.76142  -0.75533  -0.75277  -0.73392
 Alpha  occ. eigenvalues --   -0.72820  -0.71982  -0.71578  -0.71406  -0.70878
 Alpha  occ. eigenvalues --   -0.70654  -0.70269  -0.70152  -0.68839  -0.67866
 Alpha  occ. eigenvalues --   -0.67526  -0.66732  -0.64955  -0.64687  -0.64078
 Alpha  occ. eigenvalues --   -0.62691  -0.62247  -0.61763  -0.60906  -0.60257
 Alpha  occ. eigenvalues --   -0.60061  -0.59614  -0.59438  -0.58632  -0.57992
 Alpha  occ. eigenvalues --   -0.57794  -0.56944  -0.56872  -0.55809  -0.54926
 Alpha  occ. eigenvalues --   -0.54641  -0.53934  -0.53766  -0.53542  -0.52799
 Alpha  occ. eigenvalues --   -0.52479  -0.51842  -0.51585  -0.50980  -0.50766
 Alpha  occ. eigenvalues --   -0.50396  -0.50317  -0.50128  -0.49766  -0.49561
 Alpha  occ. eigenvalues --   -0.49412  -0.49026  -0.48562  -0.48410  -0.48280
 Alpha  occ. eigenvalues --   -0.47847  -0.47733  -0.47345  -0.47228  -0.47085
 Alpha  occ. eigenvalues --   -0.46985  -0.46824  -0.46464  -0.46309  -0.46112
 Alpha  occ. eigenvalues --   -0.45784  -0.45346  -0.45276  -0.45000  -0.44920
 Alpha  occ. eigenvalues --   -0.44723  -0.44583  -0.43972  -0.43782  -0.43598
 Alpha  occ. eigenvalues --   -0.43355  -0.43091  -0.42936  -0.42676  -0.42563
 Alpha  occ. eigenvalues --   -0.42351  -0.42283  -0.42051  -0.41647  -0.41581
 Alpha  occ. eigenvalues --   -0.41251  -0.41232  -0.41127  -0.41077  -0.40873
 Alpha  occ. eigenvalues --   -0.40482  -0.40367  -0.40175  -0.39917  -0.39823
 Alpha  occ. eigenvalues --   -0.39706  -0.39422  -0.39369  -0.39040  -0.39017
 Alpha  occ. eigenvalues --   -0.38859  -0.38636  -0.38553  -0.38517  -0.38413
 Alpha  occ. eigenvalues --   -0.37944  -0.37794  -0.37499  -0.37478  -0.37281
 Alpha  occ. eigenvalues --   -0.36899  -0.36746  -0.36718  -0.36588  -0.36335
 Alpha  occ. eigenvalues --   -0.35682  -0.35315  -0.35194  -0.35086  -0.34775
 Alpha  occ. eigenvalues --   -0.34423  -0.34262  -0.34061  -0.33906  -0.33620
 Alpha  occ. eigenvalues --   -0.33401  -0.33271  -0.33013  -0.32774  -0.32300
 Alpha  occ. eigenvalues --   -0.31938  -0.31776  -0.31434  -0.30827  -0.30792
 Alpha  occ. eigenvalues --   -0.30647  -0.30441  -0.29901  -0.28940  -0.27541
 Alpha  occ. eigenvalues --   -0.26858  -0.26539  -0.25521  -0.24845  -0.22010
 Alpha  occ. eigenvalues --   -0.20283
 Alpha virt. eigenvalues --   -0.06562  -0.04260   0.00096   0.01748   0.02392
 Alpha virt. eigenvalues --    0.03851   0.04376   0.04417   0.04974   0.05527
 Alpha virt. eigenvalues --    0.05889   0.06263   0.08826   0.09190   0.09518

 Mulliken charges:
               1
     1  Mg   0.814231
     2  C    0.079290
     3  C   -0.180400
     4  C   -0.164149
     5  C   -0.166354
     6  N   -0.635776
     7  C    0.282336
     8  C   -0.173408
     9  C   -0.166170
    10  C    0.379605
    11  C   -0.301598
    12  C   -0.132083
    13  C   -0.257679
    14  C    0.609997
    15  O   -0.474371
    16  O   -0.481103
    17  N   -0.730444
    18  C    0.336749
    19  C    0.018297
    20  C    0.044969
    21  C    0.281456
    22  C   -0.396661
    23  C   -0.106958
    24  C   -0.232257
    25  N   -0.694393
    26  C    0.318088
    27  C    0.016507
    28  C    0.016859
    29  C    0.341957
    30  C   -0.365011
    31  C   -0.230809
    32  C   -0.303747
    33  N   -0.736643
    34  C    0.234390
    35  C   -0.001518
    36  C    0.025217
    37  C    0.323779
    38  C   -0.369547
    39  C    0.384390
    40  O   -0.442593
    41  C   -0.303792
    42  C    0.590946
    43  O   -0.424525
    44  O   -0.466850
    45  C   -0.067444
    46  C    0.023098
    47  C   -0.126083
    48  C    0.115206
    49  C   -0.342756
    50  C   -0.181724
    51  C   -0.178292
    52  C   -0.159521
    53  C   -0.054685
    54  C   -0.314317
    55  C   -0.146202
    56  C   -0.171089
    57  C   -0.177199
    58  C   -0.065427
    59  C   -0.301873
    60  C   -0.159355
    61  C   -0.168183
    62  C   -0.151319
    63  C   -0.060964
    64  C   -0.314472
    65  C   -0.315127
    66  H    0.059911
    67  H    0.078775
    68  H    0.074511
    69  H    0.112662
    70  H    0.102484
    71  H    0.125925
    72  H    0.111454
    73  H    0.101050
    74  H    0.110046
    75  H    0.107566
    76  H    0.140179
    77  H    0.124274
    78  H    0.138186
    79  H    0.132769
    80  H    0.092178
    81  H    0.100653
    82  H    0.091328
    83  H    0.111122
    84  H    0.099436
    85  H    0.118558
    86  H    0.119152
    87  H    0.098379
    88  H    0.109612
    89  H    0.094075
    90  H    0.099778
    91  H    0.113834
    92  H    0.093619
    93  H    0.123341
    94  H    0.122566
    95  H    0.157489
    96  H    0.128077
    97  H    0.093052
    98  H    0.113197
    99  H    0.107137
   100  H    0.128144
   101  H    0.097758
   102  H    0.116611
   103  H    0.098308
   104  H    0.116523
   105  H    0.045546
   106  H    0.108641
   107  H    0.089754
   108  H    0.103996
   109  H    0.076721
   110  H    0.072487
   111  H    0.080607
   112  H    0.114455
   113  H    0.092261
   114  H    0.093153
   115  H    0.079135
   116  H    0.043019
   117  H    0.104232
   118  H    0.071123
   119  H    0.082156
   120  H    0.090561
   121  H    0.084681
   122  H    0.080581
   123  H    0.094008
   124  H    0.107473
   125  H    0.083319
   126  H    0.083991
   127  H    0.078857
   128  H    0.056665
   129  H    0.101769
   130  H    0.100495
   131  H    0.088199
   132  H    0.103041
   133  H    0.083984
   134  H    0.095826
   135  H    0.110390
   136  H    0.085499
   137  H    0.107162
 Sum of Mulliken charges =  -0.00000

 Dipole moment (field-independent basis, Debye):
    X=              1.1157    Y=              5.6034    Z=              0.2607  Tot=              5.7193
 Quadrupole moment (field-independent basis, Debye-Ang):
   XX=           -349.3203   YY=           -396.5197   ZZ=           -399.0164
   XY=            -25.9222   XZ=              7.8413   YZ=              1.2179

 Normal termination of Gaussian 16 at Fri Sep 13 21:50:07 2019.
