 Gaussian 16, Revision A.03,
 Gaussian 16:  ES64L-G16RevA.03 25-Dec-2016

 ----------------------------------------------------------------------
 # td=(NStates=1) iop(3/107=0140000000,3/108=0140000000) CAM-B3LYP/6-31
 G(d,p)
 ----------------------------------------------------------------------

 --
 TD
 --
 Symbolic Z-matrix:
 Charge =  0 Multiplicity = 1

                         Standard orientation:
 ---------------------------------------------------------------------
 Center     Atomic      Atomic             Coordinates (Angstroms)
 Number     Number       Type             X           Y           Z
 ---------------------------------------------------------------------
      1         12           0       -7.147896    0.657717    0.133597
      2          6           0       -4.846302   -1.938464    0.567381
      3          6           0       -4.832498    2.826669    1.298876
      4          6           0       -9.338838    3.117009   -0.588295
      5          6           0       -9.478782   -1.639783   -0.840257
      6          7           0       -5.139377    0.464626    0.868600
      7          6           0       -4.393714   -0.677832    0.860172
      8          6           0       -2.955490   -0.439096    1.250270
      9          6           0       -3.027628    1.056318    1.795812
     10          6           0       -4.470450    1.553469    1.260268
     11          6           0       -2.826932    1.339650    3.282387
     12          6           0       -1.987402   -0.605230    0.096637
     13          6           0       -0.462301   -0.430453    0.524230
     14          6           0        0.447142   -0.685520   -0.691866
     15          8           0        0.252526   -0.997027   -1.821125
     16          8           0        1.756419   -0.587494   -0.249758
     17          7           0       -7.097791    2.613070    0.357326
     18          6           0       -6.092466    3.374878    0.917216
     19          6           0       -6.434193    4.744473    0.796743
     20          6           0       -7.703483    4.816993    0.274982
     21          6           0       -8.069695    3.470408    0.000114
     22          6           0       -5.471970    5.857582    1.162745
     23          6           0       -8.526250    6.050104   -0.024039
     24          6           0       -8.376878    7.247791    0.442471
     25          7           0       -9.107616    0.680692   -0.703466
     26          6           0       -9.837560    1.826943   -0.807193
     27          6           0      -11.235398    1.405332   -1.133898
     28          6           0      -11.208259    0.123679   -1.149792
     29          6           0       -9.872415   -0.375822   -0.836093
     30          6           0      -12.374665    2.419155   -1.336256
     31          6           0      -12.411764   -0.781067   -1.554264
     32          6           0      -12.323352   -1.221578   -2.986683
     33          7           0       -7.273022   -1.398623   -0.125548
     34          6           0       -8.220169   -2.286241   -0.558429
     35          6           0       -7.867326   -3.632247   -0.433695
     36          6           0       -6.481520   -3.554010   -0.087857
     37          6           0       -6.173580   -2.161455    0.100204
     38          6           0       -8.589716   -4.876159   -0.895955
     39          6           0       -5.273777   -4.299561    0.177369
     40          8           0       -5.132386   -5.577985    0.134367
     41          6           0       -4.139720   -3.295021    0.543617
     42          6           0       -3.532554   -3.623914    1.875153
     43          8           0       -3.744865   -3.061086    2.934060
     44          8           0       -2.678612   -4.687464    1.669742
     45          6           0       -2.039729   -5.067753    2.866241
     46          6           0        2.868725   -0.939380   -1.111166
     47          6           0        4.267776   -0.542281   -0.520983
     48          6           0        5.142717    0.278330   -0.882243
     49          6           0        4.985293    1.116486   -2.264193
     50          6           0        6.396352    0.380749   -0.216120
     51          6           0        7.609758   -0.282909   -0.924461
     52          6           0        8.876729   -0.083809   -0.169713
     53          6           0       10.174738   -0.484055   -0.848407
     54          6           0       10.036567   -2.059747   -1.156986
     55          6           0       11.394240   -0.139854   -0.104564
     56          6           0       12.777923   -0.428193   -0.811737
     57          6           0       13.983185   -0.172621    0.141348
     58          6           0       15.279785   -0.205262   -0.466697
     59          6           0       15.590387   -1.694951   -0.843863
     60          6           0       16.375241    0.381463    0.328999
     61          6           0       17.722318    0.559644   -0.287641
     62          6           0       18.824754    1.234071    0.727885
     63          6           0       20.215719    1.378785    0.257008
     64          6           0       20.346704    2.287060   -0.983801
     65          6           0       21.114168    2.027659    1.356646
     66          1           0       -4.163437    3.490900    1.718104
     67          1           0       -9.944079    4.103617   -1.019614
     68          1           0      -10.376164   -2.250045   -1.271537
     69          1           0       -2.702051   -1.046935    2.251347
     70          1           0       -2.308285    1.753769    1.474996
     71          1           0       -1.861129    1.069981    3.491228
     72          1           0       -3.157850    2.330699    3.658245
     73          1           0       -3.514212    0.683355    3.808847
     74          1           0       -2.093033   -1.575270   -0.268265
     75          1           0       -2.190988    0.026880   -0.683445
     76          1           0       -0.352680    0.619460    0.862191
     77          1           0       -0.087321   -1.106160    1.350459
     78          1           0       -5.898725    6.697301    0.484032
     79          1           0       -5.497258    6.369297    2.205520
     80          1           0       -4.522639    5.670796    0.889613
     81          1           0       -9.210104    5.833185   -0.838103
     82          1           0       -9.043431    7.835378   -0.030476
     83          1           0       -7.574362    7.548605    1.066222
     84          1           0      -12.147065    3.011054   -2.147841
     85          1           0      -13.319360    1.879482   -1.514983
     86          1           0      -12.417917    3.101213   -0.510498
     87          1           0      -12.372402   -1.661502   -1.128714
     88          1           0      -13.108981    0.007606   -1.231662
     89          1           0      -13.187901   -1.792872   -3.166770
     90          1           0      -12.249767   -0.533136   -3.674108
     91          1           0      -11.167086   -1.672769   -3.158977
     92          1           0       -8.850460   -4.858101   -1.901564
     93          1           0       -8.006265   -5.887277   -0.545819
     94          1           0       -9.633778   -4.817952   -0.437473
     95          1           0       -3.358250   -3.233693   -0.245162
     96          1           0       -1.492246   -4.326217    3.384615
     97          1           0       -2.755097   -5.562899    3.552555
     98          1           0       -1.320337   -5.900979    2.574045
     99          1           0        2.968969   -1.988013   -1.408747
    100          1           0        2.557330   -0.452413   -2.211346
    101          1           0        4.287373   -1.039403    0.397309
    102          1           0        3.971458    1.122691   -2.643024
    103          1           0        5.253652    2.216507   -2.185293
    104          1           0        5.460661    0.645840   -3.169667
    105          1           0        6.582550    1.502381   -0.067255
    106          1           0        6.339981   -0.052990    0.755077
    107          1           0        7.416046   -1.428565   -1.215157
    108          1           0        7.873425    0.283507   -1.795661
    109          1           0        9.085425    0.933382    0.026938
    110          1           0        8.817332   -0.450714    0.868256
    111          1           0       10.086766    0.044735   -1.944494
    112          1           0        9.077517   -2.145502   -1.729923
    113          1           0       10.891127   -2.678763   -1.660670
    114          1           0        9.815835   -2.640395   -0.320555
    115          1           0       11.303389    0.752344    0.483978
    116          1           0       11.422061   -0.807945    0.708601
    117          1           0       12.897368   -1.569899   -1.030419
    118          1           0       12.775899    0.068626   -1.882942
    119          1           0       13.699374    0.894060    0.254476
    120          1           0       14.014557   -0.901050    1.002434
    121          1           0       15.311348    0.318640   -1.400804
    122          1           0       15.618919   -2.370218    0.101804
    123          1           0       15.074339   -2.266988   -1.684881
    124          1           0       16.723860   -1.781355   -1.091043
    125          1           0       16.321936    1.381244    0.652535
    126          1           0       16.604271   -0.083862    1.353753
    127          1           0       18.078739   -0.396239   -0.834300
    128          1           0       17.476061    1.204580   -1.136185
    129          1           0       18.257874    2.051513    1.191208
    130          1           0       18.711021    0.479927    1.526576
    131          1           0       20.822325    0.588057   -0.053866
    132          1           0       19.685558    3.311578   -0.838509
    133          1           0       21.485469    2.589216   -1.231772
    134          1           0       19.834221    1.582256   -1.804469
    135          1           0       21.154619    1.549796    2.328673
    136          1           0       22.233101    2.112256    0.986865
    137          1           0       21.046964    2.989296    1.659891
 ---------------------------------------------------------------------

 SCF Done:  E(RCAM-B3LYP) =  -2933.52394514     A.U. after   16 cycles

 Excitation energies and oscillator strengths:

 Excited State   1:      Singlet-A      2.0479 eV  605.43 nm  f=0.3476  <S**2>=0.000
     240 -> 243        0.20742
     241 -> 242        0.67233
 This state for optimization and/or second-order correction.
 Total Energy, E(TD-HF/TD-DFT) =  -2933.44868717
 Copying the excited state density for this state as the 1-particle RhoCI density.

 The electronic state is 1-A.
 Alpha  occ. eigenvalues --  -46.80568 -19.22358 -19.20510 -19.17697 -19.17300
 Alpha  occ. eigenvalues --  -19.14956 -14.37635 -14.35482 -14.35199 -14.35079
 Alpha  occ. eigenvalues --  -10.34981 -10.34734 -10.30138 -10.28115 -10.26279
 Alpha  occ. eigenvalues --  -10.25901 -10.25765 -10.25515 -10.25456 -10.25347
 Alpha  occ. eigenvalues --  -10.24924 -10.24733 -10.24682 -10.24635 -10.24093
 Alpha  occ. eigenvalues --  -10.23856 -10.23706 -10.23558 -10.23021 -10.23016
 Alpha  occ. eigenvalues --  -10.22891 -10.22867 -10.22710 -10.22640 -10.22510
 Alpha  occ. eigenvalues --  -10.22462 -10.22386 -10.22331 -10.22326 -10.22086
 Alpha  occ. eigenvalues --  -10.21978 -10.21955 -10.21935 -10.21875 -10.21818
 Alpha  occ. eigenvalues --  -10.21647 -10.21602 -10.21541 -10.21396 -10.21172
 Alpha  occ. eigenvalues --  -10.21109 -10.21082 -10.20982 -10.20835 -10.20805
 Alpha  occ. eigenvalues --  -10.20700 -10.20560 -10.20537 -10.20481 -10.20437
 Alpha  occ. eigenvalues --  -10.20105 -10.20097 -10.20096 -10.20045 -10.19550
 Alpha  occ. eigenvalues --   -3.09093  -1.84045  -1.83561  -1.83495  -1.12997
 Alpha  occ. eigenvalues --   -1.12502  -1.05098  -1.03960  -1.01472  -1.00278
 Alpha  occ. eigenvalues --   -0.99531  -0.99009  -0.98133  -0.87820  -0.87034
 Alpha  occ. eigenvalues --   -0.86644  -0.84965  -0.84829  -0.84794  -0.84571
 Alpha  occ. eigenvalues --   -0.84016  -0.83851  -0.83116  -0.81744  -0.80932
 Alpha  occ. eigenvalues --   -0.80540  -0.80053  -0.79199  -0.78928  -0.78525
 Alpha  occ. eigenvalues --   -0.77236  -0.76677  -0.75849  -0.74452  -0.74094
 Alpha  occ. eigenvalues --   -0.73467  -0.72888  -0.71834  -0.71402  -0.71115
 Alpha  occ. eigenvalues --   -0.70813  -0.70241  -0.69471  -0.69422  -0.68662
 Alpha  occ. eigenvalues --   -0.67023  -0.66725  -0.65872  -0.65398  -0.64634
 Alpha  occ. eigenvalues --   -0.63331  -0.62738  -0.61597  -0.61082  -0.60184
 Alpha  occ. eigenvalues --   -0.59563  -0.59413  -0.58779  -0.58590  -0.58343
 Alpha  occ. eigenvalues --   -0.58146  -0.56749  -0.56482  -0.56106  -0.55903
 Alpha  occ. eigenvalues --   -0.55471  -0.54584  -0.54182  -0.53904  -0.53067
 Alpha  occ. eigenvalues --   -0.52186  -0.51788  -0.51618  -0.51365  -0.51289
 Alpha  occ. eigenvalues --   -0.50891  -0.50382  -0.49889  -0.49763  -0.49691
 Alpha  occ. eigenvalues --   -0.49503  -0.49111  -0.48874  -0.48408  -0.48314
 Alpha  occ. eigenvalues --   -0.47710  -0.47618  -0.47365  -0.47120  -0.46933
 Alpha  occ. eigenvalues --   -0.46760  -0.46543  -0.46438  -0.46343  -0.46218
 Alpha  occ. eigenvalues --   -0.45799  -0.45379  -0.45315  -0.45246  -0.45085
 Alpha  occ. eigenvalues --   -0.44684  -0.44461  -0.44335  -0.44300  -0.43868
 Alpha  occ. eigenvalues --   -0.43746  -0.43395  -0.43266  -0.43000  -0.42494
 Alpha  occ. eigenvalues --   -0.42293  -0.42006  -0.41951  -0.41839  -0.41762
 Alpha  occ. eigenvalues --   -0.41698  -0.41251  -0.41022  -0.40694  -0.40634
 Alpha  occ. eigenvalues --   -0.40456  -0.40338  -0.40195  -0.39935  -0.39868
 Alpha  occ. eigenvalues --   -0.39572  -0.39331  -0.39211  -0.39014  -0.38969
 Alpha  occ. eigenvalues --   -0.38736  -0.38557  -0.38398  -0.38294  -0.37994
 Alpha  occ. eigenvalues --   -0.37528  -0.37491  -0.37353  -0.37296  -0.37032
 Alpha  occ. eigenvalues --   -0.36985  -0.36638  -0.36482  -0.36186  -0.35842
 Alpha  occ. eigenvalues --   -0.35588  -0.35366  -0.35054  -0.34829  -0.34469
 Alpha  occ. eigenvalues --   -0.34188  -0.34151  -0.33904  -0.33758  -0.33742
 Alpha  occ. eigenvalues --   -0.33182  -0.33076  -0.32818  -0.32654  -0.32205
 Alpha  occ. eigenvalues --   -0.31858  -0.31833  -0.31525  -0.31087  -0.31017
 Alpha  occ. eigenvalues --   -0.30530  -0.30182  -0.29875  -0.29312  -0.28557
 Alpha  occ. eigenvalues --   -0.27412  -0.26317  -0.26185  -0.26141  -0.21797
 Alpha  occ. eigenvalues --   -0.20670
 Alpha virt. eigenvalues --   -0.08082  -0.02864  -0.00467   0.02627   0.03386
 Alpha virt. eigenvalues --    0.04180   0.04696   0.04959   0.05732   0.05938
 Alpha virt. eigenvalues --    0.06456   0.08950   0.09455   0.09796   0.10082

 Mulliken charges:
               1
     1  Mg   0.811806
     2  C    0.086111
     3  C   -0.183696
     4  C   -0.191146
     5  C   -0.216535
     6  N   -0.662566
     7  C    0.303372
     8  C   -0.178648
     9  C   -0.150764
    10  C    0.366638
    11  C   -0.323090
    12  C   -0.160035
    13  C   -0.272254
    14  C    0.597738
    15  O   -0.445507
    16  O   -0.489100
    17  N   -0.742943
    18  C    0.295158
    19  C    0.008220
    20  C    0.012166
    21  C    0.328536
    22  C   -0.377493
    23  C   -0.059696
    24  C   -0.215636
    25  N   -0.688590
    26  C    0.279907
    27  C    0.044263
    28  C   -0.041937
    29  C    0.377770
    30  C   -0.370504
    31  C   -0.196301
    32  C   -0.303029
    33  N   -0.714064
    34  C    0.272933
    35  C    0.041874
    36  C    0.030978
    37  C    0.295530
    38  C   -0.373853
    39  C    0.332640
    40  O   -0.505805
    41  C   -0.317813
    42  C    0.644055
    43  O   -0.464778
    44  O   -0.434000
    45  C   -0.094109
    46  C    0.017180
    47  C   -0.146433
    48  C    0.179367
    49  C   -0.379579
    50  C   -0.239806
    51  C   -0.162123
    52  C   -0.177230
    53  C   -0.043097
    54  C   -0.321871
    55  C   -0.170757
    56  C   -0.193549
    57  C   -0.146832
    58  C   -0.038176
    59  C   -0.330680
    60  C   -0.167293
    61  C   -0.202793
    62  C   -0.173912
    63  C   -0.039908
    64  C   -0.282474
    65  C   -0.327484
    66  H    0.070464
    67  H    0.079104
    68  H    0.064295
    69  H    0.119650
    70  H    0.096522
    71  H    0.115989
    72  H    0.109409
    73  H    0.119785
    74  H    0.118344
    75  H    0.130119
    76  H    0.141327
    77  H    0.140992
    78  H    0.105284
    79  H    0.114074
    80  H    0.127815
    81  H    0.084121
    82  H    0.097316
    83  H    0.102737
    84  H    0.133332
    85  H    0.111650
    86  H    0.130908
    87  H    0.114186
    88  H    0.095965
    89  H    0.112828
    90  H    0.122084
    91  H    0.076997
    92  H    0.142161
    93  H    0.139368
    94  H    0.107531
    95  H    0.170688
    96  H    0.127585
    97  H    0.127751
    98  H    0.112193
    99  H    0.121688
   100  H    0.086820
   101  H    0.087432
   102  H    0.118190
   103  H    0.104051
   104  H    0.116876
   105  H    0.087994
   106  H    0.102001
   107  H    0.089410
   108  H    0.105744
   109  H    0.095684
   110  H    0.081170
   111  H    0.051736
   112  H    0.092690
   113  H    0.087413
   114  H    0.108358
   115  H    0.086798
   116  H    0.103753
   117  H    0.085089
   118  H    0.080767
   119  H    0.090421
   120  H    0.092536
   121  H    0.089006
   122  H    0.087653
   123  H    0.109724
   124  H    0.085869
   125  H    0.097956
   126  H    0.065508
   127  H    0.075356
   128  H    0.091168
   129  H    0.100767
   130  H    0.100530
   131  H    0.114622
   132  H    0.078207
   133  H    0.088253
   134  H    0.088706
   135  H    0.095228
   136  H    0.068676
   137  H    0.115220
 Sum of Mulliken charges =  -0.00000

 Dipole moment (field-independent basis, Debye):
    X=              0.2915    Y=              5.9041    Z=              0.7506  Tot=              5.9587
 Quadrupole moment (field-independent basis, Debye-Ang):
   XX=           -342.9488   YY=           -398.4073   ZZ=           -398.1937
   XY=            -31.3208   XZ=             23.8118   YZ=             -1.9286

 Normal termination of Gaussian 16 at Fri Sep  6 22:30:29 2019.
