 Gaussian 16, Revision A.03,
 Gaussian 16:  ES64L-G16RevA.03 25-Dec-2016

 -------------------------------------
 # td=(NStates=1) CAM-B3LYP/6-31G(d,p)
 -------------------------------------

 --
 TD
 --
 Symbolic Z-matrix:
 Charge =  0 Multiplicity = 1

                         Standard orientation:
 ---------------------------------------------------------------------
 Center     Atomic      Atomic             Coordinates (Angstroms)
 Number     Number       Type             X           Y           Z
 ---------------------------------------------------------------------
      1         12           0       -7.196739    0.621957    0.072247
      2          6           0       -4.908881   -1.920444    0.483264
      3          6           0       -4.780495    2.841199    1.130306
      4          6           0       -9.438440    3.100435   -0.521255
      5          6           0       -9.579653   -1.792003   -0.764256
      6          7           0       -5.194679    0.454038    0.612141
      7          6           0       -4.455909   -0.678567    0.786113
      8          6           0       -3.026474   -0.338679    1.207435
      9          6           0       -3.071189    1.064551    1.771125
     10          6           0       -4.418061    1.485023    1.102004
     11          6           0       -3.105438    1.224559    3.283042
     12          6           0       -1.944216   -0.441805    0.125151
     13          6           0       -0.422104   -0.314841    0.548269
     14          6           0        0.523977   -0.593359   -0.542521
     15          8           0        0.292959   -1.078160   -1.644414
     16          8           0        1.794498   -0.240032   -0.048829
     17          7           0       -7.072817    2.583640    0.252350
     18          6           0       -5.964925    3.336455    0.738576
     19          6           0       -6.429515    4.731732    0.761745
     20          6           0       -7.808667    4.795053    0.237379
     21          6           0       -8.159482    3.430031    0.009839
     22          6           0       -5.606546    5.903100    0.985946
     23          6           0       -8.517541    5.939590    0.131538
     24          6           0       -8.452821    7.181026    0.751137
     25          7           0       -9.149672    0.620509   -0.550166
     26          6           0       -9.871684    1.770528   -0.723103
     27          6           0      -11.233047    1.487461   -1.183156
     28          6           0      -11.267260    0.116988   -1.297097
     29          6           0      -10.014407   -0.416481   -0.778578
     30          6           0      -12.285601    2.507405   -1.379258
     31          6           0      -12.392757   -0.781635   -1.681817
     32          6           0      -12.218846   -1.284230   -3.145626
     33          7           0       -7.295460   -1.365596   -0.160068
     34          6           0       -8.347288   -2.266295   -0.427845
     35          6           0       -7.879101   -3.544361   -0.414893
     36          6           0       -6.520002   -3.537735    0.019218
     37          6           0       -6.249308   -2.168365    0.142182
     38          6           0       -8.732746   -4.802411   -0.815042
     39          6           0       -5.318193   -4.358988    0.093501
     40          8           0       -5.130133   -5.593000   -0.040460
     41          6           0       -4.150456   -3.268008    0.539354
     42          6           0       -3.428193   -3.632809    1.813138
     43          8           0       -3.553758   -3.062216    2.872363
     44          8           0       -2.649359   -4.736562    1.604279
     45          6           0       -2.045637   -5.335527    2.747569
     46          6           0        2.797247   -0.570315   -1.032983
     47          6           0        4.171511   -0.406476   -0.338578
     48          6           0        5.173434    0.343880   -0.827092
     49          6           0        5.119578    1.059668   -2.169962
     50          6           0        6.434944    0.429500   -0.066031
     51          6           0        7.642639   -0.114167   -0.849010
     52          6           0        8.953896   -0.142248   -0.040123
     53          6           0       10.279064   -0.537870   -0.780541
     54          6           0       10.125931   -2.057023   -1.303993
     55          6           0       11.503382   -0.284214    0.115886
     56          6           0       12.804324   -0.561153   -0.617246
     57          6           0       14.014192   -0.128577    0.242946
     58          6           0       15.328701   -0.127606   -0.463627
     59          6           0       15.746463   -1.629765   -0.805792
     60          6           0       16.399096    0.389721    0.428661
     61          6           0       17.732562    0.572941   -0.265984
     62          6           0       18.786359    1.307859    0.693038
     63          6           0       20.273676    1.373118    0.078121
     64          6           0       20.269647    2.202669   -1.217894
     65          6           0       21.225773    1.867286    1.061004
     66          1           0       -4.197052    3.594322    1.649984
     67          1           0      -10.053641    3.982159   -0.735496
     68          1           0      -10.310621   -2.670722   -0.909205
     69          1           0       -2.631866   -1.061461    1.808640
     70          1           0       -2.272973    1.864421    1.415750
     71          1           0       -2.032342    1.112180    3.815630
     72          1           0       -3.507856    2.174427    3.549118
     73          1           0       -3.754376    0.530985    3.750460
     74          1           0       -1.994400   -1.694743   -0.101212
     75          1           0       -2.166007    0.042803   -0.795571
     76          1           0       -0.095559    0.490777    1.222649
     77          1           0       -0.207390   -1.183424    1.166051
     78          1           0       -6.138821    6.863526    0.594239
     79          1           0       -5.720724    6.143567    2.089673
     80          1           0       -4.390807    5.771997    0.618048
     81          1           0       -9.308206    5.846982   -0.787306
     82          1           0       -8.986216    8.204487    0.486786
     83          1           0       -7.969088    7.109642    1.708866
     84          1           0      -12.132435    3.147144   -2.320642
     85          1           0      -13.291009    2.019956   -1.558187
     86          1           0      -12.290337    3.069407   -0.523557
     87          1           0      -12.606734   -1.791369   -1.139993
     88          1           0      -13.398551   -0.239456   -1.784841
     89          1           0      -13.115098   -1.744071   -3.473745
     90          1           0      -11.744600   -0.536437   -3.949232
     91          1           0      -11.376252   -2.179000   -3.162405
     92          1           0       -8.745038   -4.766579   -1.806873
     93          1           0       -7.855057   -5.425516   -0.487773
     94          1           0       -9.971240   -4.988194   -0.535119
     95          1           0       -3.482021   -3.281085   -0.189240
     96          1           0       -1.427162   -4.553557    3.286487
     97          1           0       -2.800049   -5.431546    3.689486
     98          1           0       -1.411041   -6.298256    2.366642
     99          1           0        2.585252   -1.651131   -1.349673
    100          1           0        2.674248    0.087641   -1.944900
    101          1           0        4.112202   -0.746048    0.622486
    102          1           0        4.266945    0.758588   -2.829719
    103          1           0        5.200875    2.082613   -1.894421
    104          1           0        6.004604    0.778400   -2.958110
    105          1           0        6.550839    1.383773    0.329744
    106          1           0        6.400607   -0.388835    0.800763
    107          1           0        7.526482   -1.080773   -1.241094
    108          1           0        7.802195    0.557379   -1.739288
    109          1           0        9.193535    0.887317    0.349859
    110          1           0        8.884327   -0.563216    0.847241
    111          1           0       10.370918    0.168947   -1.484050
    112          1           0        9.335800   -2.123251   -2.152988
    113          1           0       11.193460   -2.403316   -1.650851
    114          1           0        9.730652   -2.799948   -0.432222
    115          1           0       11.269742    0.705687    0.586869
    116          1           0       11.383246   -1.277368    0.714499
    117          1           0       12.871717   -1.622352   -0.880372
    118          1           0       12.834338    0.003728   -1.507729
    119          1           0       13.719725    0.748671    0.705844
    120          1           0       14.124246   -0.875068    1.188005
    121          1           0       15.512146    0.412654   -1.529155
    122          1           0       15.721479   -2.372534   -0.118159
    123          1           0       15.054497   -2.091496   -1.666544
    124          1           0       16.719293   -1.745592   -1.207379
    125          1           0       16.259850    1.365544    0.835177
    126          1           0       16.575015   -0.347646    1.487736
    127          1           0       18.248152   -0.418659   -0.725282
    128          1           0       17.424127    1.197353   -1.062692
    129          1           0       18.463613    2.380671    0.930131
    130          1           0       18.783943    0.730660    1.496068
    131          1           0       20.415473    0.307932   -0.522967
    132          1           0       19.907655    3.245866   -1.004301
    133          1           0       21.354288    2.327864   -1.326263
    134          1           0       19.977196    1.510246   -2.040428
    135          1           0       21.093230    1.560271    2.184005
    136          1           0       22.386835    1.662613    0.876582
    137          1           0       21.198346    3.132697    1.020073
 ---------------------------------------------------------------------

 SCF Done:  E(RCAM-B3LYP) =  -2932.62616100     A.U. after   18 cycles

 Excitation energies and oscillator strengths:

 Excited State   1:      Singlet-A      1.9667 eV  630.42 nm  f=0.2634  <S**2>=0.000
     240 -> 243       -0.22096
     241 -> 242        0.66424
 This state for optimization and/or second-order correction.
 Total Energy, E(TD-HF/TD-DFT) =  -2932.55388640
 Copying the excited state density for this state as the 1-particle RhoCI density.

 The electronic state is 1-A.
 Alpha  occ. eigenvalues --  -46.83187 -19.26610 -19.25860 -19.21868 -19.21577
 Alpha  occ. eigenvalues --  -19.20904 -14.42699 -14.39833 -14.39610 -14.39088
 Alpha  occ. eigenvalues --  -10.39781 -10.39708 -10.36346 -10.33511 -10.32198
 Alpha  occ. eigenvalues --  -10.31502 -10.30668 -10.30463 -10.30228 -10.29603
 Alpha  occ. eigenvalues --  -10.29548 -10.28982 -10.28872 -10.28856 -10.28684
 Alpha  occ. eigenvalues --  -10.28547 -10.28487 -10.28166 -10.28146 -10.28067
 Alpha  occ. eigenvalues --  -10.28018 -10.28007 -10.27885 -10.27842 -10.27826
 Alpha  occ. eigenvalues --  -10.27617 -10.27430 -10.27287 -10.27112 -10.27084
 Alpha  occ. eigenvalues --  -10.27036 -10.26927 -10.26846 -10.26813 -10.26758
 Alpha  occ. eigenvalues --  -10.26730 -10.26673 -10.26423 -10.26342 -10.26184
 Alpha  occ. eigenvalues --  -10.26076 -10.26034 -10.25794 -10.25733 -10.25530
 Alpha  occ. eigenvalues --  -10.25505 -10.25266 -10.25202 -10.25116 -10.24974
 Alpha  occ. eigenvalues --  -10.24735 -10.24687 -10.24493 -10.23971 -10.23834
 Alpha  occ. eigenvalues --   -3.12525  -1.87210  -1.86810  -1.86688  -1.18083
 Alpha  occ. eigenvalues --   -1.16699  -1.09847  -1.09016  -1.08988  -1.04992
 Alpha  occ. eigenvalues --   -1.03857  -1.03097  -1.01454  -0.92674  -0.91274
 Alpha  occ. eigenvalues --   -0.90808  -0.90536  -0.90182  -0.89241  -0.89012
 Alpha  occ. eigenvalues --   -0.88473  -0.88116  -0.87735  -0.87345  -0.86539
 Alpha  occ. eigenvalues --   -0.85097  -0.84362  -0.84194  -0.82724  -0.82328
 Alpha  occ. eigenvalues --   -0.81524  -0.81276  -0.80280  -0.79510  -0.78271
 Alpha  occ. eigenvalues --   -0.78112  -0.76990  -0.75968  -0.75913  -0.75229
 Alpha  occ. eigenvalues --   -0.75179  -0.74736  -0.73776  -0.73305  -0.72465
 Alpha  occ. eigenvalues --   -0.71959  -0.70776  -0.69137  -0.68440  -0.68383
 Alpha  occ. eigenvalues --   -0.67625  -0.66537  -0.65281  -0.65197  -0.64588
 Alpha  occ. eigenvalues --   -0.64217  -0.63375  -0.62592  -0.62469  -0.62332
 Alpha  occ. eigenvalues --   -0.60683  -0.60632  -0.60482  -0.59641  -0.59316
 Alpha  occ. eigenvalues --   -0.58893  -0.58170  -0.57923  -0.57369  -0.56600
 Alpha  occ. eigenvalues --   -0.56324  -0.55717  -0.55206  -0.54795  -0.54620
 Alpha  occ. eigenvalues --   -0.54226  -0.53973  -0.53892  -0.53439  -0.53181
 Alpha  occ. eigenvalues --   -0.52736  -0.52230  -0.51981  -0.51889  -0.51621
 Alpha  occ. eigenvalues --   -0.51379  -0.51112  -0.51076  -0.50835  -0.50569
 Alpha  occ. eigenvalues --   -0.50257  -0.50228  -0.49988  -0.49854  -0.49645
 Alpha  occ. eigenvalues --   -0.49034  -0.48938  -0.48835  -0.48654  -0.48422
 Alpha  occ. eigenvalues --   -0.48130  -0.47982  -0.47408  -0.47157  -0.46972
 Alpha  occ. eigenvalues --   -0.46696  -0.46527  -0.46360  -0.46089  -0.45709
 Alpha  occ. eigenvalues --   -0.45646  -0.45494  -0.45390  -0.45267  -0.45143
 Alpha  occ. eigenvalues --   -0.44712  -0.44612  -0.44444  -0.44198  -0.43839
 Alpha  occ. eigenvalues --   -0.43706  -0.43471  -0.43355  -0.43134  -0.43025
 Alpha  occ. eigenvalues --   -0.42859  -0.42809  -0.42466  -0.42313  -0.42185
 Alpha  occ. eigenvalues --   -0.42057  -0.42005  -0.41895  -0.41448  -0.41306
 Alpha  occ. eigenvalues --   -0.41138  -0.41042  -0.40629  -0.40543  -0.40388
 Alpha  occ. eigenvalues --   -0.40178  -0.40048  -0.39815  -0.39479  -0.38767
 Alpha  occ. eigenvalues --   -0.38707  -0.38444  -0.38307  -0.37863  -0.37686
 Alpha  occ. eigenvalues --   -0.37419  -0.37319  -0.36736  -0.36634  -0.36428
 Alpha  occ. eigenvalues --   -0.35999  -0.35754  -0.35690  -0.35608  -0.35442
 Alpha  occ. eigenvalues --   -0.35179  -0.35033  -0.34701  -0.34419  -0.34343
 Alpha  occ. eigenvalues --   -0.33888  -0.33700  -0.32789  -0.31233  -0.30276
 Alpha  occ. eigenvalues --   -0.29563  -0.29533  -0.28498  -0.26318  -0.23842
 Alpha  occ. eigenvalues --   -0.21621
 Alpha virt. eigenvalues --   -0.07422  -0.03719   0.00540   0.02705   0.05311
 Alpha virt. eigenvalues --    0.05789   0.05979   0.06329   0.06597   0.06665
 Alpha virt. eigenvalues --    0.08282   0.10107   0.10658   0.10724   0.11490

 Mulliken charges:
               1
     1  Mg   0.805630
     2  C    0.017706
     3  C   -0.206034
     4  C   -0.175010
     5  C   -0.173932
     6  N   -0.636747
     7  C    0.336826
     8  C   -0.131613
     9  C   -0.125484
    10  C    0.324005
    11  C   -0.303814
    12  C   -0.178747
    13  C   -0.273158
    14  C    0.636115
    15  O   -0.475381
    16  O   -0.506418
    17  N   -0.763576
    18  C    0.347980
    19  C    0.000535
    20  C    0.070203
    21  C    0.343092
    22  C   -0.391804
    23  C   -0.105940
    24  C   -0.285569
    25  N   -0.674381
    26  C    0.310711
    27  C    0.021924
    28  C    0.049993
    29  C    0.261984
    30  C   -0.369354
    31  C   -0.257660
    32  C   -0.298356
    33  N   -0.727657
    34  C    0.311227
    35  C   -0.027850
    36  C    0.005181
    37  C    0.311956
    38  C   -0.355954
    39  C    0.352772
    40  O   -0.472905
    41  C   -0.293452
    42  C    0.623392
    43  O   -0.468700
    44  O   -0.442635
    45  C   -0.084506
    46  C    0.014598
    47  C   -0.129467
    48  C    0.121179
    49  C   -0.355468
    50  C   -0.224663
    51  C   -0.175024
    52  C   -0.182946
    53  C   -0.053315
    54  C   -0.315171
    55  C   -0.184398
    56  C   -0.179198
    57  C   -0.159231
    58  C   -0.054745
    59  C   -0.317808
    60  C   -0.138717
    61  C   -0.189863
    62  C   -0.163535
    63  C   -0.036062
    64  C   -0.306339
    65  C   -0.297770
    66  H    0.093568
    67  H    0.099498
    68  H    0.097123
    69  H    0.112326
    70  H    0.102357
    71  H    0.091567
    72  H    0.113735
    73  H    0.135067
    74  H    0.069316
    75  H    0.126430
    76  H    0.141978
    77  H    0.153027
    78  H    0.125734
    79  H    0.121048
    80  H    0.092970
    81  H    0.070654
    82  H    0.119601
    83  H    0.109833
    84  H    0.115783
    85  H    0.110758
    86  H    0.136649
    87  H    0.109333
    88  H    0.099662
    89  H    0.111679
    90  H    0.101295
    91  H    0.072185
    92  H    0.150275
    93  H    0.151857
    94  H    0.100307
    95  H    0.167380
    96  H    0.118356
    97  H    0.119581
    98  H    0.129431
    99  H    0.119395
   100  H    0.110020
   101  H    0.093756
   102  H    0.116064
   103  H    0.128780
   104  H    0.097840
   105  H    0.110956
   106  H    0.087845
   107  H    0.108787
   108  H    0.084697
   109  H    0.060891
   110  H    0.097966
   111  H    0.093438
   112  H    0.102198
   113  H    0.093535
   114  H    0.087753
   115  H    0.091959
   116  H    0.085670
   117  H    0.103709
   118  H    0.094849
   119  H    0.097536
   120  H    0.075185
   121  H    0.076126
   122  H    0.116370
   123  H    0.068524
   124  H    0.104538
   125  H    0.096931
   126  H    0.038236
   127  H    0.072681
   128  H    0.101499
   129  H    0.079110
   130  H    0.107103
   131  H    0.060349
   132  H    0.098241
   133  H    0.100524
   134  H    0.109066
   135  H    0.098641
   136  H    0.093931
   137  H    0.068286
 Sum of Mulliken charges =  -0.00000

 Dipole moment (field-independent basis, Debye):
    X=              0.6489    Y=              5.3105    Z=              1.1672  Tot=              5.4758
 Quadrupole moment (field-independent basis, Debye-Ang):
   XX=           -339.1836   YY=           -398.1240   ZZ=           -398.7215
   XY=            -23.9279   XZ=              7.0940   YZ=             -0.8122

 Normal termination of Gaussian 16 at Sun Jun 30 15:24:34 2019.
