 Gaussian 09, Revision D.01,
 Gaussian 09:  ES64L-G09RevD.01 24-Apr-2013

 -------------------------------------
 # td=(NStates=1) CAM-B3LYP/6-31G(d,p)
 -------------------------------------

 --
 TD
 --
 Symbolic Z-matrix:
 Charge =  0 Multiplicity = 1

                         Standard orientation:
 ---------------------------------------------------------------------
 Center     Atomic      Atomic             Coordinates (Angstroms)
 Number     Number       Type             X           Y           Z
 ---------------------------------------------------------------------
      1         12           0       -7.099616    0.671114    0.136709
      2          6           0       -4.858848   -1.890627    0.527109
      3          6           0       -4.812942    2.815018    1.206711
      4          6           0       -9.376610    3.064733   -0.387947
      5          6           0       -9.526118   -1.706241   -0.918909
      6          7           0       -5.176629    0.454222    0.794253
      7          6           0       -4.327634   -0.620056    0.845303
      8          6           0       -2.900767   -0.390249    1.266040
      9          6           0       -3.040691    1.027914    1.730941
     10          6           0       -4.444934    1.517934    1.197142
     11          6           0       -2.946504    1.320538    3.160919
     12          6           0       -1.940241   -0.767882    0.151914
     13          6           0       -0.425669   -0.411703    0.633844
     14          6           0        0.518536   -0.607294   -0.612740
     15          8           0        0.267066   -0.951810   -1.765744
     16          8           0        1.758161   -0.421900   -0.112727
     17          7           0       -7.122497    2.663640    0.344826
     18          6           0       -6.039401    3.402730    0.715097
     19          6           0       -6.410223    4.805308    0.698698
     20          6           0       -7.827271    4.784853    0.443517
     21          6           0       -8.238114    3.545457    0.126936
     22          6           0       -5.413403    5.852456    1.120342
     23          6           0       -8.553435    5.942951    0.098668
     24          6           0       -8.437231    7.156018    0.680899
     25          7           0       -9.144693    0.661173   -0.408487
     26          6           0       -9.908307    1.792977   -0.682563
     27          6           0      -11.250086    1.407327   -1.027606
     28          6           0      -11.252387    0.038347   -1.309297
     29          6           0       -9.866209   -0.473186   -0.842327
     30          6           0      -12.267411    2.468799   -1.373470
     31          6           0      -12.371357   -0.774266   -1.751300
     32          6           0      -12.305144   -0.956564   -3.300433
     33          7           0       -7.212660   -1.355620   -0.206517
     34          6           0       -8.222971   -2.196727   -0.550987
     35          6           0       -7.773006   -3.575078   -0.588998
     36          6           0       -6.502009   -3.491977   -0.223853
     37          6           0       -6.181302   -2.125177    0.026704
     38          6           0       -8.559963   -4.786248   -0.931481
     39          6           0       -5.325519   -4.362997    0.172758
     40          8           0       -5.252214   -5.515061    0.336625
     41          6           0       -4.200700   -3.275618    0.597888
     42          6           0       -3.492112   -3.679189    1.937611
     43          8           0       -3.775188   -3.198280    2.992207
     44          8           0       -2.627267   -4.763860    1.703829
     45          6           0       -2.206154   -5.216400    3.041548
     46          6           0        2.800398   -0.714125   -1.234396
     47          6           0        4.121782   -0.444682   -0.559810
     48          6           0        5.144242    0.206473   -1.032608
     49          6           0        5.131984    1.179827   -2.212477
     50          6           0        6.437172    0.231025   -0.255911
     51          6           0        7.627780   -0.240612   -1.080735
     52          6           0        8.968977   -0.316675   -0.197234
     53          6           0       10.220917   -0.683555   -0.831590
     54          6           0       10.120732   -2.227770   -1.328363
     55          6           0       11.496931   -0.535362    0.027558
     56          6           0       12.738862   -0.497579   -0.720133
     57          6           0       13.924227   -0.093815    0.242731
     58          6           0       15.259351   -0.064348   -0.456357
     59          6           0       15.659894   -1.438493   -1.003910
     60          6           0       16.357542    0.471183    0.353614
     61          6           0       17.814160    0.595886   -0.255549
     62          6           0       18.711545    1.348408    0.678608
     63          6           0       20.195052    1.486374    0.224802
     64          6           0       20.338414    2.301628   -0.996129
     65          6           0       21.098798    1.864141    1.395731
     66          1           0       -4.080725    3.635461    1.429752
     67          1           0      -10.089580    3.992257   -0.574145
     68          1           0      -10.091619   -2.428415   -1.302685
     69          1           0       -2.479533   -1.137573    2.215637
     70          1           0       -2.174358    1.537595    1.256559
     71          1           0       -1.827641    1.631460    3.415093
     72          1           0       -3.221050    2.278816    3.419154
     73          1           0       -3.436303    0.370779    3.731379
     74          1           0       -1.997315   -1.686253   -0.046708
     75          1           0       -2.142948   -0.034390   -0.802878
     76          1           0       -0.246918    0.564268    1.041133
     77          1           0       -0.112688   -1.238046    1.279025
     78          1           0       -5.519631    6.793844    0.472390
     79          1           0       -5.575206    6.046276    2.167427
     80          1           0       -4.509563    5.421872    1.087872
     81          1           0       -9.086560    5.787459   -0.943475
     82          1           0       -9.189355    7.952303    0.371294
     83          1           0       -7.725093    7.402484    1.558579
     84          1           0      -12.322042    2.984537   -2.189014
     85          1           0      -13.224165    1.801784   -1.301655
     86          1           0      -12.404852    3.261874   -0.649416
     87          1           0      -12.373822   -1.808040   -1.208255
     88          1           0      -13.305085   -0.185778   -1.516976
     89          1           0      -13.094212   -1.773864   -3.628544
     90          1           0      -12.656386   -0.122965   -3.946646
     91          1           0      -11.429157   -1.463519   -3.546453
     92          1           0       -8.808363   -4.764176   -2.059944
     93          1           0       -7.947606   -5.557303   -0.777966
     94          1           0       -9.508342   -4.866245   -0.573971
     95          1           0       -3.380803   -3.095553   -0.180706
     96          1           0       -1.486018   -4.297916    3.636634
     97          1           0       -3.105754   -5.567693    3.871277
     98          1           0       -1.690712   -6.202472    2.823721
     99          1           0        2.792439   -1.631291   -1.778082
    100          1           0        2.679669    0.074050   -2.001692
    101          1           0        4.445223   -1.183591    0.328902
    102          1           0        4.097536    0.954354   -2.863620
    103          1           0        5.106881    2.424211   -1.873260
    104          1           0        5.804287    0.853109   -2.882774
    105          1           0        6.681377    1.319072   -0.002247
    106          1           0        6.381200   -0.425408    0.671046
    107          1           0        7.359842   -1.303432   -1.372309
    108          1           0        7.878763    0.313478   -1.986673
    109          1           0        9.079910    0.693252    0.423661
    110          1           0        8.720882   -1.159531    0.678586
    111          1           0       10.546316   -0.006092   -1.635724
    112          1           0        9.309650   -2.408942   -2.115455
    113          1           0       10.989719   -2.588322   -1.894443
    114          1           0       10.056188   -2.929811   -0.431337
    115          1           0       11.248716    0.402808    0.672579
    116          1           0       11.583275   -1.217517    0.713877
    117          1           0       13.016385   -1.562475   -1.259446
    118          1           0       12.962934    0.348752   -1.341067
    119          1           0       13.479535    1.080707    0.569785
    120          1           0       14.179300   -0.694054    1.155437
    121          1           0       15.211382    0.438410   -1.294023
    122          1           0       15.751332   -2.190095   -0.184738
    123          1           0       14.953757   -2.035111   -1.761537
    124          1           0       16.770420   -1.356160   -1.319455
    125          1           0       16.260638    1.617264    0.386548
    126          1           0       16.412482    0.047912    1.305152
    127          1           0       18.161657   -0.378537   -0.401257
    128          1           0       17.641306    1.142515   -1.030201
    129          1           0       18.678419    2.371555    0.898409
    130          1           0       18.922036    0.897805    1.663298
    131          1           0       20.517433    0.585854    0.133705
    132          1           0       19.605144    3.292881   -0.934828
    133          1           0       21.350065    2.614799   -1.365421
    134          1           0       19.742048    1.747185   -1.942282
    135          1           0       20.949727    1.204261    2.208936
    136          1           0       22.035551    2.019912    1.097393
    137          1           0       20.810541    2.800514    1.875379
 ---------------------------------------------------------------------

 SCF Done:  E(RCAM-B3LYP) =  -2932.52508591     A.U. after   18 cycles

 Excitation energies and oscillator strengths:

 Excited State   1:      Singlet-A      1.9515 eV  635.32 nm  f=0.3387  <S**2>=0.000
     240 -> 243       -0.20228
     241 -> 242        0.67012
 This state for optimization and/or second-order correction.
 Total Energy, E(TD-HF/TD-KS) =  -2932.45336901
 Copying the excited state density for this state as the 1-particle RhoCI density.

 The electronic state is 1-A.
 Alpha  occ. eigenvalues --  -46.83585 -19.27121 -19.26746 -19.22143 -19.21577
 Alpha  occ. eigenvalues --  -19.21245 -14.41853 -14.39311 -14.38914 -14.38229
 Alpha  occ. eigenvalues --  -10.39741 -10.39306 -10.35827 -10.34507 -10.32421
 Alpha  occ. eigenvalues --  -10.30554 -10.30467 -10.29518 -10.29343 -10.28803
 Alpha  occ. eigenvalues --  -10.28592 -10.28391 -10.28348 -10.28244 -10.28229
 Alpha  occ. eigenvalues --  -10.28075 -10.27937 -10.27673 -10.27643 -10.27385
 Alpha  occ. eigenvalues --  -10.27305 -10.27282 -10.27172 -10.27159 -10.27126
 Alpha  occ. eigenvalues --  -10.27061 -10.26980 -10.26935 -10.26929 -10.26781
 Alpha  occ. eigenvalues --  -10.26753 -10.26701 -10.26636 -10.26509 -10.26376
 Alpha  occ. eigenvalues --  -10.26342 -10.26164 -10.26117 -10.26006 -10.25856
 Alpha  occ. eigenvalues --  -10.25843 -10.25790 -10.25782 -10.25722 -10.25516
 Alpha  occ. eigenvalues --  -10.25027 -10.24616 -10.24296 -10.24290 -10.24082
 Alpha  occ. eigenvalues --  -10.24062 -10.23988 -10.23839 -10.23770 -10.22816
 Alpha  occ. eigenvalues --   -3.12704  -1.87407  -1.86948  -1.86884  -1.17449
 Alpha  occ. eigenvalues --   -1.16767  -1.14567  -1.09883  -1.07930  -1.05353
 Alpha  occ. eigenvalues --   -1.04273  -1.02323  -1.00748  -0.92081  -0.91560
 Alpha  occ. eigenvalues --   -0.91467  -0.90654  -0.90517  -0.89515  -0.89407
 Alpha  occ. eigenvalues --   -0.88922  -0.88246  -0.88161  -0.87487  -0.86209
 Alpha  occ. eigenvalues --   -0.85587  -0.84306  -0.83452  -0.83329  -0.82589
 Alpha  occ. eigenvalues --   -0.81946  -0.80479  -0.79728  -0.79165  -0.78477
 Alpha  occ. eigenvalues --   -0.78062  -0.76858  -0.76245  -0.75647  -0.75280
 Alpha  occ. eigenvalues --   -0.74578  -0.74367  -0.74301  -0.73450  -0.72909
 Alpha  occ. eigenvalues --   -0.71886  -0.70904  -0.70233  -0.69500  -0.67657
 Alpha  occ. eigenvalues --   -0.67036  -0.66688  -0.65333  -0.64760  -0.64190
 Alpha  occ. eigenvalues --   -0.63977  -0.63631  -0.63605  -0.62576  -0.62531
 Alpha  occ. eigenvalues --   -0.61094  -0.60611  -0.60291  -0.59140  -0.58798
 Alpha  occ. eigenvalues --   -0.58133  -0.57967  -0.57056  -0.56866  -0.56508
 Alpha  occ. eigenvalues --   -0.56031  -0.55958  -0.55560  -0.55080  -0.54692
 Alpha  occ. eigenvalues --   -0.54381  -0.54117  -0.54044  -0.53842  -0.53515
 Alpha  occ. eigenvalues --   -0.53070  -0.52713  -0.52619  -0.52584  -0.51738
 Alpha  occ. eigenvalues --   -0.51501  -0.51356  -0.51114  -0.50748  -0.50642
 Alpha  occ. eigenvalues --   -0.50365  -0.50059  -0.49902  -0.49744  -0.49506
 Alpha  occ. eigenvalues --   -0.49253  -0.49083  -0.48950  -0.48852  -0.48415
 Alpha  occ. eigenvalues --   -0.48254  -0.48250  -0.47718  -0.47640  -0.47540
 Alpha  occ. eigenvalues --   -0.47328  -0.46865  -0.46754  -0.46181  -0.46042
 Alpha  occ. eigenvalues --   -0.45956  -0.45804  -0.45524  -0.45408  -0.45210
 Alpha  occ. eigenvalues --   -0.44992  -0.44763  -0.44419  -0.44348  -0.44152
 Alpha  occ. eigenvalues --   -0.43859  -0.43644  -0.43596  -0.43363  -0.43338
 Alpha  occ. eigenvalues --   -0.42913  -0.42778  -0.42599  -0.42474  -0.42398
 Alpha  occ. eigenvalues --   -0.42290  -0.42139  -0.41992  -0.41633  -0.41385
 Alpha  occ. eigenvalues --   -0.41186  -0.40965  -0.40739  -0.40402  -0.40257
 Alpha  occ. eigenvalues --   -0.39945  -0.39751  -0.39529  -0.39324  -0.39212
 Alpha  occ. eigenvalues --   -0.38773  -0.38302  -0.38160  -0.38010  -0.37863
 Alpha  occ. eigenvalues --   -0.37442  -0.37397  -0.37183  -0.36974  -0.36423
 Alpha  occ. eigenvalues --   -0.36234  -0.36130  -0.36031  -0.35886  -0.35524
 Alpha  occ. eigenvalues --   -0.35272  -0.34502  -0.34491  -0.34301  -0.33758
 Alpha  occ. eigenvalues --   -0.33226  -0.32823  -0.31967  -0.30892  -0.30673
 Alpha  occ. eigenvalues --   -0.30190  -0.29946  -0.27920  -0.26433  -0.23173
 Alpha  occ. eigenvalues --   -0.20675
 Alpha virt. eigenvalues --   -0.06843  -0.02162   0.02426   0.04526   0.05693
 Alpha virt. eigenvalues --    0.05896   0.06116   0.06514   0.06905   0.06960
 Alpha virt. eigenvalues --    0.07921   0.10590   0.10765   0.11269   0.11336

 Mulliken charges:
               1
     1  Mg   0.807355
     2  C    0.031478
     3  C   -0.216464
     4  C   -0.204619
     5  C   -0.128650
     6  N   -0.655750
     7  C    0.315728
     8  C   -0.135070
     9  C   -0.134546
    10  C    0.372019
    11  C   -0.288689
    12  C   -0.137805
    13  C   -0.279412
    14  C    0.608018
    15  O   -0.487453
    16  O   -0.482093
    17  N   -0.738130
    18  C    0.318496
    19  C    0.005410
    20  C   -0.009599
    21  C    0.346907
    22  C   -0.362214
    23  C   -0.085686
    24  C   -0.265471
    25  N   -0.680894
    26  C    0.308852
    27  C    0.012793
    28  C    0.044689
    29  C    0.329572
    30  C   -0.360295
    31  C   -0.266624
    32  C   -0.310263
    33  N   -0.702514
    34  C    0.201929
    35  C    0.015451
    36  C   -0.035013
    37  C    0.304296
    38  C   -0.359255
    39  C    0.400885
    40  O   -0.405322
    41  C   -0.342401
    42  C    0.625050
    43  O   -0.436921
    44  O   -0.459323
    45  C   -0.067790
    46  C   -0.008083
    47  C   -0.135448
    48  C    0.137987
    49  C   -0.336221
    50  C   -0.212994
    51  C   -0.183827
    52  C   -0.154370
    53  C   -0.047907
    54  C   -0.324840
    55  C   -0.152515
    56  C   -0.169900
    57  C   -0.158321
    58  C   -0.037601
    59  C   -0.323973
    60  C   -0.189900
    61  C   -0.173943
    62  C   -0.185297
    63  C   -0.055318
    64  C   -0.293147
    65  C   -0.328784
    66  H    0.072290
    67  H    0.074617
    68  H    0.072335
    69  H    0.094799
    70  H    0.095455
    71  H    0.075532
    72  H    0.126149
    73  H    0.120754
    74  H    0.116508
    75  H    0.103620
    76  H    0.143708
    77  H    0.145292
    78  H    0.120691
    79  H    0.133579
    80  H    0.120128
    81  H    0.101643
    82  H    0.098431
    83  H    0.104689
    84  H    0.137535
    85  H    0.085952
    86  H    0.116068
    87  H    0.105151
    88  H    0.108745
    89  H    0.078075
    90  H    0.121385
    91  H    0.125901
    92  H    0.106266
    93  H    0.146366
    94  H    0.131216
    95  H    0.150624
    96  H    0.097103
    97  H    0.113929
    98  H    0.125277
    99  H    0.156811
   100  H    0.129403
   101  H    0.073686
   102  H    0.071864
   103  H    0.103509
   104  H    0.141076
   105  H    0.096288
   106  H    0.097474
   107  H    0.096752
   108  H    0.100743
   109  H    0.069363
   110  H    0.058037
   111  H    0.084986
   112  H    0.095428
   113  H    0.100008
   114  H    0.099117
   115  H    0.071644
   116  H    0.105574
   117  H    0.079850
   118  H    0.106574
   119  H    0.046478
   120  H    0.081245
   121  H    0.090464
   122  H    0.090390
   123  H    0.089603
   124  H    0.094261
   125  H    0.082047
   126  H    0.091754
   127  H    0.103113
   128  H    0.110453
   129  H    0.101642
   130  H    0.079351
   131  H    0.104586
   132  H    0.069327
   133  H    0.104849
   134  H    0.073037
   135  H    0.104677
   136  H    0.109797
   137  H    0.088662
 Sum of Mulliken charges =   0.00000

 Dipole moment (field-independent basis, Debye):
    X=              2.7660    Y=              3.3060    Z=             -0.8351  Tot=              4.3907
 Quadrupole moment (field-independent basis, Debye-Ang):
   XX=           -335.1008   YY=           -392.4950   ZZ=           -397.9410
   XY=            -17.1727   XZ=             16.2378   YZ=             -0.5354

 Normal termination of Gaussian 09 at Thu Jul  4 11:19:56 2019.
