 Gaussian 16, Revision A.03,
 Gaussian 16:  ES64L-G16RevA.03 25-Dec-2016

 -------------------------------------
 # td=(NStates=1) CAM-B3LYP/6-31G(d,p)
 -------------------------------------

 --
 TD
 --
 Symbolic Z-matrix:
 Charge =  0 Multiplicity = 1

                         Standard orientation:
 ---------------------------------------------------------------------
 Center     Atomic      Atomic             Coordinates (Angstroms)
 Number     Number       Type             X           Y           Z
 ---------------------------------------------------------------------
      1         12           0       -7.185338    0.579181    0.108907
      2          6           0       -4.823103   -2.001993    0.526522
      3          6           0       -4.868792    2.914989    0.990454
      4          6           0       -9.521333    2.959560   -0.310433
      5          6           0       -9.449288   -1.836336   -0.872388
      6          7           0       -5.103699    0.529397    0.669591
      7          6           0       -4.367877   -0.690788    0.800460
      8          6           0       -2.972673   -0.336775    1.222495
      9          6           0       -3.041450    1.205839    1.579781
     10          6           0       -4.459838    1.577221    1.138342
     11          6           0       -2.761583    1.563543    3.098441
     12          6           0       -1.904584   -0.574552    0.161582
     13          6           0       -0.495851   -0.383382    0.590094
     14          6           0        0.514677   -0.655929   -0.494752
     15          8           0        0.329396   -1.094977   -1.644977
     16          8           0        1.847143   -0.373911   -0.032601
     17          7           0       -7.248438    2.593463    0.329322
     18          6           0       -6.202308    3.422343    0.708569
     19          6           0       -6.575715    4.843558    0.772855
     20          6           0       -7.878250    4.766809    0.303316
     21          6           0       -8.298269    3.426556    0.091258
     22          6           0       -5.700014    6.048466    0.997574
     23          6           0       -8.723070    5.983844    0.101168
     24          6           0       -8.701390    7.233739    0.645100
     25          7           0       -9.078312    0.552023   -0.625957
     26          6           0       -9.855701    1.579443   -0.682851
     27          6           0      -11.220734    1.247655   -1.166527
     28          6           0      -11.235252   -0.125017   -1.282686
     29          6           0       -9.949392   -0.550709   -0.901507
     30          6           0      -12.312511    2.250292   -1.498490
     31          6           0      -12.490694   -0.909586   -1.572270
     32          6           0      -12.540373   -1.166046   -3.148728
     33          7           0       -7.112350   -1.425042   -0.320914
     34          6           0       -8.184041   -2.358469   -0.632774
     35          6           0       -7.705039   -3.728089   -0.381197
     36          6           0       -6.384714   -3.576265   -0.124633
     37          6           0       -6.118055   -2.160026    0.006137
     38          6           0       -8.453445   -4.999874   -0.628841
     39          6           0       -5.182616   -4.375540    0.274130
     40          8           0       -5.008396   -5.505760    0.222064
     41          6           0       -4.091597   -3.320523    0.574205
     42          6           0       -3.448292   -3.602788    1.901368
     43          8           0       -3.684563   -2.947992    2.832094
     44          8           0       -2.565254   -4.586172    1.761884
     45          6           0       -1.979881   -5.007723    3.007330
     46          6           0        2.925412   -0.705392   -0.924946
     47          6           0        4.221484   -0.354948   -0.362970
     48          6           0        5.179705    0.480991   -0.809707
     49          6           0        5.053557    1.218956   -2.137042
     50          6           0        6.460544    0.604156   -0.200851
     51          6           0        7.632050   -0.261853   -1.002425
     52          6           0        8.996619   -0.148211   -0.199775
     53          6           0       10.140375   -0.503634   -1.045715
     54          6           0       10.100151   -2.026447   -1.388270
     55          6           0       11.417458   -0.171179   -0.113026
     56          6           0       12.783031   -0.569758   -0.775123
     57          6           0       14.002529   -0.100491    0.091094
     58          6           0       15.383872   -0.244163   -0.430729
     59          6           0       15.702198   -1.772346   -0.700892
     60          6           0       16.458224    0.432953    0.418528
     61          6           0       17.852992    0.523093   -0.080047
     62          6           0       18.778735    1.289787    0.818645
     63          6           0       20.188092    1.413186    0.174938
     64          6           0       20.196165    2.105595   -1.204800
     65          6           0       21.164985    2.000772    1.223198
     66          1           0       -4.338724    3.779111    1.372329
     67          1           0      -10.329962    3.859973   -0.571959
     68          1           0      -10.230420   -2.886750   -0.954475
     69          1           0       -2.601265   -1.028461    2.026548
     70          1           0       -2.381430    1.857389    0.898862
     71          1           0       -1.812660    1.182857    3.383238
     72          1           0       -2.885689    2.687469    3.115171
     73          1           0       -3.665251    1.073104    3.647968
     74          1           0       -2.201321   -1.646476   -0.038276
     75          1           0       -2.035868   -0.007041   -0.637311
     76          1           0       -0.210392    0.486798    1.150914
     77          1           0       -0.415560   -1.242258    1.366043
     78          1           0       -6.120198    6.779607    0.243839
     79          1           0       -5.426655    6.293288    2.125131
     80          1           0       -4.626085    5.929615    0.582756
     81          1           0       -9.489747    5.818387   -0.728133
     82          1           0       -9.622954    7.929066    0.476341
     83          1           0       -8.119698    7.340212    1.442962
     84          1           0      -12.121541    3.009374   -2.321170
     85          1           0      -13.265869    1.832695   -1.530822
     86          1           0      -12.179074    3.155183   -0.596213
     87          1           0      -12.505527   -1.757891   -0.919012
     88          1           0      -13.282900   -0.199158   -1.207006
     89          1           0      -13.418884   -2.069919   -3.394617
     90          1           0      -12.486494   -0.078705   -3.542096
     91          1           0      -11.545290   -1.538791   -3.463787
     92          1           0       -9.018104   -4.830632   -1.502614
     93          1           0       -7.886333   -5.902253   -0.784602
     94          1           0       -9.387183   -5.073861    0.237151
     95          1           0       -3.356632   -3.718241   -0.256675
     96          1           0       -1.472194   -4.263782    3.449795
     97          1           0       -2.943163   -5.219552    3.602466
     98          1           0       -1.357314   -5.852826    2.602832
     99          1           0        2.890996   -1.791125   -1.108668
    100          1           0        2.817726   -0.030354   -1.903191
    101          1           0        4.457843   -0.950240    0.700571
    102          1           0        3.921771    1.308378   -2.482874
    103          1           0        5.452051    2.224529   -2.045950
    104          1           0        5.707999    0.775422   -2.919913
    105          1           0        6.774261    1.795232   -0.133360
    106          1           0        6.409939    0.172751    0.862427
    107          1           0        7.309250   -1.118601   -1.231130
    108          1           0        7.720271    0.142090   -1.892948
    109          1           0        9.221876    0.982049    0.105479
    110          1           0        8.946612   -0.690465    0.679180
    111          1           0       10.204768    0.128056   -2.026155
    112          1           0        9.171036   -2.129206   -1.928766
    113          1           0       10.824004   -2.420190   -2.031125
    114          1           0        9.914321   -2.709091   -0.508443
    115          1           0       11.408221    0.807911    0.081707
    116          1           0       11.197919   -0.638225    0.869619
    117          1           0       12.595536   -1.640210   -1.028719
    118          1           0       12.792816   -0.128529   -1.842722
    119          1           0       13.917104    1.121552    0.163542
    120          1           0       13.899453   -0.755816    1.040340
    121          1           0       15.536102    0.240911   -1.491761
    122          1           0       15.618895   -2.447835    0.223110
    123          1           0       14.968530   -2.352943   -1.501836
    124          1           0       16.807832   -1.974725   -1.107369
    125          1           0       15.931643    1.425244    0.702342
    126          1           0       16.436764   -0.081812    1.450164
    127          1           0       18.321889   -0.515503   -0.149926
    128          1           0       18.014098    0.804651   -1.240084
    129          1           0       18.411865    2.262657    1.307873
    130          1           0       18.965970    0.659634    1.754401
    131          1           0       20.618863    0.409136   -0.130396
    132          1           0       19.907536    3.345903   -0.959215
    133          1           0       21.271208    2.144690   -1.535796
    134          1           0       19.470699    1.562864   -2.046539
    135          1           0       21.008849    1.521612    2.202107
    136          1           0       22.082870    1.900621    0.828332
    137          1           0       20.957243    3.065805    1.362112
 ---------------------------------------------------------------------

 SCF Done:  E(RCAM-B3LYP) =  -2932.64373582     A.U. after   17 cycles

 Excitation energies and oscillator strengths:

 Excited State   1:      Singlet-A      2.1320 eV  581.53 nm  f=0.1799  <S**2>=0.000
     240 -> 242       -0.14876
     240 -> 243        0.25050
     241 -> 242        0.62189
     241 -> 243        0.14165
 This state for optimization and/or second-order correction.
 Total Energy, E(TD-HF/TD-DFT) =  -2932.56538471
 Copying the excited state density for this state as the 1-particle RhoCI density.

 The electronic state is 1-A.
 Alpha  occ. eigenvalues --  -46.84643 -19.26496 -19.24873 -19.21614 -19.21489
 Alpha  occ. eigenvalues --  -19.20771 -14.41672 -14.39731 -14.39475 -14.39312
 Alpha  occ. eigenvalues --  -10.40111 -10.38728 -10.34669 -10.31691 -10.31658
 Alpha  occ. eigenvalues --  -10.31248 -10.31155 -10.30810 -10.29372 -10.29322
 Alpha  occ. eigenvalues --  -10.29145 -10.28896 -10.28698 -10.28479 -10.28370
 Alpha  occ. eigenvalues --  -10.28367 -10.28245 -10.28238 -10.28213 -10.28188
 Alpha  occ. eigenvalues --  -10.28023 -10.27986 -10.27939 -10.27879 -10.27808
 Alpha  occ. eigenvalues --  -10.27525 -10.27457 -10.27242 -10.27147 -10.27105
 Alpha  occ. eigenvalues --  -10.27085 -10.27032 -10.26809 -10.26776 -10.26772
 Alpha  occ. eigenvalues --  -10.26675 -10.26611 -10.26538 -10.26454 -10.26417
 Alpha  occ. eigenvalues --  -10.26286 -10.26176 -10.25932 -10.25919 -10.25894
 Alpha  occ. eigenvalues --  -10.25780 -10.25700 -10.25559 -10.25454 -10.25317
 Alpha  occ. eigenvalues --  -10.24339 -10.24118 -10.24108 -10.24075 -10.23705
 Alpha  occ. eigenvalues --   -3.13658  -1.88366  -1.87903  -1.87830  -1.20411
 Alpha  occ. eigenvalues --   -1.15648  -1.14866  -1.12275  -1.07434  -1.04649
 Alpha  occ. eigenvalues --   -1.03922  -1.03590  -1.02736  -0.92387  -0.91369
 Alpha  occ. eigenvalues --   -0.90795  -0.90282  -0.89593  -0.89275  -0.88828
 Alpha  occ. eigenvalues --   -0.88078  -0.88050  -0.87344  -0.86304  -0.85371
 Alpha  occ. eigenvalues --   -0.84630  -0.84143  -0.83110  -0.82775  -0.81865
 Alpha  occ. eigenvalues --   -0.81604  -0.80920  -0.80045  -0.79227  -0.78166
 Alpha  occ. eigenvalues --   -0.77983  -0.77290  -0.76425  -0.76085  -0.75323
 Alpha  occ. eigenvalues --   -0.74900  -0.74622  -0.73624  -0.72692  -0.71957
 Alpha  occ. eigenvalues --   -0.71226  -0.71136  -0.69529  -0.68542  -0.67885
 Alpha  occ. eigenvalues --   -0.67504  -0.66636  -0.64958  -0.64526  -0.64284
 Alpha  occ. eigenvalues --   -0.64008  -0.63275  -0.62130  -0.61803  -0.61650
 Alpha  occ. eigenvalues --   -0.60853  -0.60527  -0.59947  -0.59298  -0.58767
 Alpha  occ. eigenvalues --   -0.58485  -0.58166  -0.57751  -0.57409  -0.56587
 Alpha  occ. eigenvalues --   -0.56203  -0.55883  -0.55014  -0.54791  -0.54501
 Alpha  occ. eigenvalues --   -0.54258  -0.53956  -0.53478  -0.53169  -0.52738
 Alpha  occ. eigenvalues --   -0.52401  -0.51902  -0.51724  -0.51625  -0.51484
 Alpha  occ. eigenvalues --   -0.51470  -0.51236  -0.50939  -0.50773  -0.50430
 Alpha  occ. eigenvalues --   -0.50054  -0.49650  -0.49630  -0.49539  -0.49247
 Alpha  occ. eigenvalues --   -0.49056  -0.49008  -0.48660  -0.48322  -0.48276
 Alpha  occ. eigenvalues --   -0.48008  -0.47844  -0.47745  -0.47137  -0.47016
 Alpha  occ. eigenvalues --   -0.46741  -0.46511  -0.46378  -0.46298  -0.46020
 Alpha  occ. eigenvalues --   -0.45757  -0.45618  -0.45527  -0.45480  -0.45334
 Alpha  occ. eigenvalues --   -0.45141  -0.45078  -0.44283  -0.44161  -0.44039
 Alpha  occ. eigenvalues --   -0.43921  -0.43385  -0.43258  -0.43123  -0.42996
 Alpha  occ. eigenvalues --   -0.42941  -0.42820  -0.42549  -0.42418  -0.42306
 Alpha  occ. eigenvalues --   -0.42040  -0.41958  -0.41759  -0.41566  -0.41379
 Alpha  occ. eigenvalues --   -0.41279  -0.41030  -0.40452  -0.40211  -0.39789
 Alpha  occ. eigenvalues --   -0.39691  -0.39645  -0.39372  -0.39298  -0.39224
 Alpha  occ. eigenvalues --   -0.38932  -0.38464  -0.38421  -0.37940  -0.37564
 Alpha  occ. eigenvalues --   -0.37486  -0.37172  -0.36909  -0.36689  -0.36605
 Alpha  occ. eigenvalues --   -0.36343  -0.36281  -0.35907  -0.35676  -0.35565
 Alpha  occ. eigenvalues --   -0.35401  -0.34728  -0.34559  -0.34391  -0.33944
 Alpha  occ. eigenvalues --   -0.33696  -0.33414  -0.32211  -0.30921  -0.30149
 Alpha  occ. eigenvalues --   -0.29560  -0.29031  -0.28138  -0.27965  -0.23062
 Alpha  occ. eigenvalues --   -0.21029
 Alpha virt. eigenvalues --   -0.05740  -0.03022   0.02137   0.04295   0.04578
 Alpha virt. eigenvalues --    0.05187   0.05601   0.06365   0.06967   0.07619
 Alpha virt. eigenvalues --    0.08263   0.09954   0.10943   0.11029   0.11422

 Mulliken charges:
               1
     1  Mg   0.823902
     2  C    0.084538
     3  C   -0.189819
     4  C   -0.200327
     5  C   -0.188318
     6  N   -0.642512
     7  C    0.301007
     8  C   -0.178471
     9  C   -0.165681
    10  C    0.351477
    11  C   -0.294853
    12  C   -0.155281
    13  C   -0.263661
    14  C    0.618119
    15  O   -0.471052
    16  O   -0.514926
    17  N   -0.722621
    18  C    0.254095
    19  C    0.056374
    20  C   -0.012282
    21  C    0.373296
    22  C   -0.391061
    23  C   -0.089886
    24  C   -0.245798
    25  N   -0.677482
    26  C    0.342842
    27  C    0.013081
    28  C    0.037870
    29  C    0.227169
    30  C   -0.364955
    31  C   -0.220865
    32  C   -0.299656
    33  N   -0.726072
    34  C    0.205318
    35  C    0.042810
    36  C   -0.051466
    37  C    0.367015
    38  C   -0.370599
    39  C    0.371403
    40  O   -0.402603
    41  C   -0.354867
    42  C    0.632856
    43  O   -0.444406
    44  O   -0.461783
    45  C   -0.086051
    46  C    0.048014
    47  C   -0.129790
    48  C    0.151855
    49  C   -0.362670
    50  C   -0.238329
    51  C   -0.178617
    52  C   -0.160936
    53  C   -0.067979
    54  C   -0.322620
    55  C   -0.171682
    56  C   -0.188972
    57  C   -0.150302
    58  C   -0.045547
    59  C   -0.305330
    60  C   -0.155687
    61  C   -0.164346
    62  C   -0.157303
    63  C   -0.063052
    64  C   -0.274701
    65  C   -0.307588
    66  H    0.065959
    67  H    0.082146
    68  H    0.070090
    69  H    0.115145
    70  H    0.106410
    71  H    0.117702
    72  H    0.106418
    73  H    0.114660
    74  H    0.110766
    75  H    0.121449
    76  H    0.147098
    77  H    0.130493
    78  H    0.140819
    79  H    0.124055
    80  H    0.116204
    81  H    0.083323
    82  H    0.106728
    83  H    0.109960
    84  H    0.125896
    85  H    0.120523
    86  H    0.077358
    87  H    0.110029
    88  H    0.101872
    89  H    0.084311
    90  H    0.114463
    91  H    0.123425
    92  H    0.136256
    93  H    0.150075
    94  H    0.091831
    95  H    0.171089
    96  H    0.139780
    97  H    0.129484
    98  H    0.134100
    99  H    0.120589
   100  H    0.092437
   101  H    0.059555
   102  H    0.102524
   103  H    0.114682
   104  H    0.122185
   105  H    0.074628
   106  H    0.093218
   107  H    0.112709
   108  H    0.104522
   109  H    0.075912
   110  H    0.106792
   111  H    0.076962
   112  H    0.097952
   113  H    0.112749
   114  H    0.097256
   115  H    0.097830
   116  H    0.081526
   117  H    0.099064
   118  H    0.077280
   119  H    0.072422
   120  H    0.091745
   121  H    0.074257
   122  H    0.090335
   123  H    0.080137
   124  H    0.083068
   125  H    0.077182
   126  H    0.079571
   127  H    0.096603
   128  H    0.070292
   129  H    0.087053
   130  H    0.085406
   131  H    0.080748
   132  H    0.056482
   133  H    0.100275
   134  H    0.092983
   135  H    0.103069
   136  H    0.108011
   137  H    0.099836
 Sum of Mulliken charges =  -0.00000

 Dipole moment (field-independent basis, Debye):
    X=              1.8700    Y=              2.6957    Z=              1.7974  Tot=              3.7409
 Quadrupole moment (field-independent basis, Debye-Ang):
   XX=           -351.2198   YY=           -388.3777   ZZ=           -399.3617
   XY=            -18.4125   XZ=              4.0377   YZ=             -3.5758

 Normal termination of Gaussian 16 at Thu Jun 27 13:49:27 2019.
