 Gaussian 09, Revision D.01,
 Gaussian 09:  ES64L-G09RevD.01 24-Apr-2013

 -------------------------------------
 # td=(NStates=1) CAM-B3LYP/6-31G(d,p)
 -------------------------------------

 --
 TD
 --
 Symbolic Z-matrix:
 Charge =  0 Multiplicity = 1

                         Standard orientation:
 ---------------------------------------------------------------------
 Center     Atomic      Atomic             Coordinates (Angstroms)
 Number     Number       Type             X           Y           Z
 ---------------------------------------------------------------------
      1         12           0       -7.065069    0.556953    0.038202
      2          6           0       -4.874374   -1.956325    0.550035
      3          6           0       -4.766095    2.866873    1.120688
      4          6           0       -9.358214    3.072761   -0.391550
      5          6           0       -9.535665   -1.705546   -0.920573
      6          7           0       -5.069488    0.428901    0.746297
      7          6           0       -4.294561   -0.793903    0.848757
      8          6           0       -2.842544   -0.388963    1.196154
      9          6           0       -3.047306    1.085808    1.720269
     10          6           0       -4.374198    1.484220    1.155179
     11          6           0       -2.845475    1.175865    3.204989
     12          6           0       -1.975401   -0.548388    0.061488
     13          6           0       -0.485897   -0.336417    0.493537
     14          6           0        0.548862   -0.579161   -0.592538
     15          8           0        0.235054   -1.166944   -1.657508
     16          8           0        1.786991   -0.419743   -0.148314
     17          7           0       -6.998544    2.581503    0.351990
     18          6           0       -5.957632    3.400772    0.811315
     19          6           0       -6.354546    4.690287    0.839559
     20          6           0       -7.672533    4.747316    0.374910
     21          6           0       -8.022976    3.401881    0.144170
     22          6           0       -5.302229    5.898306    0.945325
     23          6           0       -8.461513    5.986410    0.099727
     24          6           0       -8.279347    7.067932    0.812558
     25          7           0       -9.037729    0.694319   -0.472520
     26          6           0       -9.819479    1.833765   -0.535723
     27          6           0      -11.177085    1.491893   -0.954671
     28          6           0      -11.138602    0.105735   -1.152208
     29          6           0       -9.844744   -0.343653   -0.837710
     30          6           0      -12.328697    2.475400   -1.273481
     31          6           0      -12.338061   -0.721086   -1.661210
     32          6           0      -12.443703   -0.831869   -3.129193
     33          7           0       -7.192423   -1.427424   -0.179410
     34          6           0       -8.284924   -2.207510   -0.561601
     35          6           0       -7.867902   -3.593388   -0.450767
     36          6           0       -6.547155   -3.515544   -0.119097
     37          6           0       -6.174248   -2.221440    0.072391
     38          6           0       -8.568226   -4.753256   -0.995120
     39          6           0       -5.373132   -4.378547    0.232302
     40          8           0       -5.494427   -5.610342    0.114861
     41          6           0       -4.236587   -3.362756    0.556015
     42          6           0       -3.550673   -3.789858    1.930610
     43          8           0       -3.666598   -3.148099    2.942809
     44          8           0       -2.717927   -4.811545    1.642692
     45          6           0       -2.044800   -5.329598    2.835528
     46          6           0        2.811818   -0.677624   -1.125189
     47          6           0        4.111755   -0.406936   -0.623579
     48          6           0        5.089448    0.400584   -0.990758
     49          6           0        4.994139    1.281277   -2.253976
     50          6           0        6.340530    0.448618   -0.178516
     51          6           0        7.519466   -0.189250   -0.995570
     52          6           0        8.820449   -0.062988   -0.211448
     53          6           0       10.135614   -0.407116   -1.072389
     54          6           0        9.981597   -1.924062   -1.391260
     55          6           0       11.288826   -0.222098   -0.175757
     56          6           0       12.824037   -0.468595   -0.815361
     57          6           0       13.894349   -0.078963    0.110320
     58          6           0       15.300446   -0.104655   -0.480028
     59          6           0       15.580623   -1.640820   -0.926505
     60          6           0       16.382080    0.433832    0.388395
     61          6           0       17.764336    0.487631   -0.226327
     62          6           0       18.715198    1.258163    0.822790
     63          6           0       20.187034    1.303745    0.433531
     64          6           0       20.437922    2.162946   -0.844211
     65          6           0       21.100257    1.596888    1.396766
     66          1           0       -3.804938    3.369469    1.590455
     67          1           0      -10.014368    3.960208   -0.817827
     68          1           0      -10.370178   -2.406640   -1.035629
     69          1           0       -2.470856   -0.971936    1.970235
     70          1           0       -2.465904    1.736950    1.200044
     71          1           0       -2.011982    0.770390    3.633074
     72          1           0       -2.984412    2.217187    3.583639
     73          1           0       -3.647536    0.652471    3.813373
     74          1           0       -2.090152   -1.644615   -0.206025
     75          1           0       -2.193555    0.141672   -0.825652
     76          1           0       -0.394668    0.651435    1.001980
     77          1           0       -0.230913   -0.992022    1.342141
     78          1           0       -5.647360    6.792087    0.523191
     79          1           0       -5.287093    6.264868    2.054413
     80          1           0       -4.468287    5.668897    0.641307
     81          1           0       -9.287524    5.874883   -0.567205
     82          1           0       -9.020640    7.897346    0.677008
     83          1           0       -7.513087    7.316502    1.457012
     84          1           0      -11.868985    3.415034   -2.054745
     85          1           0      -13.286482    2.006309   -1.769488
     86          1           0      -12.776887    3.133744   -0.468220
     87          1           0      -12.433811   -1.569550   -1.075197
     88          1           0      -13.270667   -0.118151   -1.301925
     89          1           0      -13.279631   -1.403425   -3.740761
     90          1           0      -12.304508    0.025641   -3.647795
     91          1           0      -11.535224   -1.464758   -3.489547
     92          1           0       -9.123477   -4.495118   -1.966896
     93          1           0       -7.842086   -5.504003   -0.735365
     94          1           0       -9.429928   -4.890270   -0.312303
     95          1           0       -3.412408   -3.641952   -0.168987
     96          1           0       -1.681899   -4.600801    3.450497
     97          1           0       -2.596454   -5.841375    3.521226
     98          1           0       -1.206684   -5.964837    2.652650
     99          1           0        2.597644   -1.732998   -1.315071
    100          1           0        2.746944   -0.168266   -2.224880
    101          1           0        4.097324   -0.981698    0.295019
    102          1           0        3.837436    1.574435   -2.448136
    103          1           0        5.650501    2.302364   -2.021973
    104          1           0        5.560737    0.869800   -3.086210
    105          1           0        6.601683    1.509528   -0.127034
    106          1           0        6.309650   -0.264617    0.590495
    107          1           0        7.530288   -1.377107   -1.089957
    108          1           0        7.790910    0.285662   -2.002620
    109          1           0        8.875436    0.903562    0.374485
    110          1           0        8.835629   -0.672631    0.536790
    111          1           0       10.104499    0.128729   -1.978721
    112          1           0        9.176435   -1.882712   -2.151196
    113          1           0       10.973126   -2.293123   -1.866769
    114          1           0        9.554875   -2.543843   -0.650005
    115          1           0       11.036408    0.840691    0.307305
    116          1           0       10.944234   -0.934911    0.750705
    117          1           0       12.787027   -1.550630   -1.167015
    118          1           0       12.634170    0.162521   -1.845071
    119          1           0       13.955053    1.060531    0.570733
    120          1           0       14.006085   -0.657130    1.058611
    121          1           0       15.053056    0.477967   -1.326322
    122          1           0       15.610590   -2.245980   -0.010958
    123          1           0       14.982218   -1.862457   -1.686678
    124          1           0       16.532606   -1.733318   -1.365244
    125          1           0       16.177800    1.434643    0.567241
    126          1           0       16.561101   -0.170075    1.159394
    127          1           0       18.176008   -0.504309   -0.228343
    128          1           0       17.786845    0.965462   -1.179191
    129          1           0       18.503085    2.425554    0.758511
    130          1           0       18.737862    0.781314    1.919223
    131          1           0       20.427900    0.250981   -0.006178
    132          1           0       20.159927    3.091700   -0.569500
    133          1           0       21.551431    2.233449   -1.285265
    134          1           0       19.742746    1.791355   -1.619357
    135          1           0       20.956007    0.886405    2.179186
    136          1           0       22.205910    1.357148    1.270380
    137          1           0       21.063193    2.773669    1.619758
 ---------------------------------------------------------------------

 SCF Done:  E(RCAM-B3LYP) =  -2932.60932390     A.U. after   18 cycles

 Excitation energies and oscillator strengths:

 Excited State   1:      Singlet-A      1.8721 eV  662.28 nm  f=0.2987  <S**2>=0.000
     240 -> 243       -0.18624
     241 -> 242        0.67764
 This state for optimization and/or second-order correction.
 Total Energy, E(TD-HF/TD-KS) =  -2932.54052608
 Copying the excited state density for this state as the 1-particle RhoCI density.

 The electronic state is 1-A.
 Alpha  occ. eigenvalues --  -46.83169 -19.28347 -19.27574 -19.22324 -19.20506
 Alpha  occ. eigenvalues --  -19.20405 -14.41597 -14.38758 -14.38472 -14.38386
 Alpha  occ. eigenvalues --  -10.40518 -10.39692 -10.35265 -10.32075 -10.30680
 Alpha  occ. eigenvalues --  -10.30563 -10.30281 -10.29872 -10.29334 -10.29043
 Alpha  occ. eigenvalues --  -10.28914 -10.28501 -10.28299 -10.28281 -10.28251
 Alpha  occ. eigenvalues --  -10.28218 -10.28028 -10.28003 -10.27482 -10.27407
 Alpha  occ. eigenvalues --  -10.27313 -10.27254 -10.27248 -10.27161 -10.27087
 Alpha  occ. eigenvalues --  -10.27058 -10.26843 -10.26837 -10.26751 -10.26666
 Alpha  occ. eigenvalues --  -10.26606 -10.26598 -10.26493 -10.26353 -10.26215
 Alpha  occ. eigenvalues --  -10.26200 -10.26024 -10.25826 -10.25788 -10.25522
 Alpha  occ. eigenvalues --  -10.25402 -10.25324 -10.25107 -10.25052 -10.24984
 Alpha  occ. eigenvalues --  -10.24957 -10.24949 -10.24875 -10.24693 -10.24375
 Alpha  occ. eigenvalues --  -10.24164 -10.24127 -10.23283 -10.23041 -10.23021
 Alpha  occ. eigenvalues --   -3.12313  -1.87023  -1.86553  -1.86489  -1.19155
 Alpha  occ. eigenvalues --   -1.18970  -1.10919  -1.09556  -1.07660  -1.04612
 Alpha  occ. eigenvalues --   -1.04113  -1.02876  -1.02304  -0.92664  -0.92275
 Alpha  occ. eigenvalues --   -0.91487  -0.91049  -0.90420  -0.89786  -0.89034
 Alpha  occ. eigenvalues --   -0.88665  -0.87973  -0.87449  -0.87220  -0.86581
 Alpha  occ. eigenvalues --   -0.85520  -0.84888  -0.83889  -0.83478  -0.82313
 Alpha  occ. eigenvalues --   -0.82196  -0.81696  -0.81116  -0.79540  -0.78735
 Alpha  occ. eigenvalues --   -0.78304  -0.77543  -0.76468  -0.76422  -0.76175
 Alpha  occ. eigenvalues --   -0.75671  -0.75118  -0.74853  -0.73830  -0.72739
 Alpha  occ. eigenvalues --   -0.72165  -0.70777  -0.70284  -0.69642  -0.68179
 Alpha  occ. eigenvalues --   -0.66913  -0.66616  -0.65670  -0.65340  -0.65096
 Alpha  occ. eigenvalues --   -0.64765  -0.63730  -0.63004  -0.62748  -0.62322
 Alpha  occ. eigenvalues --   -0.61167  -0.60930  -0.60798  -0.60132  -0.59258
 Alpha  occ. eigenvalues --   -0.58578  -0.58306  -0.57407  -0.57248  -0.56913
 Alpha  occ. eigenvalues --   -0.56604  -0.56244  -0.56168  -0.55653  -0.55216
 Alpha  occ. eigenvalues --   -0.54969  -0.54866  -0.54559  -0.54320  -0.53396
 Alpha  occ. eigenvalues --   -0.53183  -0.52956  -0.52743  -0.51953  -0.51705
 Alpha  occ. eigenvalues --   -0.51593  -0.51238  -0.51051  -0.50664  -0.50467
 Alpha  occ. eigenvalues --   -0.50368  -0.50339  -0.49828  -0.49763  -0.49517
 Alpha  occ. eigenvalues --   -0.49245  -0.49033  -0.48603  -0.48563  -0.48473
 Alpha  occ. eigenvalues --   -0.48266  -0.48206  -0.47923  -0.47885  -0.47763
 Alpha  occ. eigenvalues --   -0.47275  -0.47096  -0.46604  -0.46575  -0.46399
 Alpha  occ. eigenvalues --   -0.45933  -0.45897  -0.45496  -0.45393  -0.45104
 Alpha  occ. eigenvalues --   -0.44739  -0.44636  -0.44596  -0.44345  -0.44074
 Alpha  occ. eigenvalues --   -0.44010  -0.43786  -0.43663  -0.43411  -0.43327
 Alpha  occ. eigenvalues --   -0.43137  -0.42890  -0.42663  -0.42590  -0.42376
 Alpha  occ. eigenvalues --   -0.42242  -0.42187  -0.42069  -0.41707  -0.41517
 Alpha  occ. eigenvalues --   -0.41419  -0.41181  -0.41021  -0.40696  -0.40627
 Alpha  occ. eigenvalues --   -0.40333  -0.40280  -0.39793  -0.39349  -0.39328
 Alpha  occ. eigenvalues --   -0.39280  -0.38974  -0.38270  -0.37884  -0.37600
 Alpha  occ. eigenvalues --   -0.37569  -0.37377  -0.37310  -0.37146  -0.36517
 Alpha  occ. eigenvalues --   -0.36346  -0.35855  -0.35814  -0.35710  -0.35461
 Alpha  occ. eigenvalues --   -0.35068  -0.34863  -0.34409  -0.34031  -0.33595
 Alpha  occ. eigenvalues --   -0.33166  -0.33019  -0.32195  -0.31532  -0.30139
 Alpha  occ. eigenvalues --   -0.29443  -0.28789  -0.27960  -0.27178  -0.23950
 Alpha  occ. eigenvalues --   -0.20105
 Alpha virt. eigenvalues --   -0.06717  -0.02657   0.01939   0.04798   0.05094
 Alpha virt. eigenvalues --    0.05420   0.05894   0.06219   0.07050   0.07586
 Alpha virt. eigenvalues --    0.08741   0.10585   0.11254   0.11428   0.11799

 Mulliken charges:
               1
     1  Mg   0.805017
     2  C    0.106201
     3  C   -0.221149
     4  C   -0.200797
     5  C   -0.167492
     6  N   -0.636958
     7  C    0.252970
     8  C   -0.137479
     9  C   -0.143161
    10  C    0.347739
    11  C   -0.320888
    12  C   -0.147434
    13  C   -0.286200
    14  C    0.613030
    15  O   -0.493309
    16  O   -0.456007
    17  N   -0.711747
    18  C    0.343559
    19  C   -0.019010
    20  C   -0.016900
    21  C    0.319150
    22  C   -0.332826
    23  C   -0.047326
    24  C   -0.232309
    25  N   -0.713329
    26  C    0.318850
    27  C    0.048245
    28  C   -0.019035
    29  C    0.331367
    30  C   -0.364101
    31  C   -0.223429
    32  C   -0.300589
    33  N   -0.757408
    34  C    0.265972
    35  C   -0.017091
    36  C   -0.009154
    37  C    0.322734
    38  C   -0.376815
    39  C    0.394716
    40  O   -0.475938
    41  C   -0.351758
    42  C    0.627291
    43  O   -0.454164
    44  O   -0.447730
    45  C   -0.109645
    46  C    0.010483
    47  C   -0.125196
    48  C    0.137915
    49  C   -0.358365
    50  C   -0.210043
    51  C   -0.199675
    52  C   -0.182547
    53  C   -0.069933
    54  C   -0.315619
    55  C   -0.148115
    56  C   -0.189085
    57  C   -0.143744
    58  C   -0.084691
    59  C   -0.326447
    60  C   -0.143379
    61  C   -0.192892
    62  C   -0.165537
    63  C   -0.050046
    64  C   -0.307383
    65  C   -0.280262
    66  H    0.083108
    67  H    0.094323
    68  H    0.102808
    69  H    0.116749
    70  H    0.108197
    71  H    0.123995
    72  H    0.103096
    73  H    0.120404
    74  H    0.115859
    75  H    0.113993
    76  H    0.124736
    77  H    0.135779
    78  H    0.122192
    79  H    0.095430
    80  H    0.117182
    81  H    0.092347
    82  H    0.090397
    83  H    0.107701
    84  H    0.073771
    85  H    0.113964
    86  H    0.125890
    87  H    0.113216
    88  H    0.088118
    89  H    0.093797
    90  H    0.129236
    91  H    0.087179
    92  H    0.127188
    93  H    0.160508
    94  H    0.113972
    95  H    0.176479
    96  H    0.137476
    97  H    0.140962
    98  H    0.129166
    99  H    0.130540
   100  H    0.093132
   101  H    0.081360
   102  H    0.115625
   103  H    0.081652
   104  H    0.141529
   105  H    0.113168
   106  H    0.118079
   107  H    0.089916
   108  H    0.087436
   109  H    0.069743
   110  H    0.105678
   111  H    0.090242
   112  H    0.099310
   113  H    0.089141
   114  H    0.112169
   115  H    0.070901
   116  H    0.061997
   117  H    0.113141
   118  H    0.081494
   119  H    0.065119
   120  H    0.091854
   121  H    0.082950
   122  H    0.097908
   123  H    0.110220
   124  H    0.100357
   125  H    0.098137
   126  H    0.096374
   127  H    0.102898
   128  H    0.102582
   129  H    0.071256
   130  H    0.078838
   131  H    0.063562
   132  H    0.104935
   133  H    0.084836
   134  H    0.095004
   135  H    0.095251
   136  H    0.098061
   137  H    0.073286
 Sum of Mulliken charges =   0.00000

 Dipole moment (field-independent basis, Debye):
    X=              3.7838    Y=              3.7134    Z=              1.0717  Tot=              5.4088
 Quadrupole moment (field-independent basis, Debye-Ang):
   XX=           -359.3414   YY=           -395.8503   ZZ=           -395.7827
   XY=            -30.5224   XZ=              8.0473   YZ=            -10.7687

 Normal termination of Gaussian 09 at Sat Jul  6 09:14:25 2019.
