 Gaussian 16, Revision A.03,
 Gaussian 16:  ES64L-G16RevA.03 25-Dec-2016

 ----------------------------------------------------------------------
 # td=(NStates=1) iop(3/107=0140000000,3/108=0140000000) CAM-B3LYP/6-31
 G(d,p)
 ----------------------------------------------------------------------

 --
 TD
 --
 Symbolic Z-matrix:
 Charge =  0 Multiplicity = 1

                         Standard orientation:
 ---------------------------------------------------------------------
 Center     Atomic      Atomic             Coordinates (Angstroms)
 Number     Number       Type             X           Y           Z
 ---------------------------------------------------------------------
      1         12           0       -6.973977    0.651324    0.163042
      2          6           0       -4.844060   -1.932430    0.546950
      3          6           0       -4.769469    2.909975    1.220657
      4          6           0       -9.382456    3.100247   -0.496554
      5          6           0       -9.445869   -1.718788   -0.947486
      6          7           0       -5.020601    0.512955    0.819716
      7          6           0       -4.264681   -0.709516    0.803023
      8          6           0       -2.897169   -0.454191    1.278756
      9          6           0       -2.962540    1.047054    1.654797
     10          6           0       -4.344237    1.570461    1.203921
     11          6           0       -2.766873    1.236592    3.216680
     12          6           0       -1.978766   -0.722808    0.096384
     13          6           0       -0.515598   -0.624323    0.563706
     14          6           0        0.512228   -0.809703   -0.525152
     15          8           0        0.099255   -1.032274   -1.742259
     16          8           0        1.765187   -0.700669   -0.145569
     17          7           0       -7.091029    2.688117    0.385962
     18          6           0       -5.947684    3.399139    0.756345
     19          6           0       -6.350041    4.846179    0.823836
     20          6           0       -7.645186    4.939906    0.353639
     21          6           0       -8.120072    3.558970    0.016293
     22          6           0       -5.362561    5.937269    1.127481
     23          6           0       -8.505730    6.173031    0.161945
     24          6           0       -8.326749    7.334583    0.761324
     25          7           0       -9.067047    0.705718   -0.618899
     26          6           0       -9.789291    1.779764   -0.733317
     27          6           0      -11.136251    1.560850   -1.146121
     28          6           0      -11.231456    0.183022   -1.284078
     29          6           0       -9.892687   -0.390235   -0.992744
     30          6           0      -12.144376    2.484760   -1.427452
     31          6           0      -12.329486   -0.684615   -1.760387
     32          6           0      -12.116383   -1.313592   -3.168176
     33          7           0       -7.171924   -1.311408   -0.302780
     34          6           0       -8.197544   -2.188940   -0.559503
     35          6           0       -7.765217   -3.600925   -0.474647
     36          6           0       -6.438759   -3.542264   -0.139212
     37          6           0       -6.188576   -2.165637    0.094693
     38          6           0       -8.626705   -4.830830   -0.684399
     39          6           0       -5.267797   -4.348156    0.174859
     40          8           0       -5.126796   -5.526570    0.219916
     41          6           0       -4.164503   -3.292004    0.476391
     42          6           0       -3.632357   -3.716641    1.892378
     43          8           0       -3.757533   -3.082951    2.964881
     44          8           0       -2.852630   -4.787238    1.838183
     45          6           0       -2.243825   -5.219539    3.072684
     46          6           0        2.705273   -0.834019   -1.221412
     47          6           0        3.997173   -0.531461   -0.588537
     48          6           0        4.952238    0.344308   -0.957848
     49          6           0        4.764882    1.108720   -2.283761
     50          6           0        6.361221    0.538618   -0.344697
     51          6           0        7.482979   -0.312654   -0.967342
     52          6           0        8.783094   -0.253352   -0.207541
     53          6           0       10.075708   -0.560866   -0.869578
     54          6           0       10.069391   -2.038444   -1.193336
     55          6           0       11.351307   -0.258162   -0.046602
     56          6           0       12.686967   -0.339293   -0.787714
     57          6           0       13.902867   -0.022559    0.066614
     58          6           0       15.281189   -0.137308   -0.603367
     59          6           0       15.723669   -1.614379   -0.928457
     60          6           0       16.422861    0.408167    0.338381
     61          6           0       17.764690    0.518218   -0.160919
     62          6           0       18.734543    1.212561    0.811472
     63          6           0       20.237671    1.363116    0.336226
     64          6           0       20.372085    2.134761   -1.074079
     65          6           0       21.103423    2.049580    1.368176
     66          1           0       -3.947191    3.655714    1.524494
     67          1           0      -10.214590    3.816036   -0.482621
     68          1           0      -10.064293   -2.599791   -1.109024
     69          1           0       -2.457062   -1.014089    2.206445
     70          1           0       -2.195560    1.702738    1.225262
     71          1           0       -1.735954    0.800215    3.622708
     72          1           0       -2.989185    2.271794    3.600478
     73          1           0       -3.613669    0.771236    3.720646
     74          1           0       -2.034626   -1.656522   -0.511488
     75          1           0       -2.325538    0.131312   -0.635111
     76          1           0       -0.334256    0.446203    0.802870
     77          1           0       -0.385872   -1.031939    1.581643
     78          1           0       -5.352708    6.759370    0.419582
     79          1           0       -5.468142    6.209633    2.233989
     80          1           0       -4.223012    5.448672    1.241855
     81          1           0       -9.436625    5.941604   -0.836290
     82          1           0       -9.149934    8.020546    0.425651
     83          1           0       -7.446689    7.519174    1.505516
     84          1           0      -12.079504    3.238809   -2.263963
     85          1           0      -13.117561    1.978159   -1.584634
     86          1           0      -12.418339    3.128436   -0.666592
     87          1           0      -12.324350   -1.749644   -1.008047
     88          1           0      -13.389929   -0.384038   -1.812234
     89          1           0      -12.652375   -2.368673   -3.421848
     90          1           0      -12.257444   -0.350528   -3.785238
     91          1           0      -10.975833   -1.652769   -3.321103
     92          1           0       -9.164913   -5.150509   -1.637004
     93          1           0       -7.841691   -5.597778   -0.478688
     94          1           0       -9.430085   -4.921772    0.117011
     95          1           0       -3.404262   -3.468463   -0.313210
     96          1           0       -1.914052   -4.272079    3.616485
     97          1           0       -3.030734   -5.583911    3.614684
     98          1           0       -1.533115   -6.010365    3.015116
     99          1           0        2.612930   -1.956558   -1.517080
    100          1           0        2.393809   -0.303787   -2.143330
    101          1           0        4.442961   -0.947208    0.251797
    102          1           0        3.747263    1.085628   -2.658210
    103          1           0        5.101244    2.106729   -2.293869
    104          1           0        5.410048    0.436402   -3.060134
    105          1           0        6.533026    1.629253   -0.330351
    106          1           0        6.403937    0.193136    0.743089
    107          1           0        7.172779   -1.437507   -1.051992
    108          1           0        7.521366   -0.015162   -1.981074
    109          1           0        8.896546    0.957002   -0.160741
    110          1           0        8.698486   -0.775708    0.658112
    111          1           0       10.225509    0.001008   -1.760943
    112          1           0        8.955481   -2.439812   -1.520223
    113          1           0       10.930363   -2.312154   -1.853818
    114          1           0       10.185157   -2.732590   -0.166461
    115          1           0       11.162731    0.734504    0.180450
    116          1           0       11.338182   -1.188237    0.822988
    117          1           0       12.681952   -1.485605   -1.044848
    118          1           0       12.714821    0.102757   -1.831626
    119          1           0       13.777864    1.165996    0.176904
    120          1           0       13.782146   -0.518994    1.019679
    121          1           0       15.304219    0.349299   -1.536100
    122          1           0       15.614145   -2.180478    0.031098
    123          1           0       14.973799   -2.248250   -1.564194
    124          1           0       16.538380   -1.739282   -1.326118
    125          1           0       15.919808    1.417676    0.849627
    126          1           0       16.204698   -0.101684    1.332731
    127          1           0       18.284013   -0.416241   -0.273949
    128          1           0       17.826094    1.001389   -1.137402
    129          1           0       18.418711    2.253365    1.012989
    130          1           0       18.939566    0.988824    1.733945
    131          1           0       20.574293    0.479325    0.131900
    132          1           0       19.970184    3.039736   -0.927934
    133          1           0       21.401592    2.153502   -1.474758
    134          1           0       19.582155    1.630563   -1.813619
    135          1           0       20.934377    1.353008    2.317983
    136          1           0       22.076985    2.216735    1.072767
    137          1           0       20.636492    3.097407    1.600521
 ---------------------------------------------------------------------

 SCF Done:  E(RCAM-B3LYP) =  -2933.47458161     A.U. after   15 cycles

 Excitation energies and oscillator strengths:

 Excited State   1:      Singlet-A      2.0966 eV  591.35 nm  f=0.2343  <S**2>=0.000
     240 -> 243       -0.24292
     241 -> 242        0.66145
 This state for optimization and/or second-order correction.
 Total Energy, E(TD-HF/TD-DFT) =  -2933.39753214
 Copying the excited state density for this state as the 1-particle RhoCI density.

 The electronic state is 1-A.
 Alpha  occ. eigenvalues --  -46.80752 -19.23872 -19.22046 -19.16561 -19.15871
 Alpha  occ. eigenvalues --  -19.15856 -14.37913 -14.35660 -14.35459 -14.34504
 Alpha  occ. eigenvalues --  -10.35157 -10.34636 -10.30373 -10.28928 -10.27001
 Alpha  occ. eigenvalues --  -10.26220 -10.26083 -10.26008 -10.25966 -10.25184
 Alpha  occ. eigenvalues --  -10.24653 -10.24587 -10.24575 -10.24190 -10.23926
 Alpha  occ. eigenvalues --  -10.23876 -10.23760 -10.23609 -10.23570 -10.23530
 Alpha  occ. eigenvalues --  -10.23469 -10.23387 -10.23323 -10.23245 -10.23139
 Alpha  occ. eigenvalues --  -10.23122 -10.22932 -10.22828 -10.22681 -10.22675
 Alpha  occ. eigenvalues --  -10.22623 -10.22553 -10.22487 -10.22412 -10.22311
 Alpha  occ. eigenvalues --  -10.22167 -10.22161 -10.22067 -10.22053 -10.22034
 Alpha  occ. eigenvalues --  -10.21964 -10.21881 -10.21858 -10.21474 -10.21244
 Alpha  occ. eigenvalues --  -10.21160 -10.21119 -10.20953 -10.20862 -10.20694
 Alpha  occ. eigenvalues --  -10.20511 -10.20239 -10.19884 -10.19526 -10.19002
 Alpha  occ. eigenvalues --   -3.09178  -1.84132  -1.83626  -1.83596  -1.14564
 Alpha  occ. eigenvalues --   -1.13048  -1.08128  -1.02031  -1.00674  -0.99432
 Alpha  occ. eigenvalues --   -0.98664  -0.97872  -0.96234  -0.87835  -0.86876
 Alpha  occ. eigenvalues --   -0.85713  -0.85362  -0.85047  -0.83697  -0.83422
 Alpha  occ. eigenvalues --   -0.83328  -0.83038  -0.82388  -0.81926  -0.81501
 Alpha  occ. eigenvalues --   -0.80185  -0.79486  -0.78917  -0.78761  -0.77650
 Alpha  occ. eigenvalues --   -0.77148  -0.76580  -0.76228  -0.75516  -0.73165
 Alpha  occ. eigenvalues --   -0.72669  -0.72233  -0.71750  -0.71488  -0.70853
 Alpha  occ. eigenvalues --   -0.70586  -0.70244  -0.69839  -0.69339  -0.67777
 Alpha  occ. eigenvalues --   -0.66961  -0.66270  -0.65510  -0.63936  -0.63459
 Alpha  occ. eigenvalues --   -0.63310  -0.61319  -0.60909  -0.60726  -0.60573
 Alpha  occ. eigenvalues --   -0.60192  -0.60110  -0.59622  -0.59224  -0.58437
 Alpha  occ. eigenvalues --   -0.57967  -0.56712  -0.56173  -0.55232  -0.54868
 Alpha  occ. eigenvalues --   -0.54343  -0.53895  -0.53570  -0.53200  -0.52929
 Alpha  occ. eigenvalues --   -0.52520  -0.51639  -0.51334  -0.51153  -0.51002
 Alpha  occ. eigenvalues --   -0.50920  -0.50499  -0.50210  -0.50078  -0.49658
 Alpha  occ. eigenvalues --   -0.49408  -0.49012  -0.48658  -0.48260  -0.48022
 Alpha  occ. eigenvalues --   -0.47614  -0.47340  -0.47176  -0.47013  -0.46658
 Alpha  occ. eigenvalues --   -0.46539  -0.46429  -0.46372  -0.46217  -0.45887
 Alpha  occ. eigenvalues --   -0.45717  -0.45459  -0.45382  -0.44994  -0.44947
 Alpha  occ. eigenvalues --   -0.44793  -0.44507  -0.44252  -0.44068  -0.43831
 Alpha  occ. eigenvalues --   -0.43439  -0.42805  -0.42694  -0.42473  -0.42344
 Alpha  occ. eigenvalues --   -0.42068  -0.41943  -0.41885  -0.41830  -0.41477
 Alpha  occ. eigenvalues --   -0.41321  -0.41247  -0.41090  -0.40847  -0.40678
 Alpha  occ. eigenvalues --   -0.40473  -0.40259  -0.40178  -0.40026  -0.39909
 Alpha  occ. eigenvalues --   -0.39613  -0.39527  -0.39333  -0.39130  -0.38833
 Alpha  occ. eigenvalues --   -0.38587  -0.38454  -0.38044  -0.37757  -0.37702
 Alpha  occ. eigenvalues --   -0.37657  -0.37594  -0.37341  -0.37154  -0.36983
 Alpha  occ. eigenvalues --   -0.36711  -0.36331  -0.36240  -0.35518  -0.35412
 Alpha  occ. eigenvalues --   -0.35392  -0.35176  -0.35102  -0.35034  -0.34640
 Alpha  occ. eigenvalues --   -0.34569  -0.34457  -0.33865  -0.33803  -0.33197
 Alpha  occ. eigenvalues --   -0.32734  -0.32622  -0.32499  -0.32459  -0.32278
 Alpha  occ. eigenvalues --   -0.32269  -0.32035  -0.31145  -0.30761  -0.30014
 Alpha  occ. eigenvalues --   -0.29821  -0.29470  -0.29412  -0.28400  -0.27599
 Alpha  occ. eigenvalues --   -0.27296  -0.27139  -0.25369  -0.24924  -0.21899
 Alpha  occ. eigenvalues --   -0.19763
 Alpha virt. eigenvalues --   -0.06548  -0.03978  -0.00384   0.02508   0.02837
 Alpha virt. eigenvalues --    0.03696   0.03872   0.04669   0.05169   0.05552
 Alpha virt. eigenvalues --    0.05877   0.07443   0.08378   0.08641   0.08962

 Mulliken charges:
               1
     1  Mg   0.815057
     2  C    0.096820
     3  C   -0.192405
     4  C   -0.182732
     5  C   -0.172579
     6  N   -0.672273
     7  C    0.278998
     8  C   -0.151508
     9  C   -0.153332
    10  C    0.369957
    11  C   -0.323201
    12  C   -0.152965
    13  C   -0.277609
    14  C    0.610134
    15  O   -0.525964
    16  O   -0.426945
    17  N   -0.716254
    18  C    0.336994
    19  C    0.026806
    20  C    0.004752
    21  C    0.298626
    22  C   -0.384748
    23  C   -0.045518
    24  C   -0.256147
    25  N   -0.676223
    26  C    0.361371
    27  C    0.076073
    28  C    0.064773
    29  C    0.256803
    30  C   -0.423221
    31  C   -0.252843
    32  C   -0.291360
    33  N   -0.692377
    34  C    0.254583
    35  C    0.005976
    36  C    0.053802
    37  C    0.267175
    38  C   -0.400442
    39  C    0.363904
    40  O   -0.438927
    41  C   -0.345993
    42  C    0.616621
    43  O   -0.501553
    44  O   -0.428304
    45  C   -0.091803
    46  C   -0.009083
    47  C   -0.085929
    48  C    0.080409
    49  C   -0.356743
    50  C   -0.225751
    51  C   -0.167887
    52  C   -0.139497
    53  C   -0.057798
    54  C   -0.297702
    55  C   -0.139619
    56  C   -0.184361
    57  C   -0.156940
    58  C   -0.058908
    59  C   -0.296979
    60  C   -0.155512
    61  C   -0.173588
    62  C   -0.168181
    63  C   -0.071370
    64  C   -0.317820
    65  C   -0.301682
    66  H    0.080922
    67  H    0.082911
    68  H    0.085599
    69  H    0.124171
    70  H    0.103820
    71  H    0.096391
    72  H    0.102668
    73  H    0.131943
    74  H    0.126551
    75  H    0.103572
    76  H    0.134415
    77  H    0.129549
    78  H    0.140698
    79  H    0.124522
    80  H    0.083865
    81  H    0.057540
    82  H    0.108534
    83  H    0.112674
    84  H    0.117941
    85  H    0.108306
    86  H    0.129949
    87  H    0.054516
    88  H    0.111198
    89  H    0.096092
    90  H    0.104295
    91  H    0.094308
    92  H    0.123915
    93  H    0.143690
    94  H    0.123503
    95  H    0.170010
    96  H    0.127186
    97  H    0.141942
    98  H    0.129781
    99  H    0.122778
   100  H    0.148076
   101  H    0.079236
   102  H    0.110197
   103  H    0.115695
   104  H    0.100212
   105  H    0.105638
   106  H    0.090216
   107  H    0.082699
   108  H    0.103308
   109  H    0.059796
   110  H    0.101365
   111  H    0.090164
   112  H    0.077050
   113  H    0.107684
   114  H    0.062938
   115  H    0.092189
   116  H    0.059543
   117  H    0.075874
   118  H    0.086859
   119  H    0.073462
   120  H    0.097628
   121  H    0.087867
   122  H    0.090040
   123  H    0.073954
   124  H    0.111106
   125  H    0.051123
   126  H    0.087598
   127  H    0.108926
   128  H    0.103574
   129  H    0.078166
   130  H    0.093858
   131  H    0.099897
   132  H    0.116751
   133  H    0.097208
   134  H    0.069832
   135  H    0.081849
   136  H    0.113959
   137  H    0.087660
 Sum of Mulliken charges =  -0.00000

 Dipole moment (field-independent basis, Debye):
    X=              3.6165    Y=              3.6921    Z=              1.0697  Tot=              5.2778
 Quadrupole moment (field-independent basis, Debye-Ang):
   XX=           -351.6243   YY=           -391.3939   ZZ=           -401.4165
   XY=            -18.8467   XZ=              3.1260   YZ=             -3.4776

 Normal termination of Gaussian 16 at Sat Sep  7 07:25:27 2019.
