 Gaussian 16, Revision A.03,
 Gaussian 16:  ES64L-G16RevA.03 25-Dec-2016

 ----------------------------------------------------------------------
 # td=(NStates=1) iop(3/107=0140000000,3/108=0140000000) CAM-B3LYP/6-31
 G(d,p)
 ----------------------------------------------------------------------

 --
 TD
 --
 Symbolic Z-matrix:
 Charge =  0 Multiplicity = 1

                         Standard orientation:
 ---------------------------------------------------------------------
 Center     Atomic      Atomic             Coordinates (Angstroms)
 Number     Number       Type             X           Y           Z
 ---------------------------------------------------------------------
      1         12           0       -7.148104    0.657120    0.087822
      2          6           0       -4.889860   -1.873696    0.486162
      3          6           0       -4.863430    2.850773    1.136662
      4          6           0       -9.448761    3.210849   -0.392141
      5          6           0       -9.486822   -1.714614   -0.951638
      6          7           0       -5.076812    0.476037    0.635282
      7          6           0       -4.423704   -0.609428    0.798959
      8          6           0       -2.967136   -0.397782    1.262496
      9          6           0       -3.083945    1.090929    1.813895
     10          6           0       -4.390335    1.575752    1.171558
     11          6           0       -3.121997    1.252308    3.315151
     12          6           0       -1.918175   -0.502334    0.106076
     13          6           0       -0.462352   -0.434015    0.607916
     14          6           0        0.526916   -0.841902   -0.455001
     15          8           0        0.199696   -1.219352   -1.554090
     16          8           0        1.811234   -0.481434   -0.098989
     17          7           0       -7.112455    2.646265    0.279161
     18          6           0       -6.108771    3.357060    0.651156
     19          6           0       -6.436635    4.822236    0.812098
     20          6           0       -7.775235    4.899474    0.350934
     21          6           0       -8.167200    3.534027    0.024217
     22          6           0       -5.514811    5.864669    1.159200
     23          6           0       -8.601871    6.061490    0.090355
     24          6           0       -8.456009    7.237830    0.711991
     25          7           0       -9.085793    0.689106   -0.529023
     26          6           0       -9.813422    1.794620   -0.693782
     27          6           0      -11.106408    1.476391   -1.201892
     28          6           0      -11.233044    0.113513   -1.422634
     29          6           0       -9.931023   -0.418149   -0.918163
     30          6           0      -12.241621    2.476087   -1.554543
     31          6           0      -12.365656   -0.810435   -1.859962
     32          6           0      -12.109678   -1.231662   -3.383781
     33          7           0       -7.249733   -1.411538   -0.182443
     34          6           0       -8.186035   -2.280639   -0.589609
     35          6           0       -7.782339   -3.608479   -0.460345
     36          6           0       -6.476359   -3.533264    0.022707
     37          6           0       -6.192266   -2.164136    0.116306
     38          6           0       -8.632119   -4.795148   -0.706001
     39          6           0       -5.275186   -4.328419    0.277348
     40          8           0       -5.079089   -5.585102    0.220059
     41          6           0       -4.132959   -3.219077    0.568753
     42          6           0       -3.588099   -3.514998    1.952686
     43          8           0       -3.721525   -3.071866    3.040349
     44          8           0       -2.717052   -4.630000    1.850178
     45          6           0       -2.026710   -5.037957    3.113119
     46          6           0        2.764252   -0.917982   -1.037987
     47          6           0        4.126042   -0.700238   -0.432554
     48          6           0        5.052148    0.071085   -0.934611
     49          6           0        4.927538    0.609715   -2.366608
     50          6           0        6.484105    0.183870   -0.353225
     51          6           0        7.647868   -0.335974   -1.125686
     52          6           0        8.898941   -0.140678   -0.213565
     53          6           0       10.240682   -0.660704   -0.909555
     54          6           0       10.193460   -2.050415   -1.354873
     55          6           0       11.498208   -0.321690   -0.037718
     56          6           0       12.844864   -0.550831   -0.747597
     57          6           0       13.946747   -0.012158    0.229248
     58          6           0       15.307125   -0.065805   -0.446158
     59          6           0       15.670121   -1.529706   -0.759579
     60          6           0       16.372856    0.517443    0.482628
     61          6           0       17.749997    0.722447   -0.157734
     62          6           0       18.730936    1.340211    0.704578
     63          6           0       20.164721    1.513028    0.137856
     64          6           0       20.179590    2.407849   -1.116533
     65          6           0       21.175999    1.946186    1.158673
     66          1           0       -4.057176    3.716911    1.464438
     67          1           0      -10.154823    3.931204   -0.642225
     68          1           0      -10.323509   -2.422525   -1.319081
     69          1           0       -2.617970   -0.935521    2.264330
     70          1           0       -2.228896    1.747792    1.499951
     71          1           0       -2.189430    0.963298    3.791788
     72          1           0       -3.380886    2.442369    3.314293
     73          1           0       -3.815804    0.691512    3.670295
     74          1           0       -2.001215   -1.497544   -0.309708
     75          1           0       -1.944651    0.337341   -0.726123
     76          1           0       -0.067930    0.572898    1.264806
     77          1           0       -0.468447   -1.154624    1.613293
     78          1           0       -5.881452    6.764597    0.594336
     79          1           0       -5.329675    6.106769    2.529091
     80          1           0       -4.578503    5.665261    0.774236
     81          1           0       -9.400049    5.791009   -0.512067
     82          1           0       -9.098666    8.067383    0.756189
     83          1           0       -7.555776    7.394502    1.433566
     84          1           0      -12.055494    3.040247   -2.400401
     85          1           0      -13.156485    1.833041   -1.782906
     86          1           0      -12.284495    3.214570   -0.698337
     87          1           0      -12.469708   -1.679157   -1.235268
     88          1           0      -13.217527   -0.200430   -2.036258
     89          1           0      -12.881645   -1.787424   -3.787620
     90          1           0      -11.989479   -0.409376   -4.099634
     91          1           0      -11.145228   -1.839146   -3.522648
     92          1           0       -9.216224   -4.616468   -1.664134
     93          1           0       -8.179029   -5.754326   -0.640226
     94          1           0       -9.382612   -4.644469    0.107319
     95          1           0       -3.398668   -3.275543   -0.265358
     96          1           0       -1.417609   -4.255544    3.567894
     97          1           0       -2.889626   -5.520909    3.767558
     98          1           0       -1.534099   -6.037762    2.822935
     99          1           0        2.625300   -2.110261   -1.347749
    100          1           0        2.762058   -0.413304   -2.024181
    101          1           0        4.402741   -0.806305    0.670140
    102          1           0        3.968639    0.399653   -3.041793
    103          1           0        5.307215    1.648604   -2.216670
    104          1           0        5.632532    0.054025   -3.039560
    105          1           0        6.689871    1.291315   -0.124512
    106          1           0        6.320731   -0.152571    0.835843
    107          1           0        7.532904   -1.539592   -1.399131
    108          1           0        7.998632    0.278529   -1.880811
    109          1           0        9.080232    0.996871   -0.036466
    110          1           0        8.736697   -0.660707    0.854412
    111          1           0       10.342029   -0.097362   -1.915280
    112          1           0        9.463055   -2.334696   -2.142546
    113          1           0       11.280807   -2.370748   -1.696782
    114          1           0       10.040338   -2.762000   -0.309478
    115          1           0       11.351544    0.856048    0.142571
    116          1           0       11.651514   -0.933893    0.819562
    117          1           0       12.795580   -1.563409   -0.828229
    118          1           0       13.078579   -0.099899   -1.750759
    119          1           0       13.778595    1.123601    0.650163
    120          1           0       14.026831   -0.795927    1.084868
    121          1           0       15.441638    0.324176   -1.321991
    122          1           0       15.621027   -2.088463    0.240979
    123          1           0       14.978686   -2.018695   -1.596576
    124          1           0       16.701747   -1.714424   -1.275945
    125          1           0       15.952536    1.493567    0.603907
    126          1           0       16.352237    0.037214    1.499665
    127          1           0       18.175554   -0.212985   -0.582448
    128          1           0       17.679164    1.224669   -1.086462
    129          1           0       18.408479    2.319500    0.933146
    130          1           0       18.793268    0.753217    1.678749
    131          1           0       20.330950    0.418958   -0.224098
    132          1           0       19.632770    3.269571   -1.010875
    133          1           0       21.126071    2.495118   -1.340112
    134          1           0       19.719625    2.051313   -1.991571
    135          1           0       21.236943    1.452414    2.039991
    136          1           0       22.062884    2.251931    0.650373
    137          1           0       20.978596    2.937349    1.675030
 ---------------------------------------------------------------------

 SCF Done:  E(RCAM-B3LYP) =  -2933.50338978     A.U. after   15 cycles

 Excitation energies and oscillator strengths:

 Excited State   1:      Singlet-A      2.0103 eV  616.74 nm  f=0.3395  <S**2>=0.000
     240 -> 243        0.18778
     241 -> 242        0.67940
 This state for optimization and/or second-order correction.
 Total Energy, E(TD-HF/TD-DFT) =  -2933.42951258
 Copying the excited state density for this state as the 1-particle RhoCI density.

 The electronic state is 1-A.
 Alpha  occ. eigenvalues --  -46.80709 -19.22395 -19.18634 -19.17560 -19.16468
 Alpha  occ. eigenvalues --  -19.15435 -14.37572 -14.36612 -14.35678 -14.34515
 Alpha  occ. eigenvalues --  -10.34996 -10.33678 -10.30467 -10.28077 -10.26863
 Alpha  occ. eigenvalues --  -10.26601 -10.26442 -10.26091 -10.25762 -10.25600
 Alpha  occ. eigenvalues --  -10.25461 -10.24922 -10.24669 -10.24227 -10.24012
 Alpha  occ. eigenvalues --  -10.23953 -10.23933 -10.23758 -10.23665 -10.23535
 Alpha  occ. eigenvalues --  -10.23375 -10.23328 -10.23282 -10.23192 -10.23187
 Alpha  occ. eigenvalues --  -10.23122 -10.23100 -10.22945 -10.22913 -10.22848
 Alpha  occ. eigenvalues --  -10.22834 -10.22683 -10.22656 -10.22450 -10.22398
 Alpha  occ. eigenvalues --  -10.22283 -10.22238 -10.22216 -10.22172 -10.21793
 Alpha  occ. eigenvalues --  -10.21666 -10.21662 -10.21552 -10.21492 -10.21234
 Alpha  occ. eigenvalues --  -10.20869 -10.20638 -10.20429 -10.20231 -10.20106
 Alpha  occ. eigenvalues --  -10.19722 -10.19479 -10.19326 -10.19204 -10.17672
 Alpha  occ. eigenvalues --   -3.09281  -1.84223  -1.83747  -1.83693  -1.13309
 Alpha  occ. eigenvalues --   -1.11155  -1.05449  -1.02187  -1.01252  -1.00882
 Alpha  occ. eigenvalues --   -1.00283  -0.99590  -0.97237  -0.87167  -0.86136
 Alpha  occ. eigenvalues --   -0.85687  -0.85664  -0.84602  -0.84419  -0.83877
 Alpha  occ. eigenvalues --   -0.83490  -0.83159  -0.82678  -0.82218  -0.81073
 Alpha  occ. eigenvalues --   -0.80592  -0.79576  -0.78801  -0.78446  -0.78183
 Alpha  occ. eigenvalues --   -0.76638  -0.75994  -0.75304  -0.74932  -0.73577
 Alpha  occ. eigenvalues --   -0.72903  -0.72772  -0.72215  -0.70756  -0.70340
 Alpha  occ. eigenvalues --   -0.70137  -0.70039  -0.68911  -0.68435  -0.67902
 Alpha  occ. eigenvalues --   -0.67340  -0.66055  -0.65373  -0.64795  -0.64118
 Alpha  occ. eigenvalues --   -0.63563  -0.62139  -0.61077  -0.60643  -0.59884
 Alpha  occ. eigenvalues --   -0.59741  -0.59630  -0.58559  -0.58532  -0.57065
 Alpha  occ. eigenvalues --   -0.57054  -0.56650  -0.56011  -0.55468  -0.54687
 Alpha  occ. eigenvalues --   -0.54526  -0.54011  -0.53345  -0.52698  -0.52587
 Alpha  occ. eigenvalues --   -0.51929  -0.51389  -0.51061  -0.50907  -0.50384
 Alpha  occ. eigenvalues --   -0.50222  -0.50132  -0.49901  -0.49611  -0.49471
 Alpha  occ. eigenvalues --   -0.49316  -0.48755  -0.48563  -0.48392  -0.48079
 Alpha  occ. eigenvalues --   -0.47873  -0.47739  -0.47477  -0.46920  -0.46662
 Alpha  occ. eigenvalues --   -0.46601  -0.46530  -0.46276  -0.46067  -0.45713
 Alpha  occ. eigenvalues --   -0.45650  -0.45476  -0.45334  -0.45197  -0.45071
 Alpha  occ. eigenvalues --   -0.44640  -0.44358  -0.44330  -0.44008  -0.43890
 Alpha  occ. eigenvalues --   -0.43532  -0.43294  -0.42972  -0.42889  -0.42392
 Alpha  occ. eigenvalues --   -0.42150  -0.42047  -0.41845  -0.41787  -0.41626
 Alpha  occ. eigenvalues --   -0.41258  -0.41054  -0.41007  -0.40738  -0.40569
 Alpha  occ. eigenvalues --   -0.40367  -0.40259  -0.40081  -0.39822  -0.39752
 Alpha  occ. eigenvalues --   -0.39379  -0.39151  -0.38981  -0.38894  -0.38847
 Alpha  occ. eigenvalues --   -0.38727  -0.38281  -0.38123  -0.37868  -0.37730
 Alpha  occ. eigenvalues --   -0.37599  -0.37479  -0.37201  -0.37057  -0.36645
 Alpha  occ. eigenvalues --   -0.36354  -0.36142  -0.36139  -0.36053  -0.35943
 Alpha  occ. eigenvalues --   -0.35923  -0.35421  -0.35340  -0.35233  -0.34962
 Alpha  occ. eigenvalues --   -0.34588  -0.34324  -0.34175  -0.33829  -0.33805
 Alpha  occ. eigenvalues --   -0.33437  -0.33353  -0.32874  -0.32789  -0.32569
 Alpha  occ. eigenvalues --   -0.32483  -0.31553  -0.31228  -0.30724  -0.30431
 Alpha  occ. eigenvalues --   -0.30245  -0.30003  -0.29461  -0.28796  -0.27193
 Alpha  occ. eigenvalues --   -0.26733  -0.26226  -0.25962  -0.25441  -0.22603
 Alpha  occ. eigenvalues --   -0.19650
 Alpha virt. eigenvalues --   -0.07296  -0.03880  -0.00496   0.01320   0.02272
 Alpha virt. eigenvalues --    0.04040   0.04653   0.04955   0.05170   0.05365
 Alpha virt. eigenvalues --    0.06629   0.08082   0.08890   0.09277   0.09667

 Mulliken charges:
               1
     1  Mg   0.814094
     2  C    0.043019
     3  C   -0.223039
     4  C   -0.159510
     5  C   -0.199428
     6  N   -0.638042
     7  C    0.345925
     8  C   -0.170186
     9  C   -0.168811
    10  C    0.347280
    11  C   -0.276590
    12  C   -0.148296
    13  C   -0.276733
    14  C    0.638456
    15  O   -0.451638
    16  O   -0.457256
    17  N   -0.700952
    18  C    0.336446
    19  C    0.043919
    20  C    0.012560
    21  C    0.294248
    22  C   -0.372992
    23  C   -0.029688
    24  C   -0.262271
    25  N   -0.705835
    26  C    0.348838
    27  C   -0.036738
    28  C    0.075151
    29  C    0.258190
    30  C   -0.372846
    31  C   -0.242855
    32  C   -0.332287
    33  N   -0.709998
    34  C    0.281624
    35  C    0.014833
    36  C    0.037333
    37  C    0.309803
    38  C   -0.374307
    39  C    0.340483
    40  O   -0.485443
    41  C   -0.320923
    42  C    0.619391
    43  O   -0.450546
    44  O   -0.485175
    45  C   -0.077583
    46  C    0.020902
    47  C   -0.109302
    48  C    0.109916
    49  C   -0.364791
    50  C   -0.210422
    51  C   -0.145611
    52  C   -0.173558
    53  C   -0.045674
    54  C   -0.288446
    55  C   -0.162221
    56  C   -0.182677
    57  C   -0.156790
    58  C   -0.048466
    59  C   -0.304841
    60  C   -0.163336
    61  C   -0.181449
    62  C   -0.156880
    63  C   -0.050889
    64  C   -0.317094
    65  C   -0.314399
    66  H    0.073464
    67  H    0.085772
    68  H    0.075787
    69  H    0.113872
    70  H    0.095955
    71  H    0.107681
    72  H    0.085376
    73  H    0.134963
    74  H    0.132550
    75  H    0.111626
    76  H    0.111938
    77  H    0.107974
    78  H    0.120660
    79  H    0.062963
    80  H    0.130889
    81  H    0.080629
    82  H    0.114138
    83  H    0.102314
    84  H    0.134535
    85  H    0.104366
    86  H    0.111266
    87  H    0.125068
    88  H    0.114095
    89  H    0.113771
    90  H    0.113522
    91  H    0.101725
    92  H    0.114799
    93  H    0.149353
    94  H    0.130183
    95  H    0.172655
    96  H    0.128995
    97  H    0.115503
    98  H    0.121963
    99  H    0.094313
   100  H    0.111412
   101  H    0.069651
   102  H    0.103414
   103  H    0.111702
   104  H    0.119097
   105  H    0.090428
   106  H    0.071089
   107  H    0.088560
   108  H    0.117772
   109  H    0.081787
   110  H    0.076784
   111  H    0.070414
   112  H    0.109074
   113  H    0.087878
   114  H    0.055854
   115  H    0.068742
   116  H    0.101090
   117  H    0.116399
   118  H    0.085780
   119  H    0.072719
   120  H    0.080649
   121  H    0.088316
   122  H    0.088283
   123  H    0.078190
   124  H    0.089663
   125  H    0.089633
   126  H    0.080337
   127  H    0.080265
   128  H    0.090518
   129  H    0.087493
   130  H    0.072027
   131  H    0.068791
   132  H    0.108091
   133  H    0.106790
   134  H    0.100807
   135  H    0.113964
   136  H    0.102922
   137  H    0.083352
 Sum of Mulliken charges =  -0.00000

 Dipole moment (field-independent basis, Debye):
    X=             -0.0332    Y=              6.6895    Z=             -0.8430  Tot=              6.7425
 Quadrupole moment (field-independent basis, Debye-Ang):
   XX=           -321.3155   YY=           -402.2924   ZZ=           -394.5367
   XY=            -22.3891   XZ=             10.1519   YZ=             -1.0527

 Normal termination of Gaussian 16 at Sun Sep 22 01:35:23 2019.
