 Gaussian 09, Revision D.01,
 Gaussian 09:  ES64L-G09RevD.01 24-Apr-2013

 -------------------------------------
 # td=(NStates=1) CAM-B3LYP/6-31G(d,p)
 -------------------------------------

 --
 TD
 --
 Symbolic Z-matrix:
 Charge =  0 Multiplicity = 1

                         Standard orientation:
 ---------------------------------------------------------------------
 Center     Atomic      Atomic             Coordinates (Angstroms)
 Number     Number       Type             X           Y           Z
 ---------------------------------------------------------------------
      1         12           0       -7.161845    0.635418    0.097396
      2          6           0       -4.826084   -1.936979    0.439773
      3          6           0       -4.791544    2.872333    0.941460
      4          6           0       -9.385247    3.123262   -0.291625
      5          6           0       -9.589184   -1.815192   -0.877182
      6          7           0       -5.179677    0.350495    0.686924
      7          6           0       -4.324445   -0.736038    0.753027
      8          6           0       -2.910754   -0.310400    1.232055
      9          6           0       -3.125223    1.163869    1.768341
     10          6           0       -4.431686    1.467089    1.152725
     11          6           0       -3.014574    1.072370    3.326063
     12          6           0       -1.936334   -0.485883    0.046843
     13          6           0       -0.513303   -0.325085    0.444932
     14          6           0        0.527416   -0.651310   -0.641925
     15          8           0        0.264166   -1.143136   -1.688568
     16          8           0        1.764329   -0.324258   -0.171505
     17          7           0       -7.024908    2.682199    0.247589
     18          6           0       -6.005388    3.368417    0.625109
     19          6           0       -6.456597    4.789622    0.634578
     20          6           0       -7.740871    4.825759    0.198515
     21          6           0       -8.159644    3.461468    0.031717
     22          6           0       -5.609158    5.934406    1.240754
     23          6           0       -8.572110    6.011809    0.038878
     24          6           0       -8.506030    7.194903    0.715786
     25          7           0       -9.171025    0.615065   -0.435898
     26          6           0       -9.924712    1.750061   -0.670501
     27          6           0      -11.261535    1.397171   -1.079453
     28          6           0      -11.365943    0.069070   -1.100668
     29          6           0      -10.014567   -0.480572   -0.877948
     30          6           0      -12.251842    2.479382   -1.207347
     31          6           0      -12.479680   -0.799802   -1.592665
     32          6           0      -12.480641   -1.035041   -3.194846
     33          7           0       -7.187856   -1.418657   -0.107933
     34          6           0       -8.211279   -2.256870   -0.396398
     35          6           0       -7.729452   -3.671052   -0.575071
     36          6           0       -6.453505   -3.559120   -0.122456
     37          6           0       -6.174207   -2.157489    0.125170
     38          6           0       -8.703204   -4.741741   -0.819810
     39          6           0       -5.236500   -4.400925    0.145834
     40          8           0       -4.989927   -5.578630    0.237825
     41          6           0       -4.159965   -3.259220    0.458338
     42          6           0       -3.460237   -3.668422    1.789861
     43          8           0       -3.573160   -3.140241    2.844119
     44          8           0       -2.591711   -4.846013    1.587026
     45          6           0       -2.068773   -5.322207    2.795493
     46          6           0        2.726311   -0.655590   -1.198680
     47          6           0        4.049032   -0.383097   -0.598320
     48          6           0        5.113202    0.306898   -1.045098
     49          6           0        5.073972    1.033097   -2.362239
     50          6           0        6.358777    0.513504   -0.250950
     51          6           0        7.732480   -0.050894   -0.980788
     52          6           0        8.969713   -0.099909   -0.020271
     53          6           0       10.142541   -0.599883   -0.720605
     54          6           0       10.163318   -2.166281   -1.106696
     55          6           0       11.465488   -0.323099    0.107405
     56          6           0       12.765137   -0.496368   -0.588005
     57          6           0       13.991935   -0.110253    0.377679
     58          6           0       15.316971   -0.107991   -0.365106
     59          6           0       15.671268   -1.543692   -0.893598
     60          6           0       16.511511    0.433592    0.551785
     61          6           0       17.868011    0.518619   -0.175751
     62          6           0       18.791092    1.384719    0.642387
     63          6           0       20.338044    1.347288    0.100598
     64          6           0       20.431390    2.080225   -1.201980
     65          6           0       21.154937    1.998566    1.208801
     66          1           0       -4.098202    3.634217    1.359537
     67          1           0      -10.131345    3.883889   -0.279192
     68          1           0      -10.370423   -2.595600   -1.187984
     69          1           0       -2.458353   -0.930906    1.939241
     70          1           0       -2.254603    1.778137    1.332517
     71          1           0       -1.959914    0.740167    3.714664
     72          1           0       -2.902751    2.164560    3.722502
     73          1           0       -3.972629    0.456198    3.734534
     74          1           0       -2.076697   -1.512577   -0.339732
     75          1           0       -2.333367    0.196064   -0.736769
     76          1           0       -0.275215    0.623821    0.944415
     77          1           0       -0.426088   -1.124779    1.254739
     78          1           0       -5.930579    6.702582    0.574031
     79          1           0       -5.815673    6.188370    2.292655
     80          1           0       -4.576690    5.837467    1.234903
     81          1           0       -9.447067    6.131608   -0.808910
     82          1           0       -9.157462    8.090164    0.551598
     83          1           0       -7.810476    7.244657    1.760206
     84          1           0      -11.787196    3.199557   -1.967230
     85          1           0      -13.291628    2.217826   -1.339018
     86          1           0      -12.323224    3.113641   -0.343203
     87          1           0      -12.496239   -1.804308   -0.988149
     88          1           0      -13.400551   -0.341382   -1.508594
     89          1           0      -13.181883   -1.591838   -3.615834
     90          1           0      -12.329146   -0.007660   -3.645795
     91          1           0      -11.644448   -1.519312   -3.355320
     92          1           0       -9.268195   -4.712968   -1.779833
     93          1           0       -8.151274   -5.638864   -1.071940
     94          1           0       -9.321391   -5.324233    0.013195
     95          1           0       -3.599083   -3.526597   -0.292130
     96          1           0       -1.524953   -4.413554    3.152019
     97          1           0       -2.798987   -5.612541    3.557145
     98          1           0       -1.487056   -6.110037    2.685137
     99          1           0        2.331147   -1.697898   -1.341126
    100          1           0        2.450543    0.153029   -2.047864
    101          1           0        4.033225   -0.928968    0.391646
    102          1           0        4.050287    1.230107   -2.748849
    103          1           0        5.404043    2.039437   -2.149678
    104          1           0        5.782492    0.710576   -3.248129
    105          1           0        6.305277    1.591596    0.043466
    106          1           0        6.350805    0.015141    0.617359
    107          1           0        7.463471   -0.974501   -1.483703
    108          1           0        7.997778    0.503531   -1.924588
    109          1           0        9.029096    0.876398    0.362604
    110          1           0        8.698620   -0.565004    1.020218
    111          1           0       10.067873    0.023288   -1.743836
    112          1           0        9.678544   -2.385784   -1.946275
    113          1           0       11.160855   -2.472296   -1.550377
    114          1           0        9.748585   -2.726534   -0.302208
    115          1           0       11.433454    0.662367    0.578815
    116          1           0       11.391236   -1.109060    0.971223
    117          1           0       12.724073   -1.641964   -0.811332
    118          1           0       12.927722   -0.009823   -1.455312
    119          1           0       13.785251    0.919493    0.704947
    120          1           0       14.039508   -0.869688    1.074684
    121          1           0       15.294750    0.485053   -1.375328
    122          1           0       15.685152   -2.156723   -0.199991
    123          1           0       15.009869   -1.977001   -1.680859
    124          1           0       16.715720   -1.574997   -1.265299
    125          1           0       16.215906    1.330707    1.087754
    126          1           0       16.555993   -0.166080    1.221957
    127          1           0       18.438207   -0.479460   -0.287959
    128          1           0       17.886419    1.136819   -1.075033
    129          1           0       18.263421    2.436842    0.577207
    130          1           0       18.742295    1.013041    1.677935
    131          1           0       20.592014    0.145155   -0.043493
    132          1           0       20.056671    3.220864   -1.122018
    133          1           0       21.497166    1.992091   -1.521481
    134          1           0       19.808888    1.708381   -1.997230
    135          1           0       20.984294    1.544448    2.216801
    136          1           0       22.317460    1.954807    0.773606
    137          1           0       20.851540    2.953776    1.436115
 ---------------------------------------------------------------------

 SCF Done:  E(RCAM-B3LYP) =  -2932.64215220     A.U. after   17 cycles

 Excitation energies and oscillator strengths:

 Excited State   1:      Singlet-A      2.1625 eV  573.34 nm  f=0.2354  <S**2>=0.000
     240 -> 242       -0.20101
     240 -> 243        0.19531
     241 -> 242        0.61324
     241 -> 243        0.19657
 This state for optimization and/or second-order correction.
 Total Energy, E(TD-HF/TD-KS) =  -2932.56268190
 Copying the excited state density for this state as the 1-particle RhoCI density.

 The electronic state is 1-A.
 Alpha  occ. eigenvalues --  -46.85023 -19.25594 -19.23452 -19.22002 -19.21554
 Alpha  occ. eigenvalues --  -19.20433 -14.42226 -14.40399 -14.39688 -14.39392
 Alpha  occ. eigenvalues --  -10.39179 -10.38930 -10.35049 -10.32933 -10.32036
 Alpha  occ. eigenvalues --  -10.30531 -10.29928 -10.29848 -10.29665 -10.29548
 Alpha  occ. eigenvalues --  -10.29506 -10.29019 -10.28924 -10.28918 -10.28829
 Alpha  occ. eigenvalues --  -10.28810 -10.28064 -10.28016 -10.27923 -10.27682
 Alpha  occ. eigenvalues --  -10.27649 -10.27633 -10.27444 -10.27371 -10.27296
 Alpha  occ. eigenvalues --  -10.27273 -10.26869 -10.26782 -10.26710 -10.26634
 Alpha  occ. eigenvalues --  -10.26593 -10.26237 -10.26154 -10.26144 -10.26127
 Alpha  occ. eigenvalues --  -10.26078 -10.26056 -10.25985 -10.25965 -10.25823
 Alpha  occ. eigenvalues --  -10.25807 -10.25733 -10.25578 -10.25501 -10.25339
 Alpha  occ. eigenvalues --  -10.25261 -10.25234 -10.24857 -10.24815 -10.24449
 Alpha  occ. eigenvalues --  -10.24258 -10.24018 -10.23710 -10.23137 -10.22274
 Alpha  occ. eigenvalues --   -3.13977  -1.88695  -1.88210  -1.88152  -1.18806
 Alpha  occ. eigenvalues --   -1.16232  -1.11265  -1.10657  -1.08445  -1.05863
 Alpha  occ. eigenvalues --   -1.05646  -1.02529  -1.01439  -0.92436  -0.90868
 Alpha  occ. eigenvalues --   -0.90609  -0.90206  -0.89996  -0.89277  -0.88924
 Alpha  occ. eigenvalues --   -0.88297  -0.87758  -0.87475  -0.86713  -0.85639
 Alpha  occ. eigenvalues --   -0.84881  -0.83935  -0.82968  -0.82807  -0.82533
 Alpha  occ. eigenvalues --   -0.81567  -0.80537  -0.80099  -0.79540  -0.78389
 Alpha  occ. eigenvalues --   -0.77830  -0.77603  -0.76837  -0.75916  -0.75781
 Alpha  occ. eigenvalues --   -0.75737  -0.74928  -0.74692  -0.73127  -0.72249
 Alpha  occ. eigenvalues --   -0.72065  -0.70782  -0.69972  -0.68334  -0.67456
 Alpha  occ. eigenvalues --   -0.67187  -0.66189  -0.65121  -0.64757  -0.64670
 Alpha  occ. eigenvalues --   -0.63789  -0.63417  -0.62752  -0.62148  -0.61523
 Alpha  occ. eigenvalues --   -0.61430  -0.60919  -0.60737  -0.59808  -0.59083
 Alpha  occ. eigenvalues --   -0.58777  -0.58197  -0.58009  -0.57479  -0.57040
 Alpha  occ. eigenvalues --   -0.56448  -0.55598  -0.55014  -0.54963  -0.54653
 Alpha  occ. eigenvalues --   -0.53844  -0.53723  -0.53524  -0.53236  -0.53166
 Alpha  occ. eigenvalues --   -0.52577  -0.52363  -0.51908  -0.51837  -0.51784
 Alpha  occ. eigenvalues --   -0.51503  -0.51239  -0.51119  -0.50942  -0.50671
 Alpha  occ. eigenvalues --   -0.50454  -0.50013  -0.49816  -0.49796  -0.49614
 Alpha  occ. eigenvalues --   -0.49351  -0.49108  -0.48618  -0.48538  -0.48432
 Alpha  occ. eigenvalues --   -0.48322  -0.47914  -0.47704  -0.47412  -0.47312
 Alpha  occ. eigenvalues --   -0.47094  -0.46782  -0.46695  -0.46388  -0.45962
 Alpha  occ. eigenvalues --   -0.45707  -0.45576  -0.45390  -0.45188  -0.45004
 Alpha  occ. eigenvalues --   -0.44690  -0.44587  -0.44507  -0.44449  -0.44289
 Alpha  occ. eigenvalues --   -0.43896  -0.43842  -0.43682  -0.43374  -0.43217
 Alpha  occ. eigenvalues --   -0.43202  -0.42969  -0.42768  -0.42547  -0.42130
 Alpha  occ. eigenvalues --   -0.41977  -0.41820  -0.41697  -0.41688  -0.41324
 Alpha  occ. eigenvalues --   -0.41135  -0.41001  -0.40801  -0.40659  -0.40187
 Alpha  occ. eigenvalues --   -0.40030  -0.39919  -0.39728  -0.39266  -0.39252
 Alpha  occ. eigenvalues --   -0.38956  -0.38948  -0.38713  -0.38252  -0.38027
 Alpha  occ. eigenvalues --   -0.37907  -0.37541  -0.37462  -0.36832  -0.36651
 Alpha  occ. eigenvalues --   -0.36539  -0.36222  -0.36031  -0.35840  -0.35545
 Alpha  occ. eigenvalues --   -0.35196  -0.34817  -0.34266  -0.33871  -0.33609
 Alpha  occ. eigenvalues --   -0.33301  -0.32392  -0.31942  -0.30841  -0.30179
 Alpha  occ. eigenvalues --   -0.29436  -0.29073  -0.28836  -0.28412  -0.23858
 Alpha  occ. eigenvalues --   -0.20928
 Alpha virt. eigenvalues --   -0.05833  -0.03318   0.01677   0.03436   0.05593
 Alpha virt. eigenvalues --    0.05881   0.05942   0.06385   0.06765   0.07036
 Alpha virt. eigenvalues --    0.07936   0.10641   0.11108   0.11482   0.12210

 Mulliken charges:
               1
     1  Mg   0.819401
     2  C    0.053884
     3  C   -0.221803
     4  C   -0.202935
     5  C   -0.170810
     6  N   -0.640574
     7  C    0.303264
     8  C   -0.133587
     9  C   -0.149123
    10  C    0.327688
    11  C   -0.294944
    12  C   -0.175278
    13  C   -0.272177
    14  C    0.617415
    15  O   -0.453480
    16  O   -0.490156
    17  N   -0.755245
    18  C    0.397191
    19  C   -0.051349
    20  C    0.053838
    21  C    0.372809
    22  C   -0.364374
    23  C   -0.101137
    24  C   -0.241147
    25  N   -0.654902
    26  C    0.278235
    27  C    0.046482
    28  C    0.025342
    29  C    0.246425
    30  C   -0.383160
    31  C   -0.252069
    32  C   -0.314091
    33  N   -0.670681
    34  C    0.187524
    35  C    0.033219
    36  C   -0.026988
    37  C    0.340832
    38  C   -0.401300
    39  C    0.351645
    40  O   -0.436644
    41  C   -0.312456
    42  C    0.613958
    43  O   -0.436148
    44  O   -0.497040
    45  C   -0.053805
    46  C    0.015618
    47  C   -0.126559
    48  C    0.116319
    49  C   -0.366304
    50  C   -0.225486
    51  C   -0.204502
    52  C   -0.163487
    53  C   -0.051741
    54  C   -0.322646
    55  C   -0.171521
    56  C   -0.174584
    57  C   -0.169197
    58  C   -0.080306
    59  C   -0.318055
    60  C   -0.158563
    61  C   -0.170365
    62  C   -0.189407
    63  C   -0.043229
    64  C   -0.295423
    65  C   -0.284367
    66  H    0.076625
    67  H    0.091859
    68  H    0.111709
    69  H    0.114913
    70  H    0.110110
    71  H    0.112930
    72  H    0.094001
    73  H    0.128616
    74  H    0.125301
    75  H    0.105542
    76  H    0.124442
    77  H    0.127793
    78  H    0.135764
    79  H    0.125772
    80  H    0.116235
    81  H    0.090771
    82  H    0.115047
    83  H    0.087252
    84  H    0.113887
    85  H    0.116192
    86  H    0.128492
    87  H    0.091489
    88  H    0.114180
    89  H    0.114749
    90  H    0.103507
    91  H    0.123009
    92  H    0.117017
    93  H    0.134603
    94  H    0.125926
    95  H    0.163828
    96  H    0.097768
    97  H    0.110209
    98  H    0.118582
    99  H    0.139572
   100  H    0.102175
   101  H    0.087657
   102  H    0.108642
   103  H    0.115278
   104  H    0.111125
   105  H    0.102040
   106  H    0.112845
   107  H    0.109459
   108  H    0.089479
   109  H    0.111083
   110  H    0.072502
   111  H    0.062422
   112  H    0.112228
   113  H    0.096818
   114  H    0.113971
   115  H    0.081311
   116  H    0.076975
   117  H    0.080599
   118  H    0.101532
   119  H    0.091190
   120  H    0.101105
   121  H    0.063975
   122  H    0.109149
   123  H    0.094689
   124  H    0.094006
   125  H    0.083858
   126  H    0.102282
   127  H    0.084189
   128  H    0.097462
   129  H    0.072782
   130  H    0.079932
   131  H    0.063299
   132  H    0.084418
   133  H    0.098504
   134  H    0.113072
   135  H    0.097984
   136  H    0.066671
   137  H    0.117653
 Sum of Mulliken charges =   0.00000

 Dipole moment (field-independent basis, Debye):
    X=              0.0300    Y=              6.2366    Z=              0.5247  Tot=              6.2587
 Quadrupole moment (field-independent basis, Debye-Ang):
   XX=           -334.3853   YY=           -393.1777   ZZ=           -395.8407
   XY=            -29.6413   XZ=             12.8120   YZ=              3.9316

 Normal termination of Gaussian 09 at Sat Jul  6 12:57:40 2019.
