 Gaussian 09, Revision D.01,
 Gaussian 09:  ES64L-G09RevD.01 24-Apr-2013

 -------------------------------------
 # td=(NStates=1) CAM-B3LYP/6-31G(d,p)
 -------------------------------------

 --
 TD
 --
 Symbolic Z-matrix:
 Charge =  0 Multiplicity = 1

                         Standard orientation:
 ---------------------------------------------------------------------
 Center     Atomic      Atomic             Coordinates (Angstroms)
 Number     Number       Type             X           Y           Z
 ---------------------------------------------------------------------
      1         12           0       -7.196297    0.574895    0.074581
      2          6           0       -4.861319   -1.976980    0.493534
      3          6           0       -4.779314    2.803825    1.218186
      4          6           0       -9.350408    3.161752   -0.432001
      5          6           0       -9.597143   -1.769708   -0.851999
      6          7           0       -5.134461    0.355162    0.860457
      7          6           0       -4.287068   -0.787720    0.836648
      8          6           0       -2.857467   -0.461629    1.245650
      9          6           0       -3.048239    1.044779    1.695131
     10          6           0       -4.332322    1.438527    1.235316
     11          6           0       -2.716350    1.202348    3.161376
     12          6           0       -1.976602   -0.544054    0.099889
     13          6           0       -0.488045   -0.592780    0.561600
     14          6           0        0.481629   -0.790357   -0.560842
     15          8           0        0.174091   -1.045817   -1.764257
     16          8           0        1.754086   -0.566635   -0.189698
     17          7           0       -7.033979    2.591268    0.379022
     18          6           0       -5.990759    3.338967    0.844363
     19          6           0       -6.280856    4.796629    0.826019
     20          6           0       -7.555058    4.903644    0.400010
     21          6           0       -8.103422    3.515599    0.092027
     22          6           0       -5.347755    5.964453    1.062674
     23          6           0       -8.387695    6.002086    0.025940
     24          6           0       -8.483893    7.225207    0.658067
     25          7           0       -9.077081    0.720933   -0.535212
     26          6           0       -9.829124    1.796464   -0.618425
     27          6           0      -11.146666    1.486958   -1.011444
     28          6           0      -11.224949    0.135330   -1.190681
     29          6           0       -9.917929   -0.368931   -0.914501
     30          6           0      -12.253483    2.457786   -1.167458
     31          6           0      -12.375574   -0.690356   -1.659211
     32          6           0      -12.488099   -0.774366   -3.236404
     33          7           0       -7.184642   -1.338540   -0.116255
     34          6           0       -8.349092   -2.181578   -0.578685
     35          6           0       -7.870348   -3.579693   -0.473049
     36          6           0       -6.528528   -3.570339   -0.232185
     37          6           0       -6.147520   -2.248115   -0.024381
     38          6           0       -8.645659   -4.795551   -0.836591
     39          6           0       -5.363745   -4.439130    0.221604
     40          8           0       -5.213569   -5.638544    0.243176
     41          6           0       -4.237792   -3.399022    0.435922
     42          6           0       -3.574945   -3.674944    1.837708
     43          8           0       -3.698092   -3.230081    2.907308
     44          8           0       -2.649703   -4.755446    1.651380
     45          6           0       -2.308738   -5.376769    2.949189
     46          6           0        2.829568   -0.688218   -1.081286
     47          6           0        4.154958   -0.408223   -0.443630
     48          6           0        5.064022    0.408666   -0.974231
     49          6           0        5.019082    1.112633   -2.305735
     50          6           0        6.433927    0.540120   -0.289217
     51          6           0        7.623520   -0.077217   -1.063651
     52          6           0        8.891609    0.037104   -0.109821
     53          6           0       10.176093   -0.522648   -0.870590
     54          6           0       10.025127   -1.928354   -1.370322
     55          6           0       11.420466   -0.232131   -0.092205
     56          6           0       12.805636   -0.454939   -0.843585
     57          6           0       13.917079   -0.051363    0.099630
     58          6           0       15.295037   -0.103229   -0.565433
     59          6           0       15.634754   -1.565069   -0.967760
     60          6           0       16.450205    0.377668    0.331974
     61          6           0       17.867959    0.427289   -0.142474
     62          6           0       18.797029    1.197752    0.777324
     63          6           0       20.226745    1.323645    0.272903
     64          6           0       20.328556    2.040291   -1.010516
     65          6           0       21.156882    1.955460    1.534569
     66          1           0       -4.113179    3.670328    1.709709
     67          1           0       -9.972664    4.006311   -0.492579
     68          1           0      -10.471555   -2.410863   -0.972712
     69          1           0       -2.696793   -1.168658    2.090662
     70          1           0       -2.394233    1.754545    1.069798
     71          1           0       -1.722014    0.935074    3.616158
     72          1           0       -2.743527    2.130486    3.715225
     73          1           0       -3.589578    0.768924    3.876395
     74          1           0       -2.205826   -1.619173   -0.272426
     75          1           0       -2.071007    0.274968   -0.795143
     76          1           0       -0.232576    0.343951    1.041052
     77          1           0       -0.278849   -1.346218    1.335033
     78          1           0       -5.650089    6.692853    0.547352
     79          1           0       -5.450763    6.209272    2.165260
     80          1           0       -4.273177    5.790531    0.846022
     81          1           0       -9.272208    5.860041   -0.688746
     82          1           0       -9.279059    7.931708    0.432050
     83          1           0       -7.897854    7.609536    1.659988
     84          1           0      -11.694771    3.417037   -1.761700
     85          1           0      -13.256664    2.089297   -1.853507
     86          1           0      -12.691156    2.856263   -0.313108
     87          1           0      -12.197341   -1.718084   -1.371195
     88          1           0      -13.273127   -0.058605   -1.387289
     89          1           0      -13.480935   -1.276422   -3.650912
     90          1           0      -12.498781    0.043916   -3.809117
     91          1           0      -11.745223   -1.383967   -3.668447
     92          1           0       -9.190582   -4.721563   -1.869088
     93          1           0       -8.261900   -5.753082   -0.979085
     94          1           0       -9.645056   -4.869611   -0.367552
     95          1           0       -3.568451   -3.489115   -0.324129
     96          1           0       -1.504786   -4.526572    3.449897
     97          1           0       -3.086626   -5.633951    3.553233
     98          1           0       -1.569685   -6.274600    2.566993
     99          1           0        2.797186   -1.659645   -1.436973
    100          1           0        2.732995    0.150383   -1.717425
    101          1           0        4.233691   -0.760570    0.538961
    102          1           0        4.012787    1.260433   -2.681718
    103          1           0        5.461175    2.137779   -2.346053
    104          1           0        5.595770    0.625836   -3.060005
    105          1           0        6.539762    1.585044   -0.110197
    106          1           0        6.563032   -0.139304    0.506297
    107          1           0        7.482713   -1.071429   -1.351901
    108          1           0        7.775499    0.243252   -2.182164
    109          1           0        9.101245    1.025604    0.437664
    110          1           0        8.617171   -0.649610    0.654871
    111          1           0       10.223879    0.068334   -1.626116
    112          1           0        8.932411   -1.989155   -1.862996
    113          1           0       10.721633   -2.130036   -1.826988
    114          1           0       10.070535   -2.518922   -0.471840
    115          1           0       11.335334    0.744301    0.199230
    116          1           0       11.361949   -0.907665    0.774399
    117          1           0       12.776624   -1.580507   -1.100503
    118          1           0       12.740923    0.309992   -1.680984
    119          1           0       13.571786    0.971043    0.213469
    120          1           0       13.889999   -0.631901    1.000098
    121          1           0       15.367921    0.428889   -1.528026
    122          1           0       15.317386   -2.322896   -0.140120
    123          1           0       14.761602   -1.849918   -1.738803
    124          1           0       16.606181   -1.878821   -1.483098
    125          1           0       16.202469    1.210941    0.977502
    126          1           0       16.450849   -0.245864    1.327843
    127          1           0       18.404432   -0.502563   -0.491899
    128          1           0       17.888541    0.840175   -1.126548
    129          1           0       18.463706    2.303881    1.087331
    130          1           0       18.807107    0.687360    1.649173
    131          1           0       20.545622    0.251945    0.107548
    132          1           0       20.004674    3.200750   -1.024858
    133          1           0       21.464639    2.209379   -1.151650
    134          1           0       19.968166    1.459128   -1.920243
    135          1           0       21.299451    1.142541    2.376232
    136          1           0       22.199869    1.981165    1.197824
    137          1           0       20.757665    2.708372    2.126610
 ---------------------------------------------------------------------

 SCF Done:  E(RCAM-B3LYP) =  -2932.60112534     A.U. after   18 cycles

 Excitation energies and oscillator strengths:

 Excited State   1:      Singlet-A      2.1447 eV  578.09 nm  f=0.1457  <S**2>=0.000
     240 -> 243       -0.30672
     241 -> 242        0.62688
 This state for optimization and/or second-order correction.
 Total Energy, E(TD-HF/TD-KS) =  -2932.52230822
 Copying the excited state density for this state as the 1-particle RhoCI density.

 The electronic state is 1-A.
 Alpha  occ. eigenvalues --  -46.82789 -19.25801 -19.24000 -19.22692 -19.21315
 Alpha  occ. eigenvalues --  -19.19887 -14.41653 -14.39624 -14.39462 -14.38928
 Alpha  occ. eigenvalues --  -10.39451 -10.39345 -10.36114 -10.32289 -10.31839
 Alpha  occ. eigenvalues --  -10.30830 -10.30537 -10.30295 -10.30185 -10.29294
 Alpha  occ. eigenvalues --  -10.29276 -10.29082 -10.28628 -10.28621 -10.28570
 Alpha  occ. eigenvalues --  -10.28537 -10.28466 -10.28386 -10.28323 -10.28028
 Alpha  occ. eigenvalues --  -10.28025 -10.27809 -10.27777 -10.27777 -10.27659
 Alpha  occ. eigenvalues --  -10.27526 -10.27190 -10.27044 -10.26872 -10.26770
 Alpha  occ. eigenvalues --  -10.26561 -10.26494 -10.26418 -10.26377 -10.26290
 Alpha  occ. eigenvalues --  -10.26232 -10.26088 -10.26026 -10.25999 -10.25880
 Alpha  occ. eigenvalues --  -10.25781 -10.25449 -10.25431 -10.25322 -10.25202
 Alpha  occ. eigenvalues --  -10.25081 -10.25060 -10.24897 -10.24605 -10.24561
 Alpha  occ. eigenvalues --  -10.24366 -10.24223 -10.23881 -10.23603 -10.22799
 Alpha  occ. eigenvalues --   -3.12121  -1.86798  -1.86355  -1.86340  -1.18262
 Alpha  occ. eigenvalues --   -1.17756  -1.12043  -1.07959  -1.06477  -1.03380
 Alpha  occ. eigenvalues --   -1.02887  -1.01658  -1.00955  -0.92334  -0.91790
 Alpha  occ. eigenvalues --   -0.91104  -0.90696  -0.89943  -0.89598  -0.88838
 Alpha  occ. eigenvalues --   -0.88365  -0.88066  -0.87390  -0.87053  -0.86515
 Alpha  occ. eigenvalues --   -0.85497  -0.84396  -0.83590  -0.83201  -0.82553
 Alpha  occ. eigenvalues --   -0.81619  -0.80636  -0.80409  -0.79545  -0.79003
 Alpha  occ. eigenvalues --   -0.78201  -0.77210  -0.77086  -0.76010  -0.75643
 Alpha  occ. eigenvalues --   -0.75362  -0.74152  -0.74091  -0.73876  -0.72757
 Alpha  occ. eigenvalues --   -0.72028  -0.70978  -0.70396  -0.69522  -0.68304
 Alpha  occ. eigenvalues --   -0.67540  -0.66553  -0.65721  -0.65309  -0.64991
 Alpha  occ. eigenvalues --   -0.64112  -0.63261  -0.63152  -0.62920  -0.61657
 Alpha  occ. eigenvalues --   -0.61445  -0.61016  -0.60112  -0.59736  -0.59118
 Alpha  occ. eigenvalues --   -0.58645  -0.58418  -0.58153  -0.57843  -0.57267
 Alpha  occ. eigenvalues --   -0.56790  -0.56174  -0.55835  -0.55114  -0.54890
 Alpha  occ. eigenvalues --   -0.54716  -0.54177  -0.53695  -0.53588  -0.53412
 Alpha  occ. eigenvalues --   -0.53250  -0.52667  -0.52521  -0.52367  -0.51692
 Alpha  occ. eigenvalues --   -0.51554  -0.51396  -0.51016  -0.50776  -0.50620
 Alpha  occ. eigenvalues --   -0.50526  -0.50298  -0.49742  -0.49698  -0.49348
 Alpha  occ. eigenvalues --   -0.49312  -0.48825  -0.48467  -0.48388  -0.48217
 Alpha  occ. eigenvalues --   -0.47853  -0.47821  -0.47591  -0.47218  -0.46961
 Alpha  occ. eigenvalues --   -0.46721  -0.46640  -0.46507  -0.46159  -0.46062
 Alpha  occ. eigenvalues --   -0.46032  -0.45871  -0.45559  -0.45198  -0.44994
 Alpha  occ. eigenvalues --   -0.44891  -0.44833  -0.44592  -0.44314  -0.44053
 Alpha  occ. eigenvalues --   -0.43937  -0.43708  -0.43590  -0.43264  -0.43197
 Alpha  occ. eigenvalues --   -0.42940  -0.42835  -0.42463  -0.42388  -0.42085
 Alpha  occ. eigenvalues --   -0.41933  -0.41908  -0.41764  -0.41423  -0.41130
 Alpha  occ. eigenvalues --   -0.41087  -0.41006  -0.40893  -0.40663  -0.40550
 Alpha  occ. eigenvalues --   -0.40337  -0.40060  -0.39872  -0.39432  -0.39005
 Alpha  occ. eigenvalues --   -0.38655  -0.38488  -0.38408  -0.37893  -0.37802
 Alpha  occ. eigenvalues --   -0.37664  -0.37263  -0.36946  -0.36910  -0.36811
 Alpha  occ. eigenvalues --   -0.36414  -0.36285  -0.36033  -0.35744  -0.35243
 Alpha  occ. eigenvalues --   -0.34717  -0.34342  -0.34006  -0.33834  -0.33772
 Alpha  occ. eigenvalues --   -0.33633  -0.32692  -0.32407  -0.31002  -0.30336
 Alpha  occ. eigenvalues --   -0.30186  -0.29484  -0.27850  -0.27515  -0.23411
 Alpha  occ. eigenvalues --   -0.21248
 Alpha virt. eigenvalues --   -0.05539  -0.03979   0.01386   0.03375   0.05763
 Alpha virt. eigenvalues --    0.05927   0.06587   0.06675   0.06723   0.07356
 Alpha virt. eigenvalues --    0.07952   0.10333   0.11103   0.11202   0.12038

 Mulliken charges:
               1
     1  Mg   0.831285
     2  C    0.037295
     3  C   -0.228006
     4  C   -0.162497
     5  C   -0.149571
     6  N   -0.605035
     7  C    0.262220
     8  C   -0.145749
     9  C   -0.149322
    10  C    0.367265
    11  C   -0.325445
    12  C   -0.154738
    13  C   -0.268828
    14  C    0.599924
    15  O   -0.507748
    16  O   -0.480885
    17  N   -0.703604
    18  C    0.340231
    19  C    0.007879
    20  C    0.059213
    21  C    0.260261
    22  C   -0.343565
    23  C   -0.127618
    24  C   -0.240086
    25  N   -0.714765
    26  C    0.333866
    27  C    0.025779
    28  C    0.042914
    29  C    0.220849
    30  C   -0.367494
    31  C   -0.228501
    32  C   -0.316911
    33  N   -0.715154
    34  C    0.251035
    35  C    0.037248
    36  C   -0.013322
    37  C    0.269353
    38  C   -0.394127
    39  C    0.397494
    40  O   -0.438804
    41  C   -0.299430
    42  C    0.597222
    43  O   -0.422319
    44  O   -0.494917
    45  C   -0.057744
    46  C    0.059181
    47  C   -0.155925
    48  C    0.103618
    49  C   -0.376837
    50  C   -0.202111
    51  C   -0.207379
    52  C   -0.191626
    53  C   -0.066515
    54  C   -0.259314
    55  C   -0.190310
    56  C   -0.197166
    57  C   -0.156846
    58  C   -0.054955
    59  C   -0.308355
    60  C   -0.165296
    61  C   -0.183539
    62  C   -0.149694
    63  C   -0.054732
    64  C   -0.291846
    65  C   -0.335479
    66  H    0.074540
    67  H    0.080406
    68  H    0.105553
    69  H    0.150490
    70  H    0.113592
    71  H    0.114210
    72  H    0.114703
    73  H    0.103420
    74  H    0.109750
    75  H    0.122488
    76  H    0.138808
    77  H    0.143381
    78  H    0.134641
    79  H    0.118874
    80  H    0.116343
    81  H    0.107810
    82  H    0.110419
    83  H    0.093748
    84  H    0.080813
    85  H    0.080535
    86  H    0.137600
    87  H    0.103135
    88  H    0.108654
    89  H    0.074176
    90  H    0.124734
    91  H    0.111382
    92  H    0.108828
    93  H    0.154099
    94  H    0.119464
    95  H    0.178105
    96  H    0.083674
    97  H    0.148399
    98  H    0.110437
    99  H    0.129138
   100  H    0.112083
   101  H    0.093999
   102  H    0.117029
   103  H    0.111789
   104  H    0.135159
   105  H    0.107939
   106  H    0.105739
   107  H    0.115588
   108  H    0.067423
   109  H    0.086438
   110  H    0.100554
   111  H    0.094857
   112  H    0.077391
   113  H    0.096372
   114  H    0.092244
   115  H    0.090732
   116  H    0.078907
   117  H    0.092370
   118  H    0.092010
   119  H    0.098065
   120  H    0.103039
   121  H    0.088205
   122  H    0.087460
   123  H    0.075278
   124  H    0.105260
   125  H    0.092672
   126  H    0.058577
   127  H    0.083171
   128  H    0.093656
   129  H    0.065042
   130  H    0.103059
   131  H    0.083878
   132  H    0.087053
   133  H    0.087665
   134  H    0.105437
   135  H    0.080324
   136  H    0.106408
   137  H    0.120750
 Sum of Mulliken charges =   0.00000

 Dipole moment (field-independent basis, Debye):
    X=              1.9277    Y=              4.9680    Z=              1.2450  Tot=              5.4724
 Quadrupole moment (field-independent basis, Debye-Ang):
   XX=           -351.6610   YY=           -389.6941   ZZ=           -396.5244
   XY=            -18.8798   XZ=              6.9935   YZ=              2.7885

 Normal termination of Gaussian 09 at Tue Jul  2 11:17:04 2019.
