 Gaussian 09, Revision D.01,
 Gaussian 09:  ES64L-G09RevD.01 24-Apr-2013

 -------------------------------------
 # td=(NStates=1) CAM-B3LYP/6-31G(d,p)
 -------------------------------------

 --
 TD
 --
 Symbolic Z-matrix:
 Charge =  0 Multiplicity = 1

                         Standard orientation:
 ---------------------------------------------------------------------
 Center     Atomic      Atomic             Coordinates (Angstroms)
 Number     Number       Type             X           Y           Z
 ---------------------------------------------------------------------
      1         12           0       -7.114218    0.526573   -0.022633
      2          6           0       -4.837184   -1.994515    0.509406
      3          6           0       -4.843071    2.880525    1.149297
      4          6           0       -9.474791    3.052242   -0.447547
      5          6           0       -9.552275   -1.870250   -0.799691
      6          7           0       -5.076537    0.429940    0.775545
      7          6           0       -4.350955   -0.704498    0.907556
      8          6           0       -2.959409   -0.278521    1.314790
      9          6           0       -3.051759    1.141901    1.625044
     10          6           0       -4.407668    1.598924    1.097819
     11          6           0       -2.976963    1.389083    3.083449
     12          6           0       -1.852625   -0.567840    0.239329
     13          6           0       -0.418282   -0.399131    0.628409
     14          6           0        0.452618   -0.674115   -0.528129
     15          8           0        0.263170   -0.955493   -1.728267
     16          8           0        1.829311   -0.688189   -0.048468
     17          7           0       -7.134591    2.567304    0.305156
     18          6           0       -6.104753    3.379751    0.681870
     19          6           0       -6.478841    4.779979    0.788814
     20          6           0       -7.809975    4.883321    0.359781
     21          6           0       -8.216075    3.529246   -0.010971
     22          6           0       -5.661750    6.023452    1.150603
     23          6           0       -8.637361    6.113875    0.186241
     24          6           0       -8.653610    7.207312    0.947706
     25          7           0       -9.150409    0.526613   -0.587593
     26          6           0       -9.844952    1.688737   -0.624380
     27          6           0      -11.178690    1.361764   -1.221938
     28          6           0      -11.186134    0.035080   -1.336537
     29          6           0       -9.928727   -0.503252   -0.970641
     30          6           0      -12.248127    2.459667   -1.514753
     31          6           0      -12.390406   -0.762926   -1.951541
     32          6           0      -12.051873   -1.100567   -3.436395
     33          7           0       -7.198087   -1.437134   -0.251188
     34          6           0       -8.218626   -2.326415   -0.484677
     35          6           0       -7.815617   -3.716821   -0.419885
     36          6           0       -6.482454   -3.528966   -0.073831
     37          6           0       -6.077767   -2.129815    0.084466
     38          6           0       -8.516591   -4.851340   -0.848303
     39          6           0       -5.287592   -4.286398    0.208172
     40          8           0       -5.106494   -5.537126    0.391300
     41          6           0       -4.174593   -3.250384    0.648017
     42          6           0       -3.438184   -3.587850    1.942208
     43          8           0       -3.675064   -3.110376    2.948315
     44          8           0       -2.766842   -4.701236    1.794608
     45          6           0       -2.362003   -5.167380    3.043948
     46          6           0        2.803902   -0.804793   -1.122194
     47          6           0        4.159380   -0.482139   -0.483576
     48          6           0        5.149252    0.308891   -1.025717
     49          6           0        5.088055    0.978812   -2.284761
     50          6           0        6.346870    0.312892   -0.142920
     51          6           0        7.595911   -0.114986   -0.868640
     52          6           0        8.908785    0.020330   -0.112216
     53          6           0       10.258659   -0.461959   -0.861921
     54          6           0       10.025714   -1.924557   -1.322044
     55          6           0       11.458346   -0.303336    0.123398
     56          6           0       12.709427   -0.505052   -0.542801
     57          6           0       13.973053   -0.225365    0.224492
     58          6           0       15.408403   -0.279880   -0.593683
     59          6           0       15.788045   -1.630204   -0.908581
     60          6           0       16.507540    0.471097    0.410173
     61          6           0       17.793436    0.653302   -0.308732
     62          6           0       18.753432    1.362075    0.613947
     63          6           0       20.224158    1.383674    0.175871
     64          6           0       20.378582    2.123255   -1.121273
     65          6           0       21.177030    1.986137    1.208085
     66          1           0       -4.048921    3.686585    1.439089
     67          1           0      -10.354542    3.664755   -0.560485
     68          1           0      -10.310694   -2.660204   -0.884081
     69          1           0       -2.696592   -0.963963    2.171645
     70          1           0       -2.251426    1.692087    0.946905
     71          1           0       -2.196119    1.030483    3.634379
     72          1           0       -2.899611    2.489263    3.441540
     73          1           0       -3.881833    1.042582    3.477782
     74          1           0       -1.891051   -1.437582   -0.293756
     75          1           0       -2.077604    0.015444   -0.550022
     76          1           0       -0.310065    0.595298    0.994552
     77          1           0       -0.013897   -1.020629    1.589001
     78          1           0       -5.896797    6.914932    0.535704
     79          1           0       -5.804092    6.347373    2.330823
     80          1           0       -4.529818    5.882017    0.930749
     81          1           0       -9.511331    6.080924   -0.353396
     82          1           0       -9.370020    8.124414    0.733070
     83          1           0       -7.829738    7.374573    1.711757
     84          1           0      -12.370751    3.106092   -2.443532
     85          1           0      -13.306267    2.126630   -1.814825
     86          1           0      -12.007168    2.965884   -0.749841
     87          1           0      -12.442957   -1.675335   -1.422754
     88          1           0      -13.294901   -0.124793   -1.885843
     89          1           0      -12.842348   -1.740764   -3.811669
     90          1           0      -11.997085   -0.020749   -4.065167
     91          1           0      -11.099558   -1.710774   -3.647575
     92          1           0       -8.356547   -4.776362   -2.040609
     93          1           0       -8.170286   -5.865950   -0.372908
     94          1           0       -9.713524   -4.838565   -0.546894
     95          1           0       -3.304349   -3.396718   -0.119168
     96          1           0       -1.784150   -4.511613    3.744338
     97          1           0       -3.268940   -5.428565    3.661118
     98          1           0       -1.768499   -6.047765    2.878786
     99          1           0        2.821720   -1.814103   -1.483353
    100          1           0        2.557410   -0.257370   -2.074308
    101          1           0        4.317514   -1.021675    0.501453
    102          1           0        4.138021    1.018077   -2.694495
    103          1           0        5.284249    2.069870   -2.218994
    104          1           0        5.656116    0.301750   -2.915254
    105          1           0        6.337465    1.352520    0.205155
    106          1           0        6.236087   -0.188873    0.857567
    107          1           0        7.539415   -1.109687   -1.383733
    108          1           0        7.581527    0.374154   -1.890887
    109          1           0        9.116923    1.146894    0.291957
    110          1           0        8.662226   -0.538781    0.763739
    111          1           0       10.466607   -0.047337   -1.744395
    112          1           0        9.060323   -1.911755   -1.811500
    113          1           0       10.974302   -2.299627   -1.953814
    114          1           0        9.959641   -2.569303   -0.444680
    115          1           0       11.471517    0.663816    0.631289
    116          1           0       11.446137   -1.097418    0.874174
    117          1           0       12.892965   -1.497406   -0.938426
    118          1           0       12.851908    0.218881   -1.357941
    119          1           0       13.845652    0.836824    0.911754
    120          1           0       14.030172   -1.097145    1.143405
    121          1           0       15.228623    0.518282   -1.594461
    122          1           0       15.740700   -2.210682   -0.041395
    123          1           0       14.941749   -2.058277   -1.415817
    124          1           0       16.573976   -2.017327   -1.604407
    125          1           0       16.140930    1.443312    0.679474
    126          1           0       16.668560   -0.110414    1.178332
    127          1           0       18.081883   -0.409308   -0.576993
    128          1           0       17.732862    1.387413   -1.112961
    129          1           0       18.385002    2.276305    0.849728
    130          1           0       18.774500    0.858158    1.573099
    131          1           0       20.598202    0.364482    0.107538
    132          1           0       19.900041    3.126353   -0.945762
    133          1           0       21.380829    2.197480   -1.362387
    134          1           0       20.005011    1.805625   -2.071025
    135          1           0       21.300699    1.234689    2.159186
    136          1           0       22.232439    1.974508    0.561906
    137          1           0       20.777401    3.029077    1.499067
 ---------------------------------------------------------------------

 SCF Done:  E(RCAM-B3LYP) =  -2932.63705435     A.U. after   18 cycles

 Excitation energies and oscillator strengths:

 Excited State   1:      Singlet-A      1.9868 eV  624.03 nm  f=0.2894  <S**2>=0.000
     240 -> 243       -0.25614
     241 -> 242        0.65413
 This state for optimization and/or second-order correction.
 Total Energy, E(TD-HF/TD-KS) =  -2932.56403908
 Copying the excited state density for this state as the 1-particle RhoCI density.

 The electronic state is 1-A.
 Alpha  occ. eigenvalues --  -46.85012 -19.26605 -19.24671 -19.22640 -19.21105
 Alpha  occ. eigenvalues --  -19.19413 -14.42166 -14.40651 -14.39656 -14.39298
 Alpha  occ. eigenvalues --  -10.40518 -10.38353 -10.34704 -10.32018 -10.30650
 Alpha  occ. eigenvalues --  -10.30643 -10.30571 -10.30415 -10.30287 -10.30198
 Alpha  occ. eigenvalues --  -10.29431 -10.29269 -10.29188 -10.28925 -10.28924
 Alpha  occ. eigenvalues --  -10.28914 -10.28592 -10.28458 -10.28302 -10.28293
 Alpha  occ. eigenvalues --  -10.28117 -10.28109 -10.28072 -10.27815 -10.27626
 Alpha  occ. eigenvalues --  -10.27619 -10.27495 -10.27141 -10.27000 -10.26982
 Alpha  occ. eigenvalues --  -10.26738 -10.26622 -10.26413 -10.26328 -10.26300
 Alpha  occ. eigenvalues --  -10.26083 -10.26062 -10.25767 -10.25687 -10.25558
 Alpha  occ. eigenvalues --  -10.25536 -10.25534 -10.25397 -10.25141 -10.25050
 Alpha  occ. eigenvalues --  -10.24939 -10.24846 -10.24841 -10.24353 -10.23951
 Alpha  occ. eigenvalues --  -10.23923 -10.23856 -10.23111 -10.23072 -10.22850
 Alpha  occ. eigenvalues --   -3.13918  -1.88632  -1.88174  -1.88070  -1.22443
 Alpha  occ. eigenvalues --   -1.14960  -1.12814  -1.07193  -1.07167  -1.04988
 Alpha  occ. eigenvalues --   -1.04071  -1.03439  -1.01374  -0.94272  -0.91865
 Alpha  occ. eigenvalues --   -0.91539  -0.90701  -0.90033  -0.89388  -0.89003
 Alpha  occ. eigenvalues --   -0.88289  -0.87991  -0.87848  -0.87584  -0.86456
 Alpha  occ. eigenvalues --   -0.85640  -0.84224  -0.83606  -0.83543  -0.82535
 Alpha  occ. eigenvalues --   -0.81925  -0.81744  -0.81115  -0.80409  -0.79005
 Alpha  occ. eigenvalues --   -0.78002  -0.77081  -0.76585  -0.76376  -0.75744
 Alpha  occ. eigenvalues --   -0.75306  -0.74726  -0.74116  -0.73423  -0.72538
 Alpha  occ. eigenvalues --   -0.72101  -0.70484  -0.68653  -0.68473  -0.67869
 Alpha  occ. eigenvalues --   -0.66646  -0.66116  -0.65546  -0.65275  -0.64878
 Alpha  occ. eigenvalues --   -0.64423  -0.63715  -0.63135  -0.62913  -0.62567
 Alpha  occ. eigenvalues --   -0.61090  -0.60880  -0.60508  -0.60179  -0.59421
 Alpha  occ. eigenvalues --   -0.58549  -0.58443  -0.58151  -0.57737  -0.57177
 Alpha  occ. eigenvalues --   -0.56987  -0.55648  -0.55430  -0.55424  -0.55151
 Alpha  occ. eigenvalues --   -0.54808  -0.54688  -0.54448  -0.53772  -0.53329
 Alpha  occ. eigenvalues --   -0.53218  -0.52620  -0.52471  -0.52304  -0.52013
 Alpha  occ. eigenvalues --   -0.51891  -0.51488  -0.50968  -0.50719  -0.50702
 Alpha  occ. eigenvalues --   -0.50434  -0.50154  -0.49961  -0.49835  -0.49566
 Alpha  occ. eigenvalues --   -0.49287  -0.49179  -0.49077  -0.48743  -0.48468
 Alpha  occ. eigenvalues --   -0.48419  -0.47956  -0.47610  -0.47489  -0.47072
 Alpha  occ. eigenvalues --   -0.46759  -0.46647  -0.46362  -0.46178  -0.46093
 Alpha  occ. eigenvalues --   -0.45757  -0.45536  -0.45500  -0.45233  -0.44945
 Alpha  occ. eigenvalues --   -0.44865  -0.44479  -0.44460  -0.44202  -0.44147
 Alpha  occ. eigenvalues --   -0.44028  -0.43956  -0.43620  -0.43324  -0.43167
 Alpha  occ. eigenvalues --   -0.43004  -0.42771  -0.42654  -0.42427  -0.42129
 Alpha  occ. eigenvalues --   -0.42026  -0.41676  -0.41664  -0.41342  -0.41287
 Alpha  occ. eigenvalues --   -0.41068  -0.40978  -0.40718  -0.40304  -0.40161
 Alpha  occ. eigenvalues --   -0.39896  -0.39701  -0.39621  -0.39556  -0.39477
 Alpha  occ. eigenvalues --   -0.39068  -0.38987  -0.38541  -0.37751  -0.37695
 Alpha  occ. eigenvalues --   -0.37458  -0.37348  -0.37024  -0.36794  -0.36624
 Alpha  occ. eigenvalues --   -0.36539  -0.36378  -0.36027  -0.35447  -0.35268
 Alpha  occ. eigenvalues --   -0.35077  -0.34893  -0.34430  -0.34382  -0.33830
 Alpha  occ. eigenvalues --   -0.33144  -0.32240  -0.32085  -0.30960  -0.29767
 Alpha  occ. eigenvalues --   -0.29160  -0.28300  -0.28212  -0.27762  -0.23616
 Alpha  occ. eigenvalues --   -0.21089
 Alpha virt. eigenvalues --   -0.06772  -0.03525   0.00694   0.03641   0.04172
 Alpha virt. eigenvalues --    0.05245   0.06387   0.07015   0.07263   0.07422
 Alpha virt. eigenvalues --    0.08348   0.10568   0.11170   0.11636   0.11923

 Mulliken charges:
               1
     1  Mg   0.820777
     2  C    0.126649
     3  C   -0.179473
     4  C   -0.153109
     5  C   -0.173968
     6  N   -0.659770
     7  C    0.333960
     8  C   -0.166606
     9  C   -0.149946
    10  C    0.325490
    11  C   -0.302989
    12  C   -0.198992
    13  C   -0.260739
    14  C    0.627005
    15  O   -0.477075
    16  O   -0.522368
    17  N   -0.677692
    18  C    0.313097
    19  C    0.013499
    20  C    0.037159
    21  C    0.231656
    22  C   -0.372849
    23  C   -0.059277
    24  C   -0.244555
    25  N   -0.689003
    26  C    0.275443
    27  C    0.014051
    28  C   -0.031769
    29  C    0.308224
    30  C   -0.349008
    31  C   -0.214344
    32  C   -0.293257
    33  N   -0.784788
    34  C    0.256615
    35  C    0.123777
    36  C   -0.025865
    37  C    0.352801
    38  C   -0.399461
    39  C    0.334854
    40  O   -0.495931
    41  C   -0.347429
    42  C    0.608604
    43  O   -0.429750
    44  O   -0.404667
    45  C   -0.099841
    46  C    0.018684
    47  C   -0.139728
    48  C    0.103426
    49  C   -0.360908
    50  C   -0.205866
    51  C   -0.201531
    52  C   -0.166078
    53  C   -0.059062
    54  C   -0.314046
    55  C   -0.154804
    56  C   -0.165300
    57  C   -0.168356
    58  C   -0.048332
    59  C   -0.318420
    60  C   -0.160233
    61  C   -0.169741
    62  C   -0.175440
    63  C   -0.058592
    64  C   -0.303495
    65  C   -0.278286
    66  H    0.091738
    67  H    0.092023
    68  H    0.094102
    69  H    0.127079
    70  H    0.093430
    71  H    0.117015
    72  H    0.090048
    73  H    0.133040
    74  H    0.122409
    75  H    0.128816
    76  H    0.153771
    77  H    0.140267
    78  H    0.133958
    79  H    0.102552
    80  H    0.101287
    81  H    0.092640
    82  H    0.102225
    83  H    0.098763
    84  H    0.109409
    85  H    0.105986
    86  H    0.130887
    87  H    0.104180
    88  H    0.104958
    89  H    0.104267
    90  H    0.079935
    91  H    0.105294
    92  H    0.139002
    93  H    0.152022
    94  H    0.101328
    95  H    0.142506
    96  H    0.119378
    97  H    0.124835
    98  H    0.120634
    99  H    0.119442
   100  H    0.113588
   101  H    0.089944
   102  H    0.120862
   103  H    0.116428
   104  H    0.132183
   105  H    0.100544
   106  H    0.096133
   107  H    0.094181
   108  H    0.083607
   109  H    0.066704
   110  H    0.102128
   111  H    0.100952
   112  H    0.104036
   113  H    0.083348
   114  H    0.103053
   115  H    0.091130
   116  H    0.089924
   117  H    0.098747
   118  H    0.087632
   119  H    0.053447
   120  H    0.036601
   121  H    0.042591
   122  H    0.115970
   123  H    0.104128
   124  H    0.113320
   125  H    0.087326
   126  H    0.101036
   127  H    0.085821
   128  H    0.094430
   129  H    0.091513
   130  H    0.076012
   131  H    0.085334
   132  H    0.086754
   133  H    0.097218
   134  H    0.105993
   135  H    0.083244
   136  H    0.076564
   137  H    0.095307
 Sum of Mulliken charges =   0.00000

 Dipole moment (field-independent basis, Debye):
    X=             -0.1841    Y=              3.9336    Z=             -0.2901  Tot=              3.9486
 Quadrupole moment (field-independent basis, Debye-Ang):
   XX=           -361.1532   YY=           -392.3846   ZZ=           -396.3388
   XY=            -27.0448   XZ=              8.6693   YZ=             -0.6915

 Normal termination of Gaussian 09 at Wed Jul  3 01:29:02 2019.
