 Gaussian 16, Revision A.03,
 Gaussian 16:  ES64L-G16RevA.03 25-Dec-2016

 ----------------------------------------------------------------------
 # td=(NStates=1) iop(3/107=0140000000,3/108=0140000000) CAM-B3LYP/6-31
 G(d,p)
 ----------------------------------------------------------------------

 --
 TD
 --
 Symbolic Z-matrix:
 Charge =  0 Multiplicity = 1

                         Standard orientation:
 ---------------------------------------------------------------------
 Center     Atomic      Atomic             Coordinates (Angstroms)
 Number     Number       Type             X           Y           Z
 ---------------------------------------------------------------------
      1         12           0       -7.133694    0.602130    0.037390
      2          6           0       -4.823963   -1.880095    0.382820
      3          6           0       -4.814809    2.804725    1.099697
      4          6           0       -9.487814    3.032284   -0.416333
      5          6           0       -9.603416   -1.748793   -0.746304
      6          7           0       -5.037447    0.529783    0.543805
      7          6           0       -4.326813   -0.623221    0.721129
      8          6           0       -2.987703   -0.341026    1.193472
      9          6           0       -3.112383    1.074892    1.559547
     10          6           0       -4.400967    1.570274    1.047886
     11          6           0       -3.014647    1.245075    3.124679
     12          6           0       -1.905366   -0.646923    0.058142
     13          6           0       -0.507004   -0.269743    0.473657
     14          6           0        0.496610   -0.661013   -0.520563
     15          8           0        0.257465   -1.021469   -1.629664
     16          8           0        1.740670   -0.403912   -0.096172
     17          7           0       -7.167038    2.590621    0.181789
     18          6           0       -6.150990    3.385263    0.681956
     19          6           0       -6.540507    4.781021    0.727762
     20          6           0       -7.841647    4.825680    0.266427
     21          6           0       -8.299552    3.441953   -0.005727
     22          6           0       -5.754427    5.952305    1.192871
     23          6           0       -8.656765    5.951067    0.012535
     24          6           0       -8.616619    7.059461    0.703870
     25          7           0       -9.190551    0.608368   -0.495211
     26          6           0       -9.989946    1.742402   -0.600446
     27          6           0      -11.258276    1.377752   -1.161565
     28          6           0      -11.373610    0.065396   -1.256841
     29          6           0       -9.969269   -0.477870   -0.798422
     30          6           0      -12.402677    2.356100   -1.271117
     31          6           0      -12.458632   -0.974693   -1.676129
     32          6           0      -12.219760   -1.303951   -3.175268
     33          7           0       -7.198260   -1.364254   -0.163027
     34          6           0       -8.317416   -2.183439   -0.392763
     35          6           0       -7.782301   -3.642072   -0.483877
     36          6           0       -6.426457   -3.567475   -0.101287
     37          6           0       -6.078899   -2.140444   -0.080495
     38          6           0       -8.528910   -4.831398   -0.788991
     39          6           0       -5.328151   -4.381422    0.193045
     40          8           0       -5.041907   -5.557375    0.102987
     41          6           0       -4.122089   -3.365118    0.581957
     42          6           0       -3.609635   -3.595150    1.965821
     43          8           0       -3.787539   -2.931406    2.996800
     44          8           0       -2.707718   -4.602432    1.905759
     45          6           0       -2.054924   -5.050767    3.116397
     46          6           0        2.792594   -0.570894   -1.221404
     47          6           0        4.216895   -0.526540   -0.533173
     48          6           0        5.212418    0.302178   -0.946966
     49          6           0        5.206857    1.251298   -2.178525
     50          6           0        6.444781    0.435128   -0.112202
     51          6           0        7.712009   -0.139069   -0.840201
     52          6           0        9.016945   -0.221076   -0.120851
     53          6           0       10.278708   -0.716921   -0.900147
     54          6           0       10.151667   -2.155221   -1.371793
     55          6           0       11.580167   -0.444809   -0.049743
     56          6           0       12.854690   -0.519708   -0.801870
     57          6           0       13.969689   -0.013409   -0.004490
     58          6           0       15.351558   -0.271985   -0.536687
     59          6           0       15.696763   -1.702725   -0.731643
     60          6           0       16.528491    0.437413    0.363258
     61          6           0       17.865078    0.558792   -0.161066
     62          6           0       18.845852    1.312006    0.774336
     63          6           0       20.378983    1.381517    0.244393
     64          6           0       20.253299    2.248334   -1.058063
     65          6           0       21.333378    1.977507    1.323826
     66          1           0       -4.154182    3.563322    1.456869
     67          1           0      -10.339756    3.910813   -0.707682
     68          1           0      -10.113963   -2.711246   -0.975298
     69          1           0       -2.708775   -0.960863    2.048829
     70          1           0       -2.310990    1.539802    1.159176
     71          1           0       -2.048249    1.232523    3.256223
     72          1           0       -3.373242    2.284985    3.672624
     73          1           0       -3.620043    0.669662    3.569835
     74          1           0       -1.964783   -1.516070   -0.349214
     75          1           0       -2.158591   -0.042495   -0.736177
     76          1           0       -0.320143    0.714332    0.771528
     77          1           0       -0.158852   -0.612571    1.387191
     78          1           0       -5.909774    7.096097    0.736949
     79          1           0       -5.823571    6.209626    2.129695
     80          1           0       -4.553763    5.984711    0.833010
     81          1           0       -9.338122    5.904430   -0.780869
     82          1           0       -9.226981    8.047715    0.547715
     83          1           0       -7.944528    7.382363    1.579537
     84          1           0      -12.097544    3.133113   -2.173657
     85          1           0      -13.300552    1.651594   -1.475111
     86          1           0      -12.617375    2.957084   -0.278073
     87          1           0      -12.647148   -1.759098   -1.065051
     88          1           0      -13.520867   -0.633115   -1.608879
     89          1           0      -12.985685   -2.055890   -3.381984
     90          1           0      -12.434419   -0.461685   -3.703358
     91          1           0      -11.314937   -1.776849   -3.315979
     92          1           0       -8.893281   -4.884287   -1.759305
     93          1           0       -7.566119   -5.525342   -0.582236
     94          1           0       -9.385901   -4.773520   -0.074741
     95          1           0       -3.456269   -3.653790   -0.193853
     96          1           0       -1.607929   -4.109855    3.467888
     97          1           0       -2.729750   -5.234917    3.936825
     98          1           0       -1.365267   -5.837028    2.905322
     99          1           0        2.622001   -1.716072   -1.638874
    100          1           0        2.690999    0.143270   -1.963789
    101          1           0        4.538864   -1.337451    0.215216
    102          1           0        4.217522    1.049969   -2.547482
    103          1           0        5.332614    2.193358   -1.766771
    104          1           0        5.966495    0.895100   -3.019471
    105          1           0        6.735241    1.525982    0.056850
    106          1           0        6.348366    0.134898    0.872601
    107          1           0        7.352197   -1.165761   -1.149141
    108          1           0        7.922259    0.479178   -1.801913
    109          1           0        9.148396    0.856205    0.329926
    110          1           0        8.768357   -0.649410    0.978535
    111          1           0       10.363726   -0.142988   -1.837266
    112          1           0        9.365707   -2.205174   -2.125232
    113          1           0       11.093310   -2.377905   -1.825007
    114          1           0        9.870016   -2.576022   -0.538980
    115          1           0       11.295909    0.544773    0.261039
    116          1           0       11.427170   -1.045353    0.974717
    117          1           0       13.008595   -1.518528   -1.106587
    118          1           0       12.693486    0.060249   -1.696823
    119          1           0       13.791032    1.083424    0.170465
    120          1           0       14.008199   -0.518163    1.122456
    121          1           0       15.442929    0.284532   -1.398331
    122          1           0       15.321016   -2.271736    0.188552
    123          1           0       15.215024   -2.130847   -1.609654
    124          1           0       16.766502   -1.988640   -0.986119
    125          1           0       16.172299    1.308387    0.607849
    126          1           0       16.672474   -0.210169    1.306260
    127          1           0       18.466340   -0.288397   -0.477587
    128          1           0       17.950032    1.182340   -1.118207
    129          1           0       18.416786    2.245558    0.908926
    130          1           0       18.760735    0.872825    1.692338
    131          1           0       20.605177    0.286139   -0.141160
    132          1           0       19.995649    3.372038   -0.832040
    133          1           0       21.381626    2.391308   -1.251800
    134          1           0       19.617252    1.813860   -1.707776
    135          1           0       20.912698    1.305809    2.188133
    136          1           0       22.292807    2.105638    1.024198
    137          1           0       20.984636    3.012679    1.599169
 ---------------------------------------------------------------------

 SCF Done:  E(RCAM-B3LYP) =  -2933.43534681     A.U. after   16 cycles

 Excitation energies and oscillator strengths:

 Excited State   1:      Singlet-A      1.9863 eV  624.21 nm  f=0.3371  <S**2>=0.000
     240 -> 243        0.21259
     241 -> 242        0.67402
 This state for optimization and/or second-order correction.
 Total Energy, E(TD-HF/TD-DFT) =  -2933.36235336
 Copying the excited state density for this state as the 1-particle RhoCI density.

 The electronic state is 1-A.
 Alpha  occ. eigenvalues --  -46.79290 -19.21278 -19.21271 -19.16212 -19.16099
 Alpha  occ. eigenvalues --  -19.15603 -14.36455 -14.35508 -14.35406 -14.35400
 Alpha  occ. eigenvalues --  -10.34342 -10.33086 -10.30239 -10.29153 -10.26406
 Alpha  occ. eigenvalues --  -10.26181 -10.25608 -10.25302 -10.24866 -10.24626
 Alpha  occ. eigenvalues --  -10.24494 -10.24473 -10.24302 -10.24097 -10.23818
 Alpha  occ. eigenvalues --  -10.23709 -10.23539 -10.23479 -10.23106 -10.23053
 Alpha  occ. eigenvalues --  -10.22995 -10.22799 -10.22567 -10.22563 -10.22510
 Alpha  occ. eigenvalues --  -10.22449 -10.22428 -10.22283 -10.22267 -10.22211
 Alpha  occ. eigenvalues --  -10.22117 -10.22092 -10.21898 -10.21774 -10.21746
 Alpha  occ. eigenvalues --  -10.21575 -10.21526 -10.21443 -10.21280 -10.21256
 Alpha  occ. eigenvalues --  -10.21029 -10.20971 -10.20967 -10.20756 -10.20740
 Alpha  occ. eigenvalues --  -10.20527 -10.20292 -10.20231 -10.20191 -10.20148
 Alpha  occ. eigenvalues --  -10.19745 -10.19568 -10.19543 -10.18885 -10.18339
 Alpha  occ. eigenvalues --   -3.07976  -1.82917  -1.82430  -1.82401  -1.12428
 Alpha  occ. eigenvalues --   -1.11728  -1.06366  -1.03429  -1.02559  -1.00442
 Alpha  occ. eigenvalues --   -0.97636  -0.96840  -0.96087  -0.86606  -0.86435
 Alpha  occ. eigenvalues --   -0.85945  -0.85567  -0.84694  -0.84415  -0.83960
 Alpha  occ. eigenvalues --   -0.83309  -0.83184  -0.82935  -0.82542  -0.81829
 Alpha  occ. eigenvalues --   -0.80411  -0.80177  -0.78949  -0.78643  -0.78171
 Alpha  occ. eigenvalues --   -0.77300  -0.76953  -0.76049  -0.75515  -0.74089
 Alpha  occ. eigenvalues --   -0.73141  -0.72165  -0.71838  -0.71278  -0.71226
 Alpha  occ. eigenvalues --   -0.70756  -0.70153  -0.69942  -0.69646  -0.67908
 Alpha  occ. eigenvalues --   -0.67411  -0.67073  -0.66218  -0.65250  -0.64311
 Alpha  occ. eigenvalues --   -0.63090  -0.61824  -0.61644  -0.61628  -0.60174
 Alpha  occ. eigenvalues --   -0.59531  -0.59111  -0.58735  -0.58301  -0.57879
 Alpha  occ. eigenvalues --   -0.57751  -0.57110  -0.56907  -0.55305  -0.55166
 Alpha  occ. eigenvalues --   -0.54719  -0.54038  -0.53581  -0.52980  -0.52791
 Alpha  occ. eigenvalues --   -0.52378  -0.52021  -0.51797  -0.51756  -0.50992
 Alpha  occ. eigenvalues --   -0.50396  -0.50237  -0.49934  -0.49822  -0.49649
 Alpha  occ. eigenvalues --   -0.48880  -0.48791  -0.48451  -0.48416  -0.48066
 Alpha  occ. eigenvalues --   -0.47978  -0.47934  -0.47818  -0.47463  -0.47387
 Alpha  occ. eigenvalues --   -0.47163  -0.46802  -0.46757  -0.46599  -0.46448
 Alpha  occ. eigenvalues --   -0.46205  -0.45828  -0.45652  -0.45403  -0.45028
 Alpha  occ. eigenvalues --   -0.44853  -0.44577  -0.44438  -0.44331  -0.44195
 Alpha  occ. eigenvalues --   -0.43718  -0.43282  -0.43155  -0.42908  -0.42541
 Alpha  occ. eigenvalues --   -0.42322  -0.42276  -0.42075  -0.41820  -0.41653
 Alpha  occ. eigenvalues --   -0.41366  -0.41253  -0.41012  -0.40705  -0.40577
 Alpha  occ. eigenvalues --   -0.40544  -0.40433  -0.40065  -0.39929  -0.39802
 Alpha  occ. eigenvalues --   -0.39746  -0.39350  -0.39171  -0.39054  -0.38822
 Alpha  occ. eigenvalues --   -0.38455  -0.38269  -0.38163  -0.38068  -0.37984
 Alpha  occ. eigenvalues --   -0.37772  -0.37365  -0.37302  -0.37244  -0.36772
 Alpha  occ. eigenvalues --   -0.36518  -0.36410  -0.36297  -0.35896  -0.35842
 Alpha  occ. eigenvalues --   -0.35612  -0.35587  -0.35159  -0.34931  -0.34404
 Alpha  occ. eigenvalues --   -0.34305  -0.34025  -0.33869  -0.33628  -0.33517
 Alpha  occ. eigenvalues --   -0.33246  -0.32871  -0.32555  -0.32493  -0.32092
 Alpha  occ. eigenvalues --   -0.32067  -0.31618  -0.31460  -0.30291  -0.30049
 Alpha  occ. eigenvalues --   -0.29955  -0.29765  -0.29738  -0.28475  -0.27098
 Alpha  occ. eigenvalues --   -0.26708  -0.26511  -0.26378  -0.25254  -0.21996
 Alpha  occ. eigenvalues --   -0.19410
 Alpha virt. eigenvalues --   -0.06945  -0.03265  -0.00716   0.02870   0.03074
 Alpha virt. eigenvalues --    0.03516   0.05280   0.05477   0.05806   0.06245
 Alpha virt. eigenvalues --    0.06421   0.08947   0.09664   0.10026   0.10042

 Mulliken charges:
               1
     1  Mg   0.806380
     2  C    0.038701
     3  C   -0.207665
     4  C   -0.191628
     5  C   -0.148388
     6  N   -0.667163
     7  C    0.313980
     8  C   -0.169334
     9  C   -0.175355
    10  C    0.435190
    11  C   -0.283827
    12  C   -0.158785
    13  C   -0.279605
    14  C    0.612146
    15  O   -0.474565
    16  O   -0.494067
    17  N   -0.716664
    18  C    0.284859
    19  C    0.064158
    20  C    0.026062
    21  C    0.312724
    22  C   -0.389256
    23  C   -0.069421
    24  C   -0.240742
    25  N   -0.668358
    26  C    0.301748
    27  C    0.005081
    28  C    0.050375
    29  C    0.296721
    30  C   -0.355634
    31  C   -0.254807
    32  C   -0.304893
    33  N   -0.714151
    34  C    0.251059
    35  C   -0.001053
    36  C    0.060813
    37  C    0.266721
    38  C   -0.384629
    39  C    0.309107
    40  O   -0.461623
    41  C   -0.294840
    42  C    0.631576
    43  O   -0.499516
    44  O   -0.446651
    45  C   -0.086901
    46  C    0.007169
    47  C   -0.133032
    48  C    0.100782
    49  C   -0.339232
    50  C   -0.227772
    51  C   -0.162700
    52  C   -0.178092
    53  C   -0.083518
    54  C   -0.290561
    55  C   -0.164370
    56  C   -0.167703
    57  C   -0.163633
    58  C   -0.052033
    59  C   -0.311802
    60  C   -0.157051
    61  C   -0.189430
    62  C   -0.176643
    63  C   -0.066927
    64  C   -0.291644
    65  C   -0.306687
    66  H    0.072074
    67  H    0.077020
    68  H    0.084930
    69  H    0.131634
    70  H    0.100281
    71  H    0.113333
    72  H    0.068162
    73  H    0.138721
    74  H    0.123339
    75  H    0.121706
    76  H    0.140694
    77  H    0.132901
    78  H    0.096451
    79  H    0.148243
    80  H    0.081493
    81  H    0.098880
    82  H    0.087750
    83  H    0.094258
    84  H    0.095523
    85  H    0.105613
    86  H    0.116686
    87  H    0.116985
    88  H    0.090043
    89  H    0.093954
    90  H    0.127433
    91  H    0.122530
    92  H    0.143349
    93  H    0.143374
    94  H    0.130038
    95  H    0.165358
    96  H    0.122086
    97  H    0.135299
    98  H    0.133470
    99  H    0.121132
   100  H    0.136286
   101  H    0.094004
   102  H    0.102085
   103  H    0.133564
   104  H    0.119692
   105  H    0.088028
   106  H    0.104885
   107  H    0.089865
   108  H    0.079962
   109  H    0.069827
   110  H    0.066022
   111  H    0.077106
   112  H    0.099059
   113  H    0.101274
   114  H    0.115642
   115  H    0.096285
   116  H    0.070869
   117  H    0.107398
   118  H    0.097586
   119  H    0.085691
   120  H    0.058747
   121  H    0.088292
   122  H    0.093195
   123  H    0.099525
   124  H    0.100400
   125  H    0.092466
   126  H    0.072879
   127  H    0.090446
   128  H    0.069099
   129  H    0.094552
   130  H    0.082882
   131  H    0.073377
   132  H    0.083414
   133  H    0.081435
   134  H    0.116080
   135  H    0.103007
   136  H    0.116080
   137  H    0.101248
 Sum of Mulliken charges =  -0.00000

 Dipole moment (field-independent basis, Debye):
    X=              1.3422    Y=              3.9325    Z=              0.0470  Tot=              4.1555
 Quadrupole moment (field-independent basis, Debye-Ang):
   XX=           -341.3619   YY=           -391.9260   ZZ=           -396.2367
   XY=             -6.7393   XZ=              4.8682   YZ=              0.6912

 Normal termination of Gaussian 16 at Thu Sep  5 12:15:06 2019.
