 Gaussian 09, Revision D.01,
 Gaussian 09:  ES64L-G09RevD.01 24-Apr-2013

 -------------------------------------
 # td=(NStates=1) CAM-B3LYP/6-31G(d,p)
 -------------------------------------

 --
 TD
 --
 Symbolic Z-matrix:
 Charge =  0 Multiplicity = 1

                         Standard orientation:
 ---------------------------------------------------------------------
 Center     Atomic      Atomic             Coordinates (Angstroms)
 Number     Number       Type             X           Y           Z
 ---------------------------------------------------------------------
      1         12           0       -7.148964    0.603965    0.234905
      2          6           0       -4.786929   -1.913251    0.554756
      3          6           0       -4.904504    2.757844    1.138075
      4          6           0       -9.468672    3.114685   -0.460008
      5          6           0       -9.499446   -1.786009   -0.940251
      6          7           0       -5.137029    0.384383    0.716656
      7          6           0       -4.213624   -0.641220    0.791187
      8          6           0       -2.835136   -0.332776    1.280758
      9          6           0       -2.994952    1.223559    1.628859
     10          6           0       -4.419624    1.479387    1.104545
     11          6           0       -2.966050    1.303637    3.122308
     12          6           0       -1.905797   -0.653489    0.070740
     13          6           0       -0.381486   -0.404621    0.476181
     14          6           0        0.556133   -0.648589   -0.639657
     15          8           0        0.332167   -0.953527   -1.795215
     16          8           0        1.821263   -0.526613   -0.177394
     17          7           0       -7.163151    2.677954    0.349151
     18          6           0       -6.099509    3.422831    0.725790
     19          6           0       -6.455646    4.745760    0.765401
     20          6           0       -7.769638    4.836055    0.247291
     21          6           0       -8.192710    3.467007    0.000832
     22          6           0       -5.521845    5.892453    1.019599
     23          6           0       -8.424925    6.084418    0.119867
     24          6           0       -8.374890    7.179053    0.848153
     25          7           0       -9.182136    0.679653   -0.561163
     26          6           0       -9.927239    1.839038   -0.753315
     27          6           0      -11.237913    1.388817   -1.022529
     28          6           0      -11.279369   -0.007593   -1.173905
     29          6           0       -9.960818   -0.419796   -0.866072
     30          6           0      -12.416644    2.311586   -1.291903
     31          6           0      -12.390366   -0.865085   -1.813735
     32          6           0      -12.202251   -1.032114   -3.299540
     33          7           0       -7.173477   -1.354670   -0.201445
     34          6           0       -8.254153   -2.188859   -0.614296
     35          6           0       -7.768853   -3.671575   -0.440000
     36          6           0       -6.489592   -3.532929   -0.021508
     37          6           0       -6.095515   -2.143437    0.054597
     38          6           0       -8.582915   -4.880799   -0.724826
     39          6           0       -5.250648   -4.367061    0.186678
     40          8           0       -5.170127   -5.571783    0.161623
     41          6           0       -4.092296   -3.437468    0.542524
     42          6           0       -3.470751   -3.716081    1.918549
     43          8           0       -3.746684   -3.153690    3.011223
     44          8           0       -2.608380   -4.694860    1.838152
     45          6           0       -1.912982   -5.199861    3.104753
     46          6           0        2.908639   -0.744118   -1.155695
     47          6           0        4.123003   -0.449260   -0.422276
     48          6           0        5.131141    0.317857   -0.872690
     49          6           0        5.033299    1.181158   -2.179164
     50          6           0        6.452097    0.599145   -0.191747
     51          6           0        7.562483   -0.201512   -0.967763
     52          6           0        8.932678   -0.104418   -0.178309
     53          6           0       10.161168   -0.442666   -0.960474
     54          6           0       10.013034   -2.024409   -1.410354
     55          6           0       11.358498   -0.236349   -0.045449
     56          6           0       12.700851   -0.527943   -0.860563
     57          6           0       13.867784   -0.146992    0.098502
     58          6           0       15.302265   -0.201189   -0.611117
     59          6           0       15.726137   -1.614176   -0.990247
     60          6           0       16.393006    0.283675    0.389234
     61          6           0       17.698080    0.474525   -0.109618
     62          6           0       18.711845    1.197248    0.812194
     63          6           0       20.150108    1.386152    0.252586
     64          6           0       20.252085    2.213006   -0.961090
     65          6           0       21.001211    2.050475    1.357159
     66          1           0       -4.230920    3.589852    1.718103
     67          1           0      -10.210998    3.928950   -0.493051
     68          1           0      -10.395199   -2.601008   -1.205955
     69          1           0       -2.623003   -1.087772    2.109995
     70          1           0       -2.152317    1.764099    1.082267
     71          1           0       -2.097911    0.755714    3.496463
     72          1           0       -2.824459    2.293976    3.438949
     73          1           0       -3.798815    0.697192    3.746521
     74          1           0       -1.984419   -1.751323   -0.254770
     75          1           0       -2.069228   -0.135883   -0.922717
     76          1           0       -0.104333    0.658131    0.958184
     77          1           0       -0.076905   -1.065123    1.387254
     78          1           0       -5.846639    6.960277    0.711325
     79          1           0       -5.086332    6.183725    2.197995
     80          1           0       -4.503864    5.623588    0.705526
     81          1           0       -9.183265    6.136443   -0.645256
     82          1           0       -9.100177    8.107165    0.586253
     83          1           0       -7.687523    7.444450    1.591543
     84          1           0      -12.110207    3.270420   -1.921346
     85          1           0      -13.408072    1.924423   -1.851064
     86          1           0      -12.598608    2.751059   -0.385391
     87          1           0      -12.235398   -1.918670   -1.120556
     88          1           0      -13.490456   -0.541908   -1.492684
     89          1           0      -13.026166   -1.705737   -3.570748
     90          1           0      -12.345936    0.042023   -3.837275
     91          1           0      -11.510880   -1.701213   -3.743727
     92          1           0       -8.792302   -4.781480   -1.834051
     93          1           0       -7.866511   -5.734922   -0.630462
     94          1           0       -9.619928   -4.891357   -0.096959
     95          1           0       -3.254301   -3.205057   -0.228616
     96          1           0       -1.458475   -4.258371    3.585258
     97          1           0       -2.566005   -5.682770    3.773524
     98          1           0       -1.206435   -5.838713    2.609691
     99          1           0        2.714635   -1.851047   -1.312307
    100          1           0        2.604559   -0.186126   -1.987047
    101          1           0        4.331030   -1.068557    0.353126
    102          1           0        4.073695    1.235585   -2.746981
    103          1           0        5.383154    2.084836   -1.996839
    104          1           0        5.885532    0.852346   -2.885057
    105          1           0        6.696759    1.657524   -0.117065
    106          1           0        6.408202   -0.003081    0.872638
    107          1           0        7.357168   -1.341885   -0.961592
    108          1           0        7.827951    0.243113   -1.962449
    109          1           0        8.952600    0.934938    0.376583
    110          1           0        8.821307   -0.700552    0.875245
    111          1           0       10.282646    0.098581   -1.849736
    112          1           0        9.217067   -2.088797   -2.151754
    113          1           0       10.943379   -2.479847   -1.773588
    114          1           0        9.502917   -2.446935   -0.656909
    115          1           0       11.176096    0.761133    0.129281
    116          1           0       11.234554   -0.575279    0.897701
    117          1           0       12.813773   -1.605719   -1.325931
    118          1           0       12.726166   -0.120877   -1.704202
    119          1           0       13.778857    0.771736    0.607307
    120          1           0       13.962269   -0.909439    1.067497
    121          1           0       15.261414    0.422868   -1.624704
    122          1           0       15.621409   -2.380668   -0.245722
    123          1           0       14.985682   -1.866669   -1.729339
    124          1           0       16.635943   -1.743438   -1.545575
    125          1           0       16.104768    1.252170    0.774880
    126          1           0       16.274438   -0.330624    1.190373
    127          1           0       18.047195   -0.414386   -0.259008
    128          1           0       17.715479    0.952940   -1.170720
    129          1           0       18.516139    2.309334    1.173897
    130          1           0       18.861893    0.689577    1.813775
    131          1           0       20.579108    0.330579    0.082488
    132          1           0       19.907242    3.277369   -0.802340
    133          1           0       21.284111    2.460207   -1.160481
    134          1           0       19.696082    1.785210   -1.718911
    135          1           0       21.063177    1.377256    2.242542
    136          1           0       22.080951    2.374927    1.057147
    137          1           0       20.561719    2.974137    1.663082
 ---------------------------------------------------------------------

 SCF Done:  E(RCAM-B3LYP) =  -2932.66648454     A.U. after   18 cycles

 Excitation energies and oscillator strengths:

 Excited State   1:      Singlet-A      2.1492 eV  576.90 nm  f=0.1955  <S**2>=0.000
     240 -> 242       -0.15990
     240 -> 243       -0.26018
     241 -> 242        0.61349
     241 -> 243       -0.13937
 This state for optimization and/or second-order correction.
 Total Energy, E(TD-HF/TD-KS) =  -2932.58750439
 Copying the excited state density for this state as the 1-particle RhoCI density.

 The electronic state is 1-A.
 Alpha  occ. eigenvalues --  -46.84543 -19.27222 -19.24565 -19.21616 -19.20717
 Alpha  occ. eigenvalues --  -19.20513 -14.41853 -14.39742 -14.38435 -14.38094
 Alpha  occ. eigenvalues --  -10.39955 -10.38745 -10.36328 -10.33134 -10.31689
 Alpha  occ. eigenvalues --  -10.31204 -10.30460 -10.30283 -10.30097 -10.29946
 Alpha  occ. eigenvalues --  -10.29539 -10.29516 -10.28999 -10.28991 -10.28928
 Alpha  occ. eigenvalues --  -10.28855 -10.28451 -10.28354 -10.28329 -10.28290
 Alpha  occ. eigenvalues --  -10.28258 -10.28176 -10.28144 -10.27770 -10.27627
 Alpha  occ. eigenvalues --  -10.27501 -10.27349 -10.27239 -10.27184 -10.26876
 Alpha  occ. eigenvalues --  -10.26559 -10.26121 -10.26113 -10.26052 -10.25994
 Alpha  occ. eigenvalues --  -10.25961 -10.25892 -10.25844 -10.25821 -10.25807
 Alpha  occ. eigenvalues --  -10.25772 -10.25708 -10.25604 -10.25484 -10.25465
 Alpha  occ. eigenvalues --  -10.25293 -10.25134 -10.24765 -10.24608 -10.23899
 Alpha  occ. eigenvalues --  -10.23755 -10.23754 -10.23440 -10.23275 -10.22644
 Alpha  occ. eigenvalues --   -3.13421  -1.88130  -1.87658  -1.87591  -1.18039
 Alpha  occ. eigenvalues --   -1.17280  -1.12622  -1.08239  -1.06818  -1.04405
 Alpha  occ. eigenvalues --   -1.03552  -1.02263  -1.01035  -0.91497  -0.91125
 Alpha  occ. eigenvalues --   -0.90994  -0.90207  -0.89840  -0.88638  -0.88356
 Alpha  occ. eigenvalues --   -0.88262  -0.87585  -0.86926  -0.86372  -0.86257
 Alpha  occ. eigenvalues --   -0.85177  -0.84511  -0.83577  -0.82986  -0.81895
 Alpha  occ. eigenvalues --   -0.81760  -0.81509  -0.80304  -0.79643  -0.78452
 Alpha  occ. eigenvalues --   -0.77394  -0.77074  -0.76451  -0.76022  -0.75817
 Alpha  occ. eigenvalues --   -0.75507  -0.74937  -0.74154  -0.73384  -0.71677
 Alpha  occ. eigenvalues --   -0.71387  -0.71047  -0.69912  -0.68483  -0.68031
 Alpha  occ. eigenvalues --   -0.66891  -0.66803  -0.66693  -0.65188  -0.64419
 Alpha  occ. eigenvalues --   -0.64010  -0.63587  -0.62751  -0.62625  -0.61709
 Alpha  occ. eigenvalues --   -0.61320  -0.60909  -0.59996  -0.59609  -0.59281
 Alpha  occ. eigenvalues --   -0.58160  -0.57365  -0.57305  -0.56840  -0.56605
 Alpha  occ. eigenvalues --   -0.55934  -0.55180  -0.54878  -0.54697  -0.54447
 Alpha  occ. eigenvalues --   -0.54285  -0.53742  -0.53520  -0.53067  -0.52855
 Alpha  occ. eigenvalues --   -0.52598  -0.52505  -0.52225  -0.51940  -0.51574
 Alpha  occ. eigenvalues --   -0.51388  -0.51158  -0.51008  -0.50767  -0.50624
 Alpha  occ. eigenvalues --   -0.50265  -0.50133  -0.49925  -0.49635  -0.49316
 Alpha  occ. eigenvalues --   -0.49200  -0.48994  -0.48648  -0.48530  -0.48463
 Alpha  occ. eigenvalues --   -0.48251  -0.48247  -0.47886  -0.47354  -0.47084
 Alpha  occ. eigenvalues --   -0.46630  -0.46418  -0.46284  -0.45897  -0.45802
 Alpha  occ. eigenvalues --   -0.45647  -0.45515  -0.45315  -0.45157  -0.45022
 Alpha  occ. eigenvalues --   -0.44905  -0.44781  -0.44510  -0.44156  -0.43998
 Alpha  occ. eigenvalues --   -0.43793  -0.43686  -0.43411  -0.43253  -0.43180
 Alpha  occ. eigenvalues --   -0.43025  -0.42845  -0.42482  -0.42231  -0.42030
 Alpha  occ. eigenvalues --   -0.41963  -0.41814  -0.41550  -0.41423  -0.41392
 Alpha  occ. eigenvalues --   -0.40971  -0.40827  -0.40584  -0.40437  -0.40143
 Alpha  occ. eigenvalues --   -0.39994  -0.39857  -0.39683  -0.38996  -0.38874
 Alpha  occ. eigenvalues --   -0.38689  -0.38442  -0.38260  -0.37943  -0.37910
 Alpha  occ. eigenvalues --   -0.37568  -0.37151  -0.37027  -0.36606  -0.36517
 Alpha  occ. eigenvalues --   -0.36363  -0.36137  -0.35993  -0.35677  -0.35391
 Alpha  occ. eigenvalues --   -0.35331  -0.34914  -0.34896  -0.33842  -0.33436
 Alpha  occ. eigenvalues --   -0.32999  -0.32521  -0.31905  -0.31055  -0.30919
 Alpha  occ. eigenvalues --   -0.30058  -0.29940  -0.26556  -0.26023  -0.22841
 Alpha  occ. eigenvalues --   -0.21121
 Alpha virt. eigenvalues --   -0.05810  -0.03388   0.01257   0.04640   0.05100
 Alpha virt. eigenvalues --    0.05418   0.05967   0.06144   0.07615   0.07936
 Alpha virt. eigenvalues --    0.08365   0.10189   0.10711   0.11507   0.11771

 Mulliken charges:
               1
     1  Mg   0.833002
     2  C   -0.035236
     3  C   -0.223828
     4  C   -0.158065
     5  C   -0.184089
     6  N   -0.636341
     7  C    0.313814
     8  C   -0.156027
     9  C   -0.134262
    10  C    0.357990
    11  C   -0.302101
    12  C   -0.196425
    13  C   -0.272195
    14  C    0.619069
    15  O   -0.492965
    16  O   -0.504266
    17  N   -0.729155
    18  C    0.311411
    19  C    0.056539
    20  C   -0.013865
    21  C    0.338165
    22  C   -0.380097
    23  C   -0.090040
    24  C   -0.241944
    25  N   -0.692667
    26  C    0.309683
    27  C   -0.004652
    28  C    0.014998
    29  C    0.295373
    30  C   -0.374699
    31  C   -0.220417
    32  C   -0.290234
    33  N   -0.730088
    34  C    0.283440
    35  C    0.027406
    36  C   -0.010565
    37  C    0.331815
    38  C   -0.380244
    39  C    0.403440
    40  O   -0.443202
    41  C   -0.300148
    42  C    0.616879
    43  O   -0.506870
    44  O   -0.447419
    45  C   -0.087055
    46  C    0.020113
    47  C   -0.111317
    48  C    0.125560
    49  C   -0.364898
    50  C   -0.235536
    51  C   -0.171436
    52  C   -0.196629
    53  C   -0.060572
    54  C   -0.331659
    55  C   -0.168321
    56  C   -0.168955
    57  C   -0.166879
    58  C   -0.079147
    59  C   -0.315350
    60  C   -0.159777
    61  C   -0.162053
    62  C   -0.166609
    63  C   -0.056993
    64  C   -0.292445
    65  C   -0.315502
    66  H    0.060719
    67  H    0.103599
    68  H    0.094589
    69  H    0.141204
    70  H    0.118016
    71  H    0.105837
    72  H    0.116579
    73  H    0.121856
    74  H    0.110120
    75  H    0.138208
    76  H    0.129065
    77  H    0.131764
    78  H    0.118829
    79  H    0.060269
    80  H    0.120284
    81  H    0.085000
    82  H    0.079553
    83  H    0.106197
    84  H    0.093936
    85  H    0.100564
    86  H    0.135291
    87  H    0.061406
    88  H    0.102041
    89  H    0.099761
    90  H    0.105429
    91  H    0.122484
    92  H    0.131806
    93  H    0.153066
    94  H    0.123501
    95  H    0.164900
    96  H    0.136911
    97  H    0.158618
    98  H    0.145583
    99  H    0.119869
   100  H    0.133071
   101  H    0.084566
   102  H    0.114421
   103  H    0.126038
   104  H    0.106212
   105  H    0.119190
   106  H    0.085349
   107  H    0.105248
   108  H    0.101710
   109  H    0.069152
   110  H    0.069676
   111  H    0.093705
   112  H    0.095837
   113  H    0.103622
   114  H    0.115538
   115  H    0.101546
   116  H    0.100312
   117  H    0.079238
   118  H    0.106551
   119  H    0.106752
   120  H    0.059208
   121  H    0.062542
   122  H    0.105952
   123  H    0.092321
   124  H    0.108258
   125  H    0.078592
   126  H    0.095631
   127  H    0.108027
   128  H    0.077561
   129  H    0.066863
   130  H    0.081521
   131  H    0.073549
   132  H    0.085718
   133  H    0.103759
   134  H    0.105417
   135  H    0.095403
   136  H    0.083760
   137  H    0.105868
 Sum of Mulliken charges =   0.00000

 Dipole moment (field-independent basis, Debye):
    X=              3.9705    Y=              0.6840    Z=              0.8318  Tot=              4.1139
 Quadrupole moment (field-independent basis, Debye-Ang):
   XX=           -374.1341   YY=           -393.3441   ZZ=           -396.0448
   XY=             -0.0248   XZ=              8.1611   YZ=             -5.6168

 Normal termination of Gaussian 09 at Thu Jul  4 00:16:15 2019.
