 Gaussian 09, Revision D.01,
 Gaussian 09:  ES64L-G09RevD.01 24-Apr-2013

 -------------------------------------
 # td=(NStates=1) CAM-B3LYP/6-31G(d,p)
 -------------------------------------

 --
 TD
 --
 Symbolic Z-matrix:
 Charge =  0 Multiplicity = 1

                         Standard orientation:
 ---------------------------------------------------------------------
 Center     Atomic      Atomic             Coordinates (Angstroms)
 Number     Number       Type             X           Y           Z
 ---------------------------------------------------------------------
      1         12           0       -7.136332    0.549832    0.043216
      2          6           0       -4.846123   -1.967118    0.647673
      3          6           0       -4.939910    2.888716    1.129353
      4          6           0       -9.481194    3.099737   -0.374666
      5          6           0       -9.492278   -1.847023   -0.998096
      6          7           0       -5.155126    0.478927    0.658380
      7          6           0       -4.414411   -0.719818    0.879275
      8          6           0       -3.014081   -0.362272    1.260664
      9          6           0       -3.057349    1.086449    1.653309
     10          6           0       -4.470833    1.610152    1.127174
     11          6           0       -2.824550    1.449385    3.128912
     12          6           0       -1.954044   -0.546895    0.125575
     13          6           0       -0.414316   -0.319149    0.529166
     14          6           0        0.548987   -0.592728   -0.528869
     15          8           0        0.237296   -0.799933   -1.683174
     16          8           0        1.834663   -0.643070   -0.058106
     17          7           0       -7.222527    2.683204    0.306301
     18          6           0       -6.180444    3.420130    0.754677
     19          6           0       -6.503251    4.782005    0.673515
     20          6           0       -7.788710    4.847472    0.255812
     21          6           0       -8.292635    3.468524    0.037107
     22          6           0       -5.624247    6.006624    1.044431
     23          6           0       -8.606913    6.059620    0.137688
     24          6           0       -8.456050    7.212814    0.829259
     25          7           0       -9.182202    0.657340   -0.476034
     26          6           0       -9.945981    1.758710   -0.642403
     27          6           0      -11.236960    1.373785   -1.076841
     28          6           0      -11.284480   -0.006849   -1.335105
     29          6           0       -9.927481   -0.378069   -0.961213
     30          6           0      -12.359248    2.489825   -1.455066
     31          6           0      -12.415798   -0.759969   -1.922135
     32          6           0      -12.040551   -1.332360   -3.360550
     33          7           0       -7.185501   -1.372715   -0.165250
     34          6           0       -8.225920   -2.341941   -0.692951
     35          6           0       -7.749816   -3.690127   -0.545904
     36          6           0       -6.427351   -3.640055   -0.085381
     37          6           0       -6.156738   -2.182428    0.126076
     38          6           0       -8.629853   -4.827737   -1.026780
     39          6           0       -5.270793   -4.320034    0.217973
     40          8           0       -5.096261   -5.532528    0.227145
     41          6           0       -4.195010   -3.310153    0.639634
     42          6           0       -3.602377   -3.611924    2.093362
     43          8           0       -3.916302   -3.063281    3.100126
     44          8           0       -2.788325   -4.651446    1.856640
     45          6           0       -2.398307   -5.257107    3.168801
     46          6           0        2.900405   -0.796041   -1.061718
     47          6           0        4.168929   -0.514313   -0.397938
     48          6           0        5.148338    0.242555   -0.803517
     49          6           0        5.178511    1.188744   -2.135683
     50          6           0        6.542483    0.358501   -0.128184
     51          6           0        7.743368   -0.026532   -0.919745
     52          6           0        9.061671   -0.154409   -0.125658
     53          6           0       10.225242   -0.649647   -0.832841
     54          6           0       10.138968   -2.125032   -1.187410
     55          6           0       11.508839   -0.448669   -0.037731
     56          6           0       12.830385   -0.629935   -0.753754
     57          6           0       14.023720   -0.103272    0.080026
     58          6           0       15.375706   -0.171775   -0.530833
     59          6           0       15.786870   -1.515772   -1.054580
     60          6           0       16.453458    0.437597    0.347396
     61          6           0       17.859623    0.560656   -0.292802
     62          6           0       18.783867    1.307345    0.640005
     63          6           0       20.221538    1.438213    0.235166
     64          6           0       20.336118    2.127930   -1.180264
     65          6           0       21.115165    2.073781    1.412906
     66          1           0       -4.189982    3.629747    1.454113
     67          1           0      -10.163413    3.951735   -0.600180
     68          1           0      -10.418938   -2.613266   -1.073071
     69          1           0       -2.690795   -1.012625    2.064934
     70          1           0       -2.254464    1.605855    1.015260
     71          1           0       -1.796409    1.146114    3.610995
     72          1           0       -2.552339    2.591867    3.460928
     73          1           0       -3.823208    1.207467    3.803446
     74          1           0       -2.029479   -1.636046   -0.245134
     75          1           0       -2.127949   -0.019690   -0.983380
     76          1           0       -0.191395    0.786081    0.799586
     77          1           0       -0.119066   -1.014684    1.255038
     78          1           0       -5.901040    6.792426    0.306784
     79          1           0       -5.847863    6.174337    2.029473
     80          1           0       -4.654305    5.807488    0.736930
     81          1           0       -9.503845    5.945162   -0.601672
     82          1           0       -9.022042    8.178447    0.647745
     83          1           0       -7.644460    7.211602    1.597449
     84          1           0      -12.079509    3.056982   -2.182853
     85          1           0      -13.288964    2.054877   -1.901962
     86          1           0      -12.783387    2.929008   -0.572881
     87          1           0      -12.494758   -1.641228   -1.234065
     88          1           0      -13.438142   -0.290157   -1.849120
     89          1           0      -12.759017   -2.069762   -3.645558
     90          1           0      -12.126989   -0.510916   -3.898314
     91          1           0      -10.869548   -1.697112   -3.408583
     92          1           0       -8.812028   -4.747579   -2.061962
     93          1           0       -8.215346   -5.910689   -0.898667
     94          1           0       -9.555806   -4.687547   -0.633207
     95          1           0       -3.321396   -3.377879   -0.070476
     96          1           0       -1.771339   -4.623231    3.792553
     97          1           0       -3.240060   -5.476597    3.908577
     98          1           0       -1.908689   -6.148183    2.824885
     99          1           0        2.783445   -1.828261   -1.349679
    100          1           0        2.650184   -0.205530   -1.999492
    101          1           0        4.172770   -0.936397    0.690375
    102          1           0        4.321495    1.122669   -2.624504
    103          1           0        5.213661    2.190525   -1.754194
    104          1           0        6.117093    0.956795   -2.703782
    105          1           0        6.543712    1.371451    0.333603
    106          1           0        6.491709   -0.353829    0.733490
    107          1           0        7.424787   -0.960186   -1.315994
    108          1           0        7.814318    0.586795   -1.775567
    109          1           0        9.083047    0.811722    0.387978
    110          1           0        9.032403   -0.868703    0.642112
    111          1           0       10.330229    0.084778   -1.745648
    112          1           0        9.210084   -2.203029   -1.643532
    113          1           0       10.986039   -2.684190   -1.978597
    114          1           0       10.153546   -2.895021   -0.352556
    115          1           0       11.582201    0.445625    0.437654
    116          1           0       11.408114   -0.909511    0.890739
    117          1           0       12.881778   -1.724614   -0.995580
    118          1           0       12.922209    0.005278   -1.666458
    119          1           0       13.868394    0.790668    0.647647
    120          1           0       14.114560   -0.901604    1.005901
    121          1           0       15.365719    0.439619   -1.474679
    122          1           0       15.703315   -2.318865   -0.535874
    123          1           0       15.277259   -1.982530   -1.739656
    124          1           0       16.721559   -1.369709   -1.570055
    125          1           0       16.222810    1.445293    0.786291
    126          1           0       16.364178   -0.264508    1.244827
    127          1           0       18.196150   -0.360474   -0.694756
    128          1           0       17.936724    1.068180   -1.296706
    129          1           0       18.367196    2.368076    0.761378
    130          1           0       18.746013    0.867820    1.717538
    131          1           0       20.534677    0.332962    0.181087
    132          1           0       19.903748    2.945270   -1.233803
    133          1           0       21.421185    2.423073   -1.148094
    134          1           0       20.148303    1.377394   -2.140060
    135          1           0       20.862451    1.488234    2.358424
    136          1           0       22.069193    1.885287    1.177779
    137          1           0       20.989515    3.123536    1.613509
 ---------------------------------------------------------------------

 SCF Done:  E(RCAM-B3LYP) =  -2932.68144951     A.U. after   17 cycles

 Excitation energies and oscillator strengths:

 Excited State   1:      Singlet-A      2.1259 eV  583.22 nm  f=0.2026  <S**2>=0.000
     240 -> 243        0.25437
     241 -> 242        0.64489
 This state for optimization and/or second-order correction.
 Total Energy, E(TD-HF/TD-KS) =  -2932.60332539
 Copying the excited state density for this state as the 1-particle RhoCI density.

 The electronic state is 1-A.
 Alpha  occ. eigenvalues --  -46.83799 -19.27481 -19.25740 -19.22287 -19.20516
 Alpha  occ. eigenvalues --  -19.18956 -14.40828 -14.40347 -14.39112 -14.38608
 Alpha  occ. eigenvalues --  -10.39596 -10.38754 -10.33685 -10.31955 -10.31756
 Alpha  occ. eigenvalues --  -10.31266 -10.30604 -10.30574 -10.30212 -10.30086
 Alpha  occ. eigenvalues --  -10.30083 -10.29626 -10.29329 -10.28958 -10.28716
 Alpha  occ. eigenvalues --  -10.28500 -10.28065 -10.28039 -10.28029 -10.27954
 Alpha  occ. eigenvalues --  -10.27873 -10.27858 -10.27249 -10.26975 -10.26951
 Alpha  occ. eigenvalues --  -10.26937 -10.26599 -10.26542 -10.26426 -10.26341
 Alpha  occ. eigenvalues --  -10.26246 -10.26203 -10.26063 -10.25866 -10.25705
 Alpha  occ. eigenvalues --  -10.25681 -10.25620 -10.25519 -10.25459 -10.25390
 Alpha  occ. eigenvalues --  -10.25295 -10.25242 -10.25228 -10.25142 -10.25131
 Alpha  occ. eigenvalues --  -10.25100 -10.25035 -10.24957 -10.24726 -10.24638
 Alpha  occ. eigenvalues --  -10.24552 -10.24377 -10.24216 -10.22814 -10.20973
 Alpha  occ. eigenvalues --   -3.12863  -1.87570  -1.87093  -1.87056  -1.18710
 Alpha  occ. eigenvalues --   -1.17063  -1.11051  -1.09753  -1.08717  -1.04196
 Alpha  occ. eigenvalues --   -1.02749  -1.02252  -1.00714  -0.92381  -0.92297
 Alpha  occ. eigenvalues --   -0.90816  -0.90179  -0.89324  -0.89028  -0.88741
 Alpha  occ. eigenvalues --   -0.88287  -0.88127  -0.87337  -0.86575  -0.85976
 Alpha  occ. eigenvalues --   -0.84977  -0.83835  -0.83190  -0.82799  -0.81971
 Alpha  occ. eigenvalues --   -0.81668  -0.81008  -0.80753  -0.80254  -0.78682
 Alpha  occ. eigenvalues --   -0.77860  -0.77572  -0.77212  -0.76588  -0.76536
 Alpha  occ. eigenvalues --   -0.76068  -0.75199  -0.74894  -0.73952  -0.73151
 Alpha  occ. eigenvalues --   -0.71406  -0.70612  -0.69974  -0.69654  -0.68314
 Alpha  occ. eigenvalues --   -0.67581  -0.66438  -0.65500  -0.65305  -0.64169
 Alpha  occ. eigenvalues --   -0.64136  -0.63541  -0.63468  -0.62417  -0.61817
 Alpha  occ. eigenvalues --   -0.61764  -0.59997  -0.59667  -0.59298  -0.58729
 Alpha  occ. eigenvalues --   -0.58134  -0.57773  -0.57039  -0.56841  -0.56636
 Alpha  occ. eigenvalues --   -0.55870  -0.55685  -0.55113  -0.54920  -0.54659
 Alpha  occ. eigenvalues --   -0.54601  -0.54255  -0.53685  -0.53528  -0.53025
 Alpha  occ. eigenvalues --   -0.52953  -0.52476  -0.52304  -0.52101  -0.51625
 Alpha  occ. eigenvalues --   -0.51519  -0.51497  -0.51232  -0.50792  -0.50706
 Alpha  occ. eigenvalues --   -0.50541  -0.50201  -0.49680  -0.49501  -0.49373
 Alpha  occ. eigenvalues --   -0.49221  -0.49148  -0.48847  -0.48577  -0.48367
 Alpha  occ. eigenvalues --   -0.48063  -0.47970  -0.47917  -0.47368  -0.47160
 Alpha  occ. eigenvalues --   -0.46928  -0.46852  -0.46541  -0.46347  -0.46216
 Alpha  occ. eigenvalues --   -0.46004  -0.45820  -0.45473  -0.45388  -0.45304
 Alpha  occ. eigenvalues --   -0.44978  -0.44881  -0.44616  -0.44539  -0.44497
 Alpha  occ. eigenvalues --   -0.43964  -0.43771  -0.43597  -0.43521  -0.43182
 Alpha  occ. eigenvalues --   -0.42837  -0.42672  -0.42356  -0.42154  -0.42111
 Alpha  occ. eigenvalues --   -0.41894  -0.41882  -0.41586  -0.41242  -0.41183
 Alpha  occ. eigenvalues --   -0.40976  -0.40903  -0.40563  -0.40527  -0.40402
 Alpha  occ. eigenvalues --   -0.39904  -0.39727  -0.39519  -0.39421  -0.39160
 Alpha  occ. eigenvalues --   -0.38743  -0.38586  -0.38096  -0.37908  -0.37468
 Alpha  occ. eigenvalues --   -0.37366  -0.37221  -0.36932  -0.36615  -0.36416
 Alpha  occ. eigenvalues --   -0.36396  -0.36226  -0.35986  -0.35840  -0.35596
 Alpha  occ. eigenvalues --   -0.35048  -0.34984  -0.34668  -0.34245  -0.33447
 Alpha  occ. eigenvalues --   -0.33204  -0.32829  -0.32568  -0.30859  -0.30708
 Alpha  occ. eigenvalues --   -0.29947  -0.29696  -0.27640  -0.27217  -0.23501
 Alpha  occ. eigenvalues --   -0.21580
 Alpha virt. eigenvalues --   -0.06164  -0.03618   0.01722   0.04646   0.06188
 Alpha virt. eigenvalues --    0.06517   0.06710   0.07321   0.07404   0.08033
 Alpha virt. eigenvalues --    0.08434   0.10856   0.11523   0.11951   0.12218

 Mulliken charges:
               1
     1  Mg   0.818745
     2  C    0.111792
     3  C   -0.225439
     4  C   -0.174980
     5  C   -0.184587
     6  N   -0.687529
     7  C    0.310599
     8  C   -0.135332
     9  C   -0.126372
    10  C    0.351166
    11  C   -0.303626
    12  C   -0.196742
    13  C   -0.249094
    14  C    0.603660
    15  O   -0.476578
    16  O   -0.507711
    17  N   -0.730746
    18  C    0.343937
    19  C   -0.021696
    20  C    0.004102
    21  C    0.366418
    22  C   -0.356154
    23  C   -0.075868
    24  C   -0.253782
    25  N   -0.656410
    26  C    0.294496
    27  C   -0.042708
    28  C    0.054764
    29  C    0.228885
    30  C   -0.366431
    31  C   -0.259416
    32  C   -0.305662
    33  N   -0.739819
    34  C    0.229085
    35  C    0.036996
    36  C    0.070538
    37  C    0.293853
    38  C   -0.368296
    39  C    0.321641
    40  O   -0.479298
    41  C   -0.343353
    42  C    0.636318
    43  O   -0.448606
    44  O   -0.442958
    45  C   -0.111172
    46  C    0.016970
    47  C   -0.137534
    48  C    0.085311
    49  C   -0.350216
    50  C   -0.223760
    51  C   -0.186927
    52  C   -0.168409
    53  C   -0.056779
    54  C   -0.304453
    55  C   -0.172245
    56  C   -0.162539
    57  C   -0.177226
    58  C   -0.056795
    59  C   -0.300990
    60  C   -0.159406
    61  C   -0.184007
    62  C   -0.151723
    63  C   -0.067767
    64  C   -0.298925
    65  C   -0.321586
    66  H    0.078481
    67  H    0.095195
    68  H    0.109821
    69  H    0.127961
    70  H    0.105863
    71  H    0.101952
    72  H    0.085660
    73  H    0.110245
    74  H    0.101718
    75  H    0.114172
    76  H    0.131877
    77  H    0.143025
    78  H    0.128860
    79  H    0.143213
    80  H    0.118964
    81  H    0.082493
    82  H    0.110702
    83  H    0.100463
    84  H    0.131685
    85  H    0.091257
    86  H    0.121302
    87  H    0.097660
    88  H    0.110861
    89  H    0.107636
    90  H    0.132515
    91  H    0.094493
    92  H    0.142311
    93  H    0.139286
    94  H    0.132303
    95  H    0.159186
    96  H    0.134435
    97  H    0.137827
    98  H    0.136902
    99  H    0.132717
   100  H    0.127658
   101  H    0.095518
   102  H    0.114880
   103  H    0.124302
   104  H    0.116943
   105  H    0.097042
   106  H    0.092233
   107  H    0.106499
   108  H    0.099624
   109  H    0.097654
   110  H    0.095164
   111  H    0.068754
   112  H    0.111545
   113  H    0.074692
   114  H    0.103346
   115  H    0.084393
   116  H    0.086035
   117  H    0.093774
   118  H    0.091429
   119  H    0.097048
   120  H    0.045712
   121  H    0.069732
   122  H    0.099609
   123  H    0.101116
   124  H    0.094156
   125  H    0.084730
   126  H    0.082939
   127  H    0.100496
   128  H    0.086141
   129  H    0.073187
   130  H    0.071631
   131  H    0.078254
   132  H    0.120137
   133  H    0.089643
   134  H    0.085622
   135  H    0.095601
   136  H    0.115879
   137  H    0.106215
 Sum of Mulliken charges =   0.00000

 Dipole moment (field-independent basis, Debye):
    X=              1.9957    Y=              3.3757    Z=              0.3452  Tot=              3.9366
 Quadrupole moment (field-independent basis, Debye-Ang):
   XX=           -351.1819   YY=           -385.1924   ZZ=           -395.2885
   XY=            -11.2246   XZ=             13.5378   YZ=             -2.0665

 Normal termination of Gaussian 09 at Sun Jul  7 01:34:32 2019.
