 Gaussian 16, Revision A.03,
 Gaussian 16:  ES64L-G16RevA.03 25-Dec-2016

 ----------------------------------------------------------------------
 # td=(NStates=1) iop(3/107=0140000000,3/108=0140000000) CAM-B3LYP/6-31
 G(d,p)
 ----------------------------------------------------------------------

 --
 TD
 --
 Symbolic Z-matrix:
 Charge =  0 Multiplicity = 1

                         Standard orientation:
 ---------------------------------------------------------------------
 Center     Atomic      Atomic             Coordinates (Angstroms)
 Number     Number       Type             X           Y           Z
 ---------------------------------------------------------------------
      1         12           0       -7.175176    0.571826    0.175489
      2          6           0       -4.857086   -1.982619    0.515972
      3          6           0       -4.755687    2.806575    1.301360
      4          6           0       -9.245792    3.089094   -0.339912
      5          6           0       -9.535206   -1.692823   -0.897015
      6          7           0       -5.097712    0.385237    0.756426
      7          6           0       -4.341046   -0.674521    0.818787
      8          6           0       -2.915703   -0.425923    1.229746
      9          6           0       -3.027858    1.026551    1.742016
     10          6           0       -4.343526    1.462762    1.250078
     11          6           0       -2.983700    1.110536    3.272555
     12          6           0       -1.880597   -0.735764    0.109865
     13          6           0       -0.436592   -0.496503    0.502693
     14          6           0        0.489022   -0.658306   -0.594876
     15          8           0        0.131449   -0.976999   -1.726558
     16          8           0        1.720763   -0.474305   -0.152244
     17          7           0       -6.963029    2.645291    0.352142
     18          6           0       -5.987716    3.355248    0.869380
     19          6           0       -6.233106    4.811605    0.908256
     20          6           0       -7.519321    4.918215    0.351915
     21          6           0       -7.967683    3.537210    0.069301
     22          6           0       -5.211228    5.827492    1.160607
     23          6           0       -8.365755    6.083565    0.195886
     24          6           0       -8.118380    7.293030    0.687004
     25          7           0       -9.087381    0.680927   -0.480593
     26          6           0       -9.823212    1.827454   -0.678533
     27          6           0      -11.049156    1.621316   -1.266926
     28          6           0      -11.251775    0.198791   -1.220061
     29          6           0       -9.898851   -0.379542   -0.879330
     30          6           0      -12.138572    2.688835   -1.556616
     31          6           0      -12.377014   -0.510167   -1.944822
     32          6           0      -12.214386   -1.032135   -3.371245
     33          7           0       -7.233253   -1.390149   -0.210879
     34          6           0       -8.292388   -2.131502   -0.522155
     35          6           0       -7.862792   -3.613216   -0.521877
     36          6           0       -6.634019   -3.562010   -0.020118
     37          6           0       -6.255200   -2.159275    0.186761
     38          6           0       -8.868814   -4.719016   -0.780681
     39          6           0       -5.432872   -4.418132    0.189875
     40          8           0       -5.230207   -5.516198    0.176501
     41          6           0       -4.246088   -3.343081    0.497543
     42          6           0       -3.647893   -3.807201    1.918839
     43          8           0       -3.873010   -3.154371    2.975544
     44          8           0       -2.808256   -4.799874    1.792727
     45          6           0       -2.344293   -5.255388    3.052289
     46          6           0        2.733530   -0.702114   -1.226076
     47          6           0        4.045220   -0.523220   -0.646112
     48          6           0        5.050328    0.231661   -0.973333
     49          6           0        5.041738    1.039783   -2.217820
     50          6           0        6.338482    0.201176   -0.216962
     51          6           0        7.555783   -0.085996   -1.134460
     52          6           0        8.834583   -0.162843   -0.305140
     53          6           0       10.170624   -0.417644   -0.997251
     54          6           0       10.155037   -1.910396   -1.574952
     55          6           0       11.301911   -0.244925   -0.142811
     56          6           0       12.687768   -0.531982   -0.805830
     57          6           0       13.946161   -0.249727    0.122179
     58          6           0       15.296251   -0.306540   -0.515293
     59          6           0       15.694028   -1.766727   -0.829924
     60          6           0       16.421839    0.378584    0.360961
     61          6           0       17.775311    0.526802   -0.195609
     62          6           0       18.755611    1.197024    0.732471
     63          6           0       20.334395    1.373783    0.334519
     64          6           0       20.410578    2.132600   -0.958617
     65          6           0       20.998946    2.153699    1.546512
     66          1           0       -4.113128    3.368119    1.874679
     67          1           0       -9.805329    3.961398   -0.655605
     68          1           0      -10.167171   -2.403649   -1.338305
     69          1           0       -2.730099   -1.049713    2.180092
     70          1           0       -2.278465    1.610198    1.216350
     71          1           0       -1.965300    1.091845    3.670267
     72          1           0       -3.340536    2.116011    3.902678
     73          1           0       -3.632529    0.467238    3.763123
     74          1           0       -2.142748   -1.644471   -0.170705
     75          1           0       -2.092001   -0.158778   -0.699729
     76          1           0       -0.278748    0.617169    0.953998
     77          1           0       -0.104351   -1.108805    1.380491
     78          1           0       -5.414412    6.952541    0.915043
     79          1           0       -5.045754    5.845990    2.382554
     80          1           0       -4.171003    5.543042    0.661771
     81          1           0       -9.293889    5.882616   -0.572028
     82          1           0       -9.091157    8.112604    0.679153
     83          1           0       -7.409134    7.618171    1.372424
     84          1           0      -11.700074    3.434325   -2.195644
     85          1           0      -13.058490    2.305813   -1.617937
     86          1           0      -12.254108    3.342354   -0.647400
     87          1           0      -12.460362   -1.401863   -1.361247
     88          1           0      -13.418441   -0.089078   -1.870826
     89          1           0      -13.026778   -1.711628   -3.642570
     90          1           0      -12.081071   -0.257744   -4.114987
     91          1           0      -11.175030   -1.606192   -3.221609
     92          1           0       -9.420286   -4.608564   -1.656783
     93          1           0       -8.299986   -5.646538   -0.850169
     94          1           0       -9.491565   -4.744635    0.144779
     95          1           0       -3.490185   -3.628396   -0.251086
     96          1           0       -1.870425   -4.582132    3.711430
     97          1           0       -3.133568   -5.849025    3.614310
     98          1           0       -1.655901   -6.023688    2.763674
     99          1           0        2.601075   -1.693976   -1.540658
    100          1           0        2.425047   -0.083296   -2.145064
    101          1           0        4.375034   -1.186005    0.206873
    102          1           0        4.093021    1.148415   -2.718138
    103          1           0        5.439829    2.131738   -2.130148
    104          1           0        5.622385    0.675351   -2.883978
    105          1           0        6.583833    1.110346    0.286905
    106          1           0        6.479617   -0.639426    0.490002
    107          1           0        7.472569   -1.144145   -1.628539
    108          1           0        7.591962    0.676788   -2.087923
    109          1           0        8.987886    0.899031    0.191217
    110          1           0        8.720671   -0.773803    0.595277
    111          1           0       10.326194    0.349037   -1.857609
    112          1           0        9.329757   -1.942845   -2.244290
    113          1           0       11.248099   -2.215275   -2.211243
    114          1           0       10.119644   -2.623717   -0.718693
    115          1           0       11.314374    0.701968    0.193873
    116          1           0       11.257338   -0.824685    0.896193
    117          1           0       12.877879   -1.585942   -1.001549
    118          1           0       12.674234    0.098420   -1.702222
    119          1           0       13.673766    0.642701    0.707777
    120          1           0       13.989364   -1.034118    0.908841
    121          1           0       15.118725    0.271343   -1.376645
    122          1           0       15.711187   -2.350900    0.012730
    123          1           0       15.024325   -2.248207   -1.369972
    124          1           0       16.652919   -1.977841   -1.258899
    125          1           0       16.231519    1.536471    0.692546
    126          1           0       16.524030   -0.231432    1.332940
    127          1           0       18.196623   -0.440523   -0.390188
    128          1           0       17.726539    1.009312   -1.172104
    129          1           0       18.372991    2.395057    0.870483
    130          1           0       18.736403    0.835267    1.743106
    131          1           0       20.669290    0.369047    0.114110
    132          1           0       20.253897    3.266833   -1.058986
    133          1           0       21.457826    2.227587   -1.190702
    134          1           0       19.733873    1.722097   -1.580217
    135          1           0       20.898617    1.593039    2.596485
    136          1           0       21.898129    2.233763    1.283229
    137          1           0       20.604343    3.245998    1.713619
 ---------------------------------------------------------------------

 SCF Done:  E(RCAM-B3LYP) =  -2933.54352366     A.U. after   16 cycles

 Excitation energies and oscillator strengths:

 Excited State   1:      Singlet-A      2.0915 eV  592.81 nm  f=0.2141  <S**2>=0.000
     240 -> 243        0.27303
     241 -> 242        0.64873
 This state for optimization and/or second-order correction.
 Total Energy, E(TD-HF/TD-DFT) =  -2933.46666393
 Copying the excited state density for this state as the 1-particle RhoCI density.

 The electronic state is 1-A.
 Alpha  occ. eigenvalues --  -46.80143 -19.23955 -19.22474 -19.17495 -19.16186
 Alpha  occ. eigenvalues --  -19.15923 -14.37247 -14.35140 -14.34990 -14.34327
 Alpha  occ. eigenvalues --  -10.34535 -10.33773 -10.30466 -10.27733 -10.26731
 Alpha  occ. eigenvalues --  -10.25950 -10.25435 -10.24647 -10.24585 -10.24534
 Alpha  occ. eigenvalues --  -10.24316 -10.24269 -10.24108 -10.23698 -10.23626
 Alpha  occ. eigenvalues --  -10.23625 -10.23623 -10.23478 -10.23461 -10.22922
 Alpha  occ. eigenvalues --  -10.22703 -10.22639 -10.22484 -10.22357 -10.22349
 Alpha  occ. eigenvalues --  -10.22335 -10.22283 -10.22242 -10.22225 -10.22195
 Alpha  occ. eigenvalues --  -10.22139 -10.21957 -10.21916 -10.21830 -10.21810
 Alpha  occ. eigenvalues --  -10.21797 -10.21511 -10.21347 -10.21284 -10.21269
 Alpha  occ. eigenvalues --  -10.21237 -10.21198 -10.21120 -10.21002 -10.20697
 Alpha  occ. eigenvalues --  -10.20681 -10.20567 -10.20462 -10.20397 -10.20383
 Alpha  occ. eigenvalues --  -10.20245 -10.20228 -10.19803 -10.19146 -10.18302
 Alpha  occ. eigenvalues --   -3.08716  -1.83657  -1.83184  -1.83122  -1.15065
 Alpha  occ. eigenvalues --   -1.13335  -1.13014  -1.03825  -1.02220  -1.00605
 Alpha  occ. eigenvalues --   -0.99508  -0.98694  -0.96282  -0.87576  -0.86137
 Alpha  occ. eigenvalues --   -0.85994  -0.85192  -0.84769  -0.83728  -0.83394
 Alpha  occ. eigenvalues --   -0.82916  -0.82773  -0.82161  -0.81940  -0.81599
 Alpha  occ. eigenvalues --   -0.80491  -0.79348  -0.78711  -0.78481  -0.77561
 Alpha  occ. eigenvalues --   -0.77402  -0.76744  -0.75519  -0.75131  -0.73986
 Alpha  occ. eigenvalues --   -0.72688  -0.72337  -0.71855  -0.71676  -0.71324
 Alpha  occ. eigenvalues --   -0.71157  -0.70443  -0.69706  -0.69290  -0.67765
 Alpha  occ. eigenvalues --   -0.67421  -0.66350  -0.65536  -0.64326  -0.63565
 Alpha  occ. eigenvalues --   -0.62469  -0.61985  -0.60889  -0.60735  -0.60265
 Alpha  occ. eigenvalues --   -0.59862  -0.59187  -0.59137  -0.58927  -0.58287
 Alpha  occ. eigenvalues --   -0.58043  -0.56660  -0.55991  -0.55520  -0.55130
 Alpha  occ. eigenvalues --   -0.54677  -0.53560  -0.53469  -0.53211  -0.52865
 Alpha  occ. eigenvalues --   -0.52408  -0.51745  -0.51465  -0.51222  -0.51140
 Alpha  occ. eigenvalues --   -0.50909  -0.50602  -0.50406  -0.50045  -0.49618
 Alpha  occ. eigenvalues --   -0.49233  -0.49164  -0.48939  -0.48629  -0.47856
 Alpha  occ. eigenvalues --   -0.47829  -0.47747  -0.47500  -0.47249  -0.47053
 Alpha  occ. eigenvalues --   -0.46880  -0.46594  -0.46316  -0.46157  -0.45832
 Alpha  occ. eigenvalues --   -0.45782  -0.45715  -0.45452  -0.44931  -0.44862
 Alpha  occ. eigenvalues --   -0.44697  -0.44577  -0.44293  -0.43958  -0.43709
 Alpha  occ. eigenvalues --   -0.43622  -0.43318  -0.43028  -0.42902  -0.42672
 Alpha  occ. eigenvalues --   -0.42449  -0.42259  -0.42197  -0.41928  -0.41663
 Alpha  occ. eigenvalues --   -0.41447  -0.41220  -0.41109  -0.41006  -0.40959
 Alpha  occ. eigenvalues --   -0.40779  -0.40340  -0.40251  -0.40056  -0.39937
 Alpha  occ. eigenvalues --   -0.39824  -0.39645  -0.39544  -0.39421  -0.39209
 Alpha  occ. eigenvalues --   -0.38837  -0.38745  -0.38529  -0.38353  -0.38041
 Alpha  occ. eigenvalues --   -0.37846  -0.37616  -0.37544  -0.37420  -0.37048
 Alpha  occ. eigenvalues --   -0.36796  -0.36551  -0.36383  -0.36253  -0.36072
 Alpha  occ. eigenvalues --   -0.35674  -0.35047  -0.34838  -0.34714  -0.34380
 Alpha  occ. eigenvalues --   -0.34360  -0.34036  -0.33841  -0.33722  -0.33370
 Alpha  occ. eigenvalues --   -0.33287  -0.33192  -0.33082  -0.32842  -0.32734
 Alpha  occ. eigenvalues --   -0.32445  -0.32383  -0.32045  -0.30778  -0.30546
 Alpha  occ. eigenvalues --   -0.30266  -0.29588  -0.29002  -0.28277  -0.28118
 Alpha  occ. eigenvalues --   -0.27430  -0.26561  -0.24804  -0.24280  -0.21008
 Alpha  occ. eigenvalues --   -0.19211
 Alpha virt. eigenvalues --   -0.05829  -0.03665   0.00733   0.02450   0.03966
 Alpha virt. eigenvalues --    0.04017   0.04279   0.04426   0.05303   0.06065
 Alpha virt. eigenvalues --    0.06738   0.09166   0.09313   0.09559   0.09987

 Mulliken charges:
               1
     1  Mg   0.823014
     2  C    0.076756
     3  C   -0.179255
     4  C   -0.184057
     5  C   -0.159479
     6  N   -0.621008
     7  C    0.337947
     8  C   -0.177112
     9  C   -0.143932
    10  C    0.302426
    11  C   -0.314430
    12  C   -0.141038
    13  C   -0.286045
    14  C    0.647781
    15  O   -0.501940
    16  O   -0.468034
    17  N   -0.676951
    18  C    0.307800
    19  C    0.055025
    20  C    0.028729
    21  C    0.274931
    22  C   -0.380523
    23  C   -0.056266
    24  C   -0.251887
    25  N   -0.709417
    26  C    0.335384
    27  C    0.026595
    28  C   -0.033872
    29  C    0.300550
    30  C   -0.361420
    31  C   -0.246874
    32  C   -0.289672
    33  N   -0.705855
    34  C    0.267996
    35  C    0.000758
    36  C   -0.018181
    37  C    0.290952
    38  C   -0.372368
    39  C    0.357193
    40  O   -0.366267
    41  C   -0.367031
    42  C    0.603031
    43  O   -0.504818
    44  O   -0.395478
    45  C   -0.103853
    46  C   -0.003851
    47  C   -0.136567
    48  C    0.172919
    49  C   -0.378847
    50  C   -0.233904
    51  C   -0.179241
    52  C   -0.169100
    53  C   -0.049170
    54  C   -0.294224
    55  C   -0.154308
    56  C   -0.179785
    57  C   -0.192264
    58  C   -0.048675
    59  C   -0.332262
    60  C   -0.156191
    61  C   -0.171355
    62  C   -0.156386
    63  C   -0.068080
    64  C   -0.301015
    65  C   -0.293743
    66  H    0.068215
    67  H    0.053224
    68  H    0.078864
    69  H    0.125897
    70  H    0.106520
    71  H    0.111484
    72  H    0.074769
    73  H    0.144145
    74  H    0.124141
    75  H    0.124770
    76  H    0.116019
    77  H    0.135571
    78  H    0.118095
    79  H    0.096008
    80  H    0.116852
    81  H    0.083711
    82  H    0.066487
    83  H    0.111345
    84  H    0.126091
    85  H    0.121849
    86  H    0.113115
    87  H    0.106349
    88  H    0.090479
    89  H    0.106956
    90  H    0.115470
    91  H    0.080778
    92  H    0.131175
    93  H    0.134789
    94  H    0.139681
    95  H    0.147489
    96  H    0.144429
    97  H    0.125246
    98  H    0.120490
    99  H    0.140255
   100  H    0.128325
   101  H    0.078257
   102  H    0.107203
   103  H    0.093916
   104  H    0.144283
   105  H    0.118127
   106  H    0.102367
   107  H    0.087640
   108  H    0.076231
   109  H    0.066373
   110  H    0.096907
   111  H    0.073130
   112  H    0.107049
   113  H    0.063178
   114  H    0.103725
   115  H    0.098724
   116  H    0.060565
   117  H    0.103476
   118  H    0.087083
   119  H    0.085650
   120  H    0.079888
   121  H    0.088180
   122  H    0.108597
   123  H    0.111007
   124  H    0.104299
   125  H    0.062285
   126  H    0.074341
   127  H    0.089362
   128  H    0.094000
   129  H    0.039196
   130  H    0.088515
   131  H    0.095651
   132  H    0.085810
   133  H    0.097778
   134  H    0.112995
   135  H    0.082718
   136  H    0.112626
   137  H    0.096032
 Sum of Mulliken charges =  -0.00000

 Dipole moment (field-independent basis, Debye):
    X=              3.7305    Y=              1.0920    Z=              0.6993  Tot=              3.9495
 Quadrupole moment (field-independent basis, Debye-Ang):
   XX=           -355.4878   YY=           -389.0642   ZZ=           -396.7881
   XY=             -7.9665   XZ=              3.1185   YZ=             -2.7980

 Normal termination of Gaussian 16 at Tue Sep  3 23:31:30 2019.
