 Gaussian 09, Revision D.01,
 Gaussian 09:  ES64L-G09RevD.01 24-Apr-2013

 -------------------------------------
 # td=(NStates=1) CAM-B3LYP/6-31G(d,p)
 -------------------------------------

 --
 TD
 --
 Symbolic Z-matrix:
 Charge =  0 Multiplicity = 1

                         Standard orientation:
 ---------------------------------------------------------------------
 Center     Atomic      Atomic             Coordinates (Angstroms)
 Number     Number       Type             X           Y           Z
 ---------------------------------------------------------------------
      1         12           0       -7.175382    0.518062    0.078329
      2          6           0       -4.808242   -1.861175    0.495656
      3          6           0       -4.817309    2.840251    1.161835
      4          6           0       -9.413508    3.140747   -0.470101
      5          6           0       -9.507390   -1.775550   -0.889286
      6          7           0       -5.130953    0.419904    0.702450
      7          6           0       -4.313600   -0.665641    0.823233
      8          6           0       -2.976650   -0.404448    1.204515
      9          6           0       -3.157563    1.141139    1.706481
     10          6           0       -4.514328    1.533499    1.149505
     11          6           0       -2.995637    1.438991    3.210092
     12          6           0       -1.915290   -0.528517    0.133035
     13          6           0       -0.422249   -0.326986    0.496444
     14          6           0        0.432596   -0.608648   -0.617207
     15          8           0        0.118501   -0.956393   -1.751052
     16          8           0        1.789382   -0.533153   -0.289305
     17          7           0       -7.043442    2.641879    0.215542
     18          6           0       -6.004461    3.389737    0.679710
     19          6           0       -6.480333    4.745258    0.720212
     20          6           0       -7.733902    4.896845    0.296970
     21          6           0       -8.076121    3.444858   -0.045373
     22          6           0       -5.573929    5.877658    1.172353
     23          6           0       -8.700543    6.040839    0.046439
     24          6           0       -8.505564    7.143301    0.900901
     25          7           0       -9.091322    0.699886   -0.534666
     26          6           0       -9.845103    1.774345   -0.635701
     27          6           0      -11.171089    1.416546   -1.175792
     28          6           0      -11.172441    0.000582   -1.110923
     29          6           0       -9.899581   -0.425995   -0.863985
     30          6           0      -12.162236    2.302877   -1.607194
     31          6           0      -12.293604   -0.876668   -1.593403
     32          6           0      -12.293113   -1.224154   -3.049116
     33          7           0       -7.206309   -1.400464   -0.062164
     34          6           0       -8.271012   -2.277811   -0.374780
     35          6           0       -7.827997   -3.675453   -0.408966
     36          6           0       -6.506236   -3.548619   -0.027052
     37          6           0       -6.130987   -2.165370    0.119714
     38          6           0       -8.586517   -4.852930   -0.791400
     39          6           0       -5.298757   -4.371803    0.220810
     40          8           0       -5.096573   -5.585374    0.271846
     41          6           0       -4.139796   -3.287123    0.534491
     42          6           0       -3.591169   -3.576259    1.944968
     43          8           0       -3.874210   -3.083909    2.964724
     44          8           0       -2.677796   -4.541244    1.913744
     45          6           0       -2.175565   -5.127709    3.060779
     46          6           0        2.795953   -0.730561   -1.343022
     47          6           0        4.134738   -0.463709   -0.612054
     48          6           0        5.159506    0.265749   -1.191040
     49          6           0        5.088220    1.088850   -2.431831
     50          6           0        6.408407    0.346836   -0.358344
     51          6           0        7.662294   -0.124881   -1.109732
     52          6           0        8.945547   -0.082885   -0.308757
     53          6           0       10.204344   -0.539164   -0.956448
     54          6           0       10.093505   -1.967832   -1.435190
     55          6           0       11.431741   -0.278723   -0.109450
     56          6           0       12.869391   -0.417443   -0.718167
     57          6           0       14.026282   -0.093610    0.296193
     58          6           0       15.343033   -0.207506   -0.403082
     59          6           0       15.701481   -1.616804   -0.926694
     60          6           0       16.475514    0.321132    0.482803
     61          6           0       17.830311    0.488510   -0.151375
     62          6           0       18.740968    1.232607    0.787853
     63          6           0       20.229344    1.277236    0.390148
     64          6           0       20.356602    2.124528   -0.934793
     65          6           0       21.126811    1.982809    1.517193
     66          1           0       -4.010712    3.478041    1.772917
     67          1           0      -10.551080    3.810345   -0.638561
     68          1           0      -10.244706   -2.546819   -0.970162
     69          1           0       -2.500429   -0.975896    1.915429
     70          1           0       -2.541722    1.830281    1.075974
     71          1           0       -1.875751    1.340235    3.624059
     72          1           0       -3.166311    2.447083    3.418961
     73          1           0       -3.799446    0.833923    3.766322
     74          1           0       -1.731754   -1.615967   -0.287763
     75          1           0       -2.094724    0.265954   -0.650965
     76          1           0       -0.197537    0.699853    0.937201
     77          1           0       -0.270675   -1.128252    1.196252
     78          1           0       -5.669836    6.825606    0.709220
     79          1           0       -5.655809    6.061501    2.250784
     80          1           0       -4.606665    5.487037    0.730667
     81          1           0       -9.303292    6.034023   -0.787795
     82          1           0       -9.213343    8.116956    0.984314
     83          1           0       -7.764361    7.201818    1.587571
     84          1           0      -11.805389    2.868843   -2.415978
     85          1           0      -13.063763    2.019113   -2.069016
     86          1           0      -12.362337    2.939792   -0.655382
     87          1           0      -12.196341   -1.671214   -1.039692
     88          1           0      -13.349998   -0.143173   -1.506460
     89          1           0      -13.161905   -1.954084   -3.335606
     90          1           0      -12.207014   -0.311254   -3.696826
     91          1           0      -11.445371   -1.742128   -3.239256
     92          1           0       -8.874778   -4.761992   -1.792455
     93          1           0       -8.145428   -5.725967   -0.568902
     94          1           0       -9.642897   -4.866076   -0.249033
     95          1           0       -3.255049   -3.500138   -0.187040
     96          1           0       -1.883234   -4.274569    3.785494
     97          1           0       -2.875187   -5.590922    3.566186
     98          1           0       -1.476568   -5.759814    2.721296
     99          1           0        2.696747   -1.773398   -1.708469
    100          1           0        2.623908   -0.054864   -2.193896
    101          1           0        4.300029   -0.993690    0.325013
    102          1           0        4.128406    1.234422   -2.954384
    103          1           0        5.453793    2.147937   -2.187795
    104          1           0        5.663777    0.622854   -3.303842
    105          1           0        6.617953    1.224759    0.058254
    106          1           0        6.464210   -0.263728    0.623687
    107          1           0        7.295937   -0.998587   -1.395820
    108          1           0        7.633345    0.736106   -1.942928
    109          1           0        8.940793    1.002853    0.151069
    110          1           0        8.673009   -0.690328    0.701249
    111          1           0       10.202378    0.071609   -1.798523
    112          1           0        9.152014   -2.141375   -1.940913
    113          1           0       10.946781   -2.400551   -1.983929
    114          1           0       10.072981   -2.715503   -0.452635
    115          1           0       11.314430    0.615806    0.552801
    116          1           0       11.249438   -1.083990    0.712931
    117          1           0       12.928782   -1.317087   -1.184262
    118          1           0       13.192501    0.336074   -1.621618
    119          1           0       13.923516    0.981251    0.472799
    120          1           0       13.976218   -0.964101    1.017343
    121          1           0       15.374003    0.607054   -1.336788
    122          1           0       15.418404   -2.520979   -0.164104
    123          1           0       15.108890   -1.819141   -1.773806
    124          1           0       16.663089   -1.619568   -1.412015
    125          1           0       15.996435    1.328250    0.878047
    126          1           0       16.748487   -0.320161    1.331310
    127          1           0       17.991818   -0.529229   -0.387183
    128          1           0       17.755236    0.988196   -1.238548
    129          1           0       18.323591    2.232421    1.178253
    130          1           0       18.812329    0.590463    1.678593
    131          1           0       20.577400    0.176309    0.056212
    132          1           0       19.846308    3.190593   -0.863468
    133          1           0       21.391401    2.329215   -0.984721
    134          1           0       20.076484    1.551843   -1.983426
    135          1           0       21.258490    1.303220    2.487056
    136          1           0       22.051596    2.109919    1.321578
    137          1           0       20.784232    3.077891    1.834944
 ---------------------------------------------------------------------

 SCF Done:  E(RCAM-B3LYP) =  -2932.62774046     A.U. after   17 cycles

 Excitation energies and oscillator strengths:

 Excited State   1:      Singlet-A      2.0784 eV  596.55 nm  f=0.2284  <S**2>=0.000
     240 -> 243        0.24477
     241 -> 242        0.64597
 This state for optimization and/or second-order correction.
 Total Energy, E(TD-HF/TD-KS) =  -2932.55136197
 Copying the excited state density for this state as the 1-particle RhoCI density.

 The electronic state is 1-A.
 Alpha  occ. eigenvalues --  -46.83759 -19.24644 -19.24230 -19.20751 -19.20294
 Alpha  occ. eigenvalues --  -19.19931 -14.41361 -14.40035 -14.39436 -14.38840
 Alpha  occ. eigenvalues --  -10.39000 -10.37890 -10.35277 -10.31879 -10.30655
 Alpha  occ. eigenvalues --  -10.30561 -10.30478 -10.29674 -10.29351 -10.29141
 Alpha  occ. eigenvalues --  -10.28915 -10.28876 -10.28810 -10.28770 -10.28741
 Alpha  occ. eigenvalues --  -10.28283 -10.28100 -10.28030 -10.28019 -10.28016
 Alpha  occ. eigenvalues --  -10.27996 -10.27956 -10.27929 -10.27701 -10.27350
 Alpha  occ. eigenvalues --  -10.27288 -10.27157 -10.26855 -10.26784 -10.26675
 Alpha  occ. eigenvalues --  -10.26611 -10.26574 -10.26354 -10.26243 -10.26153
 Alpha  occ. eigenvalues --  -10.25814 -10.25690 -10.25608 -10.25603 -10.25601
 Alpha  occ. eigenvalues --  -10.25576 -10.25491 -10.25479 -10.25473 -10.25440
 Alpha  occ. eigenvalues --  -10.25338 -10.25187 -10.25172 -10.25123 -10.24932
 Alpha  occ. eigenvalues --  -10.24863 -10.24859 -10.24827 -10.24805 -10.24723
 Alpha  occ. eigenvalues --   -3.12978  -1.87674  -1.87206  -1.87181  -1.19455
 Alpha  occ. eigenvalues --   -1.15836  -1.10027  -1.09793  -1.07385  -1.05357
 Alpha  occ. eigenvalues --   -1.04446  -1.03481  -1.02590  -0.92030  -0.91694
 Alpha  occ. eigenvalues --   -0.90780  -0.90623  -0.89591  -0.89534  -0.88991
 Alpha  occ. eigenvalues --   -0.88689  -0.88163  -0.87859  -0.87706  -0.86426
 Alpha  occ. eigenvalues --   -0.85151  -0.84571  -0.84136  -0.83300  -0.82813
 Alpha  occ. eigenvalues --   -0.81953  -0.81195  -0.80731  -0.79960  -0.79180
 Alpha  occ. eigenvalues --   -0.78313  -0.77163  -0.76529  -0.76030  -0.75551
 Alpha  occ. eigenvalues --   -0.75209  -0.75085  -0.74108  -0.73491  -0.72710
 Alpha  occ. eigenvalues --   -0.71449  -0.70673  -0.69832  -0.69239  -0.68295
 Alpha  occ. eigenvalues --   -0.67385  -0.66536  -0.65782  -0.65062  -0.64361
 Alpha  occ. eigenvalues --   -0.63963  -0.63181  -0.62128  -0.61850  -0.61811
 Alpha  occ. eigenvalues --   -0.61057  -0.60608  -0.60389  -0.60305  -0.59735
 Alpha  occ. eigenvalues --   -0.58893  -0.58350  -0.57680  -0.57331  -0.56776
 Alpha  occ. eigenvalues --   -0.56456  -0.55713  -0.55595  -0.55191  -0.54900
 Alpha  occ. eigenvalues --   -0.54846  -0.54548  -0.53848  -0.53358  -0.53138
 Alpha  occ. eigenvalues --   -0.52859  -0.52487  -0.52329  -0.52044  -0.51840
 Alpha  occ. eigenvalues --   -0.51419  -0.51338  -0.51232  -0.51087  -0.50809
 Alpha  occ. eigenvalues --   -0.50749  -0.50406  -0.50245  -0.50057  -0.49618
 Alpha  occ. eigenvalues --   -0.49281  -0.48975  -0.48793  -0.48624  -0.48458
 Alpha  occ. eigenvalues --   -0.48257  -0.48006  -0.47999  -0.47657  -0.47301
 Alpha  occ. eigenvalues --   -0.47080  -0.46768  -0.46614  -0.46489  -0.46248
 Alpha  occ. eigenvalues --   -0.46098  -0.45853  -0.45662  -0.45593  -0.45149
 Alpha  occ. eigenvalues --   -0.44894  -0.44651  -0.44594  -0.44196  -0.43824
 Alpha  occ. eigenvalues --   -0.43488  -0.43372  -0.43279  -0.43251  -0.43059
 Alpha  occ. eigenvalues --   -0.42840  -0.42648  -0.42507  -0.42303  -0.42121
 Alpha  occ. eigenvalues --   -0.42083  -0.41705  -0.41579  -0.41473  -0.41199
 Alpha  occ. eigenvalues --   -0.41170  -0.41150  -0.40716  -0.40395  -0.39868
 Alpha  occ. eigenvalues --   -0.39515  -0.39444  -0.39135  -0.39057  -0.38912
 Alpha  occ. eigenvalues --   -0.38897  -0.38130  -0.37821  -0.37665  -0.37477
 Alpha  occ. eigenvalues --   -0.37332  -0.37104  -0.36965  -0.36672  -0.36475
 Alpha  occ. eigenvalues --   -0.35802  -0.35563  -0.35521  -0.35311  -0.35279
 Alpha  occ. eigenvalues --   -0.35043  -0.34998  -0.34752  -0.34038  -0.33377
 Alpha  occ. eigenvalues --   -0.33163  -0.32990  -0.32269  -0.31284  -0.29836
 Alpha  occ. eigenvalues --   -0.29676  -0.29333  -0.28196  -0.27115  -0.23442
 Alpha  occ. eigenvalues --   -0.21169
 Alpha virt. eigenvalues --   -0.06202  -0.03333   0.01675   0.03280   0.05332
 Alpha virt. eigenvalues --    0.05934   0.06158   0.06513   0.06955   0.08086
 Alpha virt. eigenvalues --    0.08672   0.09656   0.10482   0.11322   0.11434

 Mulliken charges:
               1
     1  Mg   0.827569
     2  C    0.063450
     3  C   -0.219107
     4  C   -0.161137
     5  C   -0.157206
     6  N   -0.681910
     7  C    0.377362
     8  C   -0.139265
     9  C   -0.183938
    10  C    0.392271
    11  C   -0.302852
    12  C   -0.173733
    13  C   -0.280411
    14  C    0.622322
    15  O   -0.477607
    16  O   -0.516122
    17  N   -0.687815
    18  C    0.350152
    19  C   -0.046779
    20  C    0.035074
    21  C    0.261068
    22  C   -0.371067
    23  C   -0.066576
    24  C   -0.228043
    25  N   -0.703731
    26  C    0.307848
    27  C    0.027343
    28  C   -0.014510
    29  C    0.304538
    30  C   -0.405816
    31  C   -0.193698
    32  C   -0.293181
    33  N   -0.748797
    34  C    0.205241
    35  C    0.060563
    36  C   -0.022480
    37  C    0.306516
    38  C   -0.375394
    39  C    0.376617
    40  O   -0.470644
    41  C   -0.341399
    42  C    0.598995
    43  O   -0.451961
    44  O   -0.444984
    45  C   -0.067178
    46  C    0.026980
    47  C   -0.133128
    48  C    0.128339
    49  C   -0.377050
    50  C   -0.242999
    51  C   -0.166915
    52  C   -0.170530
    53  C   -0.038284
    54  C   -0.307804
    55  C   -0.175075
    56  C   -0.175649
    57  C   -0.157527
    58  C   -0.055576
    59  C   -0.321805
    60  C   -0.155856
    61  C   -0.172745
    62  C   -0.147361
    63  C   -0.058003
    64  C   -0.295489
    65  C   -0.308078
    66  H    0.099719
    67  H    0.094012
    68  H    0.094568
    69  H    0.117212
    70  H    0.103752
    71  H    0.094662
    72  H    0.119391
    73  H    0.125331
    74  H    0.112860
    75  H    0.106288
    76  H    0.138270
    77  H    0.150987
    78  H    0.124133
    79  H    0.121218
    80  H    0.105194
    81  H    0.117481
    82  H    0.091723
    83  H    0.115690
    84  H    0.135277
    85  H    0.122147
    86  H    0.114442
    87  H    0.102662
    88  H    0.062323
    89  H    0.091113
    90  H    0.100844
    91  H    0.114760
    92  H    0.142309
    93  H    0.153214
    94  H    0.104321
    95  H    0.151029
    96  H    0.101920
    97  H    0.132581
    98  H    0.125052
    99  H    0.126507
   100  H    0.119049
   101  H    0.104585
   102  H    0.118888
   103  H    0.116456
   104  H    0.124075
   105  H    0.108633
   106  H    0.079742
   107  H    0.112883
   108  H    0.073445
   109  H    0.078477
   110  H    0.058098
   111  H    0.100393
   112  H    0.113122
   113  H    0.108065
   114  H    0.064476
   115  H    0.086028
   116  H    0.073821
   117  H    0.105692
   118  H    0.056641
   119  H    0.106885
   120  H    0.097802
   121  H    0.053962
   122  H    0.085722
   123  H    0.110759
   124  H    0.109958
   125  H    0.057172
   126  H    0.088554
   127  H    0.103035
   128  H    0.066049
   129  H    0.091391
   130  H    0.089379
   131  H    0.077298
   132  H    0.085573
   133  H    0.104341
   134  H    0.081329
   135  H    0.080644
   136  H    0.120617
   137  H    0.088934
 Sum of Mulliken charges =   0.00000

 Dipole moment (field-independent basis, Debye):
    X=              0.8943    Y=              4.7173    Z=             -0.0284  Tot=              4.8014
 Quadrupole moment (field-independent basis, Debye-Ang):
   XX=           -337.9252   YY=           -388.3872   ZZ=           -396.5449
   XY=            -27.9323   XZ=             12.0456   YZ=              2.2855

 Normal termination of Gaussian 09 at Sat Jul  6 07:34:29 2019.
