 Gaussian 16, Revision A.03,
 Gaussian 16:  ES64L-G16RevA.03 25-Dec-2016

 ----------------------------------------------------------------------
 # td=(NStates=1) iop(3/107=0140000000,3/108=0140000000) CAM-B3LYP/6-31
 G(d,p)
 ----------------------------------------------------------------------

 --
 TD
 --
 Symbolic Z-matrix:
 Charge =  0 Multiplicity = 1

                         Standard orientation:
 ---------------------------------------------------------------------
 Center     Atomic      Atomic             Coordinates (Angstroms)
 Number     Number       Type             X           Y           Z
 ---------------------------------------------------------------------
      1         12           0       -7.106224    0.616632    0.069648
      2          6           0       -4.817093   -1.908249    0.509061
      3          6           0       -4.717375    2.814433    1.229830
      4          6           0       -9.402101    3.096658   -0.353963
      5          6           0       -9.502109   -1.723991   -1.001636
      6          7           0       -5.148225    0.439729    0.860826
      7          6           0       -4.382939   -0.654868    0.860160
      8          6           0       -2.960026   -0.504080    1.241346
      9          6           0       -3.065121    1.009856    1.712893
     10          6           0       -4.365302    1.495846    1.207727
     11          6           0       -3.077809    1.175918    3.358078
     12          6           0       -1.997125   -0.640860    0.106852
     13          6           0       -0.548441   -0.403779    0.506941
     14          6           0        0.467782   -0.721881   -0.597208
     15          8           0        0.164821   -1.050247   -1.677442
     16          8           0        1.706801   -0.422220   -0.283629
     17          7           0       -7.040619    2.598180    0.455575
     18          6           0       -6.056525    3.501536    0.803122
     19          6           0       -6.231674    4.784607    0.764763
     20          6           0       -7.611558    4.885243    0.381877
     21          6           0       -8.099949    3.470211    0.105181
     22          6           0       -5.322589    5.980301    0.874056
     23          6           0       -8.385067    6.039610    0.064133
     24          6           0       -8.242675    7.267489    0.669351
     25          7           0       -9.023218    0.711253   -0.548665
     26          6           0       -9.875865    1.812923   -0.665719
     27          6           0      -11.177439    1.508830   -1.176631
     28          6           0      -11.240485    0.132303   -1.331680
     29          6           0       -9.915520   -0.378219   -0.900021
     30          6           0      -12.272560    2.434252   -1.418882
     31          6           0      -12.348292   -0.697557   -1.712231
     32          6           0      -12.270640   -1.220252   -3.223893
     33          7           0       -7.166145   -1.383408   -0.219469
     34          6           0       -8.200607   -2.192284   -0.685077
     35          6           0       -7.809929   -3.601444   -0.645522
     36          6           0       -6.495079   -3.569419   -0.143514
     37          6           0       -6.171997   -2.255906    0.097641
     38          6           0       -8.656143   -4.820535   -0.938679
     39          6           0       -5.400789   -4.385631    0.201781
     40          8           0       -5.161677   -5.584923    0.195849
     41          6           0       -4.182202   -3.336835    0.590572
     42          6           0       -3.569448   -3.607935    1.955606
     43          8           0       -3.804283   -3.075068    3.006644
     44          8           0       -2.776378   -4.705589    1.820388
     45          6           0       -2.182897   -5.168338    3.076575
     46          6           0        2.758864   -0.658539   -1.171537
     47          6           0        4.137339   -0.453727   -0.496947
     48          6           0        5.104344    0.353448   -0.879119
     49          6           0        5.010709    1.225840   -2.119900
     50          6           0        6.397717    0.322280   -0.099979
     51          6           0        7.551617   -0.167798   -0.804351
     52          6           0        8.817648   -0.126267   -0.059464
     53          6           0       10.117518   -0.514091   -0.864773
     54          6           0       10.023677   -1.959474   -1.468816
     55          6           0       11.439876   -0.263267    0.001937
     56          6           0       12.745265   -0.459688   -0.722598
     57          6           0       13.992040   -0.151543    0.076478
     58          6           0       15.350225   -0.208596   -0.549101
     59          6           0       15.647350   -1.692221   -1.037869
     60          6           0       16.323996    0.331026    0.371429
     61          6           0       17.861165    0.556721   -0.196358
     62          6           0       18.759636    1.289674    0.760415
     63          6           0       20.294370    1.377752    0.228691
     64          6           0       20.501738    2.133745   -1.030825
     65          6           0       21.154296    1.824080    1.332561
     66          1           0       -4.194162    3.622158    1.743094
     67          1           0      -10.170422    3.926660   -0.464049
     68          1           0      -10.136433   -2.591490   -1.154082
     69          1           0       -2.735462   -1.184967    1.958541
     70          1           0       -2.408987    1.695201    1.280311
     71          1           0       -2.112174    1.045957    3.950740
     72          1           0       -3.370429    2.279885    3.683774
     73          1           0       -3.828185    0.632099    3.734644
     74          1           0       -2.323544   -1.606791   -0.102914
     75          1           0       -2.345551   -0.044458   -0.691861
     76          1           0       -0.358943    0.719812    0.822962
     77          1           0       -0.358631   -1.180687    1.373194
     78          1           0       -5.958444    6.606609    0.126783
     79          1           0       -5.217882    6.232319    1.879975
     80          1           0       -4.240379    5.895579    0.509683
     81          1           0       -9.249141    6.003491   -0.662926
     82          1           0       -9.012434    8.171007    0.604150
     83          1           0       -7.669957    7.378317    1.738203
     84          1           0      -11.883924    3.262075   -2.057067
     85          1           0      -13.011628    1.889241   -1.930688
     86          1           0      -12.734339    2.891646   -0.498829
     87          1           0      -12.374761   -1.519702   -1.003615
     88          1           0      -13.311674   -0.112289   -1.491412
     89          1           0      -13.179552   -1.995443   -3.248797
     90          1           0      -12.212513   -0.522747   -3.978932
     91          1           0      -11.264171   -1.868440   -3.377738
     92          1           0       -8.488185   -5.074199   -2.262676
     93          1           0       -8.212807   -5.666721   -0.319665
     94          1           0       -9.719137   -4.649890   -0.800668
     95          1           0       -3.285188   -3.400113   -0.163148
     96          1           0       -1.390246   -4.576951    3.399792
     97          1           0       -2.992127   -5.401390    4.054992
     98          1           0       -1.665949   -6.158786    2.845439
     99          1           0        2.579824   -1.802933   -1.580930
    100          1           0        2.658608    0.040905   -2.029660
    101          1           0        4.331939   -1.084522    0.451376
    102          1           0        3.997540    1.093304   -2.641092
    103          1           0        5.235695    2.312740   -1.854897
    104          1           0        5.536163    0.838570   -3.162709
    105          1           0        6.455674    1.215643    0.383111
    106          1           0        6.174583   -0.497917    0.640910
    107          1           0        7.388047   -1.198034   -1.030188
    108          1           0        7.478596    0.195162   -1.923535
    109          1           0        9.174131    0.949948    0.308628
    110          1           0        8.768474   -0.816996    0.920755
    111          1           0       10.291409    0.276461   -1.717795
    112          1           0        9.318704   -2.071570   -2.410263
    113          1           0       11.030471   -2.238865   -1.682818
    114          1           0        9.553400   -2.552365   -0.657748
    115          1           0       11.258153    0.846202    0.444818
    116          1           0       11.319113   -0.847973    0.770735
    117          1           0       12.798042   -1.534002   -1.309720
    118          1           0       12.776838    0.238358   -1.621480
    119          1           0       13.779678    0.853082    0.504543
    120          1           0       14.031587   -0.763013    0.887637
    121          1           0       15.363708    0.322089   -1.437806
    122          1           0       15.980332   -2.332840   -0.305487
    123          1           0       14.957504   -2.177776   -1.675458
    124          1           0       16.536009   -1.541131   -1.525339
    125          1           0       15.980818    1.425767    0.802136
    126          1           0       16.525776   -0.357393    1.509302
    127          1           0       18.373001   -0.351068   -0.391480
    128          1           0       17.812843    1.186705   -1.117137
    129          1           0       18.365496    2.192232    0.816896
    130          1           0       18.783763    0.961932    1.756676
    131          1           0       20.541399    0.271932   -0.096405
    132          1           0       20.400653    3.419895   -1.002925
    133          1           0       21.546558    1.817020   -1.588835
    134          1           0       19.742154    1.761012   -1.709532
    135          1           0       20.893670    1.234351    2.017758
    136          1           0       22.273209    1.773101    1.024943
    137          1           0       20.880840    2.725631    1.811104
 ---------------------------------------------------------------------

 SCF Done:  E(RCAM-B3LYP) =  -2933.44849017     A.U. after   16 cycles

 Excitation energies and oscillator strengths:

 Excited State   1:      Singlet-A      1.9023 eV  651.75 nm  f=0.3345  <S**2>=0.000
     240 -> 242       -0.18269
     240 -> 243       -0.20778
     241 -> 242        0.64173
 This state for optimization and/or second-order correction.
 Total Energy, E(TD-HF/TD-DFT) =  -2933.37858089
 Copying the excited state density for this state as the 1-particle RhoCI density.

 The electronic state is 1-A.
 Alpha  occ. eigenvalues --  -46.79398 -19.21799 -19.21305 -19.16440 -19.16009
 Alpha  occ. eigenvalues --  -19.15583 -14.36797 -14.36060 -14.35215 -14.35005
 Alpha  occ. eigenvalues --  -10.33805 -10.33452 -10.30525 -10.28693 -10.27817
 Alpha  occ. eigenvalues --  -10.25986 -10.25759 -10.25214 -10.25140 -10.25016
 Alpha  occ. eigenvalues --  -10.25015 -10.24993 -10.24778 -10.24643 -10.24642
 Alpha  occ. eigenvalues --  -10.24421 -10.24319 -10.24289 -10.24271 -10.24115
 Alpha  occ. eigenvalues --  -10.23947 -10.23817 -10.23801 -10.23600 -10.23344
 Alpha  occ. eigenvalues --  -10.23208 -10.22900 -10.22765 -10.22601 -10.22342
 Alpha  occ. eigenvalues --  -10.22310 -10.22249 -10.22217 -10.22188 -10.22181
 Alpha  occ. eigenvalues --  -10.22127 -10.22065 -10.21946 -10.21924 -10.21903
 Alpha  occ. eigenvalues --  -10.21304 -10.21288 -10.21246 -10.21118 -10.20986
 Alpha  occ. eigenvalues --  -10.20973 -10.20832 -10.20822 -10.20783 -10.20636
 Alpha  occ. eigenvalues --  -10.20337 -10.19325 -10.19103 -10.18397 -10.18074
 Alpha  occ. eigenvalues --   -3.08085  -1.83015  -1.82569  -1.82499  -1.15132
 Alpha  occ. eigenvalues --   -1.12254  -1.05717  -1.05408  -1.04007  -0.99739
 Alpha  occ. eigenvalues --   -0.98320  -0.97466  -0.96021  -0.87016  -0.86641
 Alpha  occ. eigenvalues --   -0.85983  -0.85311  -0.84764  -0.84527  -0.84230
 Alpha  occ. eigenvalues --   -0.83396  -0.83089  -0.82539  -0.81679  -0.81063
 Alpha  occ. eigenvalues --   -0.80070  -0.79248  -0.78611  -0.78122  -0.77585
 Alpha  occ. eigenvalues --   -0.76598  -0.75896  -0.75376  -0.74698  -0.72913
 Alpha  occ. eigenvalues --   -0.72611  -0.72389  -0.72046  -0.71812  -0.71263
 Alpha  occ. eigenvalues --   -0.70788  -0.70159  -0.69950  -0.69158  -0.68077
 Alpha  occ. eigenvalues --   -0.67487  -0.66706  -0.65421  -0.64887  -0.64338
 Alpha  occ. eigenvalues --   -0.62805  -0.62495  -0.61247  -0.60374  -0.60256
 Alpha  occ. eigenvalues --   -0.59164  -0.58857  -0.58510  -0.57689  -0.57215
 Alpha  occ. eigenvalues --   -0.56707  -0.56273  -0.55927  -0.55195  -0.54959
 Alpha  occ. eigenvalues --   -0.54509  -0.54031  -0.53028  -0.52822  -0.52168
 Alpha  occ. eigenvalues --   -0.51767  -0.51642  -0.51370  -0.50837  -0.50565
 Alpha  occ. eigenvalues --   -0.50159  -0.49848  -0.49658  -0.49348  -0.49072
 Alpha  occ. eigenvalues --   -0.48803  -0.48595  -0.48339  -0.48235  -0.47771
 Alpha  occ. eigenvalues --   -0.47738  -0.47433  -0.47175  -0.46848  -0.46585
 Alpha  occ. eigenvalues --   -0.46371  -0.46283  -0.46128  -0.45968  -0.45951
 Alpha  occ. eigenvalues --   -0.45887  -0.45440  -0.45333  -0.45158  -0.44596
 Alpha  occ. eigenvalues --   -0.44513  -0.44229  -0.43883  -0.43545  -0.43449
 Alpha  occ. eigenvalues --   -0.43299  -0.43005  -0.42789  -0.42619  -0.42449
 Alpha  occ. eigenvalues --   -0.42276  -0.41973  -0.41933  -0.41690  -0.41566
 Alpha  occ. eigenvalues --   -0.41450  -0.41168  -0.40956  -0.40611  -0.40473
 Alpha  occ. eigenvalues --   -0.40231  -0.40118  -0.39720  -0.39692  -0.39652
 Alpha  occ. eigenvalues --   -0.39584  -0.39506  -0.39447  -0.39261  -0.39113
 Alpha  occ. eigenvalues --   -0.38913  -0.38734  -0.38394  -0.38211  -0.37788
 Alpha  occ. eigenvalues --   -0.37563  -0.37428  -0.37401  -0.37310  -0.37181
 Alpha  occ. eigenvalues --   -0.37025  -0.36784  -0.36667  -0.36344  -0.36256
 Alpha  occ. eigenvalues --   -0.35505  -0.35401  -0.35040  -0.34640  -0.34439
 Alpha  occ. eigenvalues --   -0.34257  -0.33832  -0.33712  -0.33382  -0.33222
 Alpha  occ. eigenvalues --   -0.32838  -0.32719  -0.32670  -0.32649  -0.32564
 Alpha  occ. eigenvalues --   -0.32495  -0.32255  -0.31760  -0.31078  -0.30876
 Alpha  occ. eigenvalues --   -0.30183  -0.29846  -0.29352  -0.27880  -0.27848
 Alpha  occ. eigenvalues --   -0.27003  -0.26747  -0.25975  -0.24935  -0.21166
 Alpha  occ. eigenvalues --   -0.20255
 Alpha virt. eigenvalues --   -0.08275  -0.04197   0.00149   0.01720   0.04191
 Alpha virt. eigenvalues --    0.04263   0.04609   0.05276   0.05706   0.06070
 Alpha virt. eigenvalues --    0.06519   0.08321   0.09031   0.09706   0.09896

 Mulliken charges:
               1
     1  Mg   0.805366
     2  C    0.055090
     3  C   -0.214121
     4  C   -0.195454
     5  C   -0.158166
     6  N   -0.630246
     7  C    0.331163
     8  C   -0.158360
     9  C   -0.150774
    10  C    0.351795
    11  C   -0.312961
    12  C   -0.129295
    13  C   -0.266190
    14  C    0.585043
    15  O   -0.442181
    16  O   -0.437267
    17  N   -0.683383
    18  C    0.254802
    19  C    0.074338
    20  C   -0.009335
    21  C    0.294259
    22  C   -0.352774
    23  C   -0.115113
    24  C   -0.251230
    25  N   -0.684646
    26  C    0.322334
    27  C    0.049205
    28  C    0.066991
    29  C    0.258744
    30  C   -0.380159
    31  C   -0.266775
    32  C   -0.302179
    33  N   -0.712670
    34  C    0.256697
    35  C    0.026485
    36  C    0.084566
    37  C    0.257487
    38  C   -0.352739
    39  C    0.335775
    40  O   -0.462877
    41  C   -0.337943
    42  C    0.617972
    43  O   -0.465211
    44  O   -0.437446
    45  C   -0.085080
    46  C    0.018236
    47  C   -0.130403
    48  C    0.136689
    49  C   -0.362758
    50  C   -0.212378
    51  C   -0.157920
    52  C   -0.162082
    53  C   -0.062079
    54  C   -0.310871
    55  C   -0.162056
    56  C   -0.180370
    57  C   -0.152222
    58  C   -0.046555
    59  C   -0.334007
    60  C   -0.150958
    61  C   -0.193446
    62  C   -0.183572
    63  C   -0.049638
    64  C   -0.277487
    65  C   -0.284582
    66  H    0.070662
    67  H    0.083924
    68  H    0.082926
    69  H    0.118707
    70  H    0.096934
    71  H    0.101021
    72  H    0.082653
    73  H    0.140891
    74  H    0.104083
    75  H    0.114987
    76  H    0.128337
    77  H    0.116652
    78  H    0.129893
    79  H    0.133732
    80  H    0.110233
    81  H    0.103017
    82  H    0.099630
    83  H    0.097470
    84  H    0.117707
    85  H    0.117859
    86  H    0.123241
    87  H    0.118670
    88  H    0.096209
    89  H    0.094924
    90  H    0.131781
    91  H    0.094530
    92  H    0.085983
    93  H    0.151297
    94  H    0.127528
    95  H    0.150611
    96  H    0.132989
    97  H    0.105185
    98  H    0.118748
    99  H    0.099410
   100  H    0.109462
   101  H    0.081464
   102  H    0.104186
   103  H    0.118653
   104  H    0.102153
   105  H    0.111029
   106  H    0.089048
   107  H    0.107203
   108  H    0.081677
   109  H    0.069468
   110  H    0.072187
   111  H    0.069420
   112  H    0.093760
   113  H    0.106726
   114  H    0.099250
   115  H    0.067324
   116  H    0.106272
   117  H    0.067365
   118  H    0.082164
   119  H    0.077879
   120  H    0.100573
   121  H    0.095766
   122  H    0.109345
   123  H    0.109418
   124  H    0.109057
   125  H    0.070855
   126  H    0.035577
   127  H    0.100311
   128  H    0.094047
   129  H    0.105083
   130  H    0.090800
   131  H    0.068072
   132  H    0.061737
   133  H    0.077511
   134  H    0.102098
   135  H    0.108196
   136  H    0.086091
   137  H    0.101272
 Sum of Mulliken charges =  -0.00000

 Dipole moment (field-independent basis, Debye):
    X=             -0.6410    Y=              3.9448    Z=             -0.1086  Tot=              3.9980
 Quadrupole moment (field-independent basis, Debye-Ang):
   XX=           -321.6026   YY=           -397.8626   ZZ=           -397.6350
   XY=            -25.2405   XZ=             16.7642   YZ=             -1.4896

 Normal termination of Gaussian 16 at Tue Sep 10 14:26:41 2019.
