 Gaussian 09, Revision D.01,
 Gaussian 09:  ES64L-G09RevD.01 24-Apr-2013

 -------------------------------------
 # td=(NStates=1) CAM-B3LYP/6-31G(d,p)
 -------------------------------------

 --
 TD
 --
 Symbolic Z-matrix:
 Charge =  0 Multiplicity = 1

                         Standard orientation:
 ---------------------------------------------------------------------
 Center     Atomic      Atomic             Coordinates (Angstroms)
 Number     Number       Type             X           Y           Z
 ---------------------------------------------------------------------
      1         12           0       -7.194246    0.524866    0.166471
      2          6           0       -4.886062   -1.999508    0.454940
      3          6           0       -4.865744    2.863904    1.222441
      4          6           0       -9.407631    3.108416   -0.412766
      5          6           0       -9.604501   -1.784817   -0.760948
      6          7           0       -5.182447    0.448424    0.814796
      7          6           0       -4.377071   -0.743955    0.822093
      8          6           0       -2.957490   -0.478837    1.250880
      9          6           0       -3.007449    1.093162    1.619451
     10          6           0       -4.368766    1.497740    1.168540
     11          6           0       -2.804244    1.168057    3.166263
     12          6           0       -1.996312   -0.740492    0.041749
     13          6           0       -0.535403   -0.413788    0.433618
     14          6           0        0.489256   -0.597709   -0.690616
     15          8           0        0.160451   -1.125040   -1.792385
     16          8           0        1.706993   -0.384011   -0.264185
     17          7           0       -7.156923    2.528094    0.471812
     18          6           0       -6.034651    3.383304    0.791039
     19          6           0       -6.426227    4.740019    0.838115
     20          6           0       -7.737085    4.771830    0.315046
     21          6           0       -8.181345    3.495663    0.111933
     22          6           0       -5.561984    5.878110    1.260750
     23          6           0       -8.498540    6.032767    0.042813
     24          6           0       -8.544075    7.110444    0.738800
     25          7           0       -9.157271    0.653511   -0.422457
     26          6           0       -9.905893    1.812872   -0.560831
     27          6           0      -11.200413    1.529916   -1.083721
     28          6           0      -11.229265    0.118271   -1.230187
     29          6           0       -9.941244   -0.381680   -0.821463
     30          6           0      -12.315494    2.510750   -1.393655
     31          6           0      -12.316904   -0.739946   -1.827495
     32          6           0      -12.083337   -0.973359   -3.380449
     33          7           0       -7.230390   -1.510273   -0.098576
     34          6           0       -8.267178   -2.334010   -0.421309
     35          6           0       -7.873153   -3.619732   -0.382236
     36          6           0       -6.496662   -3.648772   -0.038591
     37          6           0       -6.243513   -2.207595    0.114309
     38          6           0       -8.743636   -4.791036   -0.748477
     39          6           0       -5.262801   -4.378829    0.143469
     40          8           0       -5.155778   -5.598702    0.196077
     41          6           0       -4.198720   -3.308069    0.506164
     42          6           0       -3.440294   -3.700567    1.833027
     43          8           0       -3.579081   -3.167736    3.006261
     44          8           0       -2.480291   -4.761467    1.563815
     45          6           0       -1.949213   -5.233383    2.928311
     46          6           0        2.813248   -0.502198   -1.261598
     47          6           0        4.105838   -0.288436   -0.473704
     48          6           0        5.108259    0.473964   -1.034961
     49          6           0        4.960861    1.239692   -2.375225
     50          6           0        6.393032    0.609855   -0.246583
     51          6           0        7.524533   -0.038086   -0.950555
     52          6           0        8.849426   -0.114003   -0.202207
     53          6           0       10.214966   -0.492699   -0.892400
     54          6           0       10.152875   -1.965931   -1.342195
     55          6           0       11.452908   -0.186013   -0.073323
     56          6           0       12.726643   -0.470101   -0.700769
     57          6           0       13.989651   -0.194452    0.165209
     58          6           0       15.374176   -0.186791   -0.511862
     59          6           0       15.708636   -1.664821   -0.932273
     60          6           0       16.445968    0.414818    0.442764
     61          6           0       17.880689    0.482935   -0.134787
     62          6           0       18.841261    1.206404    0.845225
     63          6           0       20.253921    1.328821    0.261389
     64          6           0       20.280408    2.195084   -1.031645
     65          6           0       21.093283    1.887581    1.367300
     66          1           0       -4.138136    3.623709    1.613916
     67          1           0      -10.097118    3.903974   -0.787921
     68          1           0      -10.225356   -2.539649   -1.228911
     69          1           0       -2.928990   -1.145058    1.982792
     70          1           0       -2.266902    1.639486    1.161490
     71          1           0       -1.855352    0.909100    3.424765
     72          1           0       -2.725416    2.337424    3.239622
     73          1           0       -3.538537    0.827852    3.673028
     74          1           0       -1.964699   -1.843532   -0.139476
     75          1           0       -2.323706   -0.271321   -0.869694
     76          1           0       -0.425478    0.646112    0.925528
     77          1           0       -0.067761   -1.264780    0.991702
     78          1           0       -5.869370    6.804283    0.644113
     79          1           0       -5.590790    6.165432    2.428927
     80          1           0       -4.604555    5.463315    1.138591
     81          1           0       -9.139606    6.051444   -0.851339
     82          1           0       -9.019245    7.999416    0.432287
     83          1           0       -7.988608    7.103787    1.901548
     84          1           0      -11.974743    3.434747   -2.086329
     85          1           0      -13.146866    2.015559   -1.904878
     86          1           0      -12.423293    2.913961   -0.338413
     87          1           0      -12.290858   -1.661656   -1.193962
     88          1           0      -13.295698   -0.419204   -1.701445
     89          1           0      -12.816823   -1.575993   -3.910252
     90          1           0      -11.988293    0.053660   -3.977168
     91          1           0      -11.111144   -1.380681   -3.416872
     92          1           0       -8.943560   -4.518821   -1.872643
     93          1           0       -7.998608   -5.767474   -0.641927
     94          1           0       -9.999229   -4.737492   -0.203247
     95          1           0       -3.378863   -3.405212   -0.244549
     96          1           0       -1.220364   -4.992668    3.635378
     97          1           0       -2.858045   -5.528924    3.546817
     98          1           0       -1.424815   -6.055934    2.623875
     99          1           0        2.786218   -1.584061   -1.584999
    100          1           0        2.645078    0.091790   -1.956407
    101          1           0        4.344932   -0.670826    0.462478
    102          1           0        3.912130    1.542674   -2.613692
    103          1           0        5.464881    2.221448   -2.238847
    104          1           0        5.611496    0.492203   -3.141392
    105          1           0        6.517997    1.746584   -0.239754
    106          1           0        6.310191    0.297594    0.723128
    107          1           0        7.113424   -1.196797   -1.279692
    108          1           0        7.789965    0.507766   -1.995125
    109          1           0        8.986820    0.773612    0.224851
    110          1           0        8.639336   -0.715049    0.672231
    111          1           0       10.219374    0.106363   -1.913293
    112          1           0        9.407676   -2.238386   -1.890186
    113          1           0       11.005136   -2.289017   -1.874125
    114          1           0       10.167056   -2.689255   -0.309151
    115          1           0       11.349443    0.881658    0.464989
    116          1           0       11.302869   -1.018349    0.742172
    117          1           0       12.875683   -1.576953   -0.969561
    118          1           0       12.648005    0.075640   -1.720798
    119          1           0       13.910716    0.975122    0.457063
    120          1           0       13.937188   -0.592146    1.075954
    121          1           0       15.333989    0.282611   -1.567013
    122          1           0       15.794475   -2.407784    0.095837
    123          1           0       14.897264   -2.036851   -1.708905
    124          1           0       16.609643   -1.804032   -1.566272
    125          1           0       16.000299    1.404575    0.709563
    126          1           0       16.468032   -0.239462    1.371842
    127          1           0       18.431122   -0.511576   -0.379841
    128          1           0       17.899080    1.127697   -1.137130
    129          1           0       18.388406    2.296250    1.223298
    130          1           0       18.902802    0.778888    1.813210
    131          1           0       20.581444    0.380567    0.043755
    132          1           0       19.866726    3.156517   -0.827310
    133          1           0       21.397162    2.570979   -1.030052
    134          1           0       19.760881    1.738325   -1.872650
    135          1           0       21.031750    1.229168    2.355585
    136          1           0       22.220204    1.626313    1.108477
    137          1           0       20.928521    2.991693    1.430214
 ---------------------------------------------------------------------

 SCF Done:  E(RCAM-B3LYP) =  -2932.58001567     A.U. after   18 cycles

 Excitation energies and oscillator strengths:

 Excited State   1:      Singlet-A      1.9610 eV  632.24 nm  f=0.2266  <S**2>=0.000
     240 -> 243       -0.24344
     241 -> 242        0.65832
 This state for optimization and/or second-order correction.
 Total Energy, E(TD-HF/TD-KS) =  -2932.50794910
 Copying the excited state density for this state as the 1-particle RhoCI density.

 The electronic state is 1-A.
 Alpha  occ. eigenvalues --  -46.84006 -19.27562 -19.26741 -19.22446 -19.19484
 Alpha  occ. eigenvalues --  -19.19400 -14.42518 -14.39192 -14.38978 -14.38611
 Alpha  occ. eigenvalues --  -10.41353 -10.38838 -10.34706 -10.32184 -10.31861
 Alpha  occ. eigenvalues --  -10.30865 -10.30216 -10.29658 -10.29626 -10.29401
 Alpha  occ. eigenvalues --  -10.29323 -10.29243 -10.28985 -10.28982 -10.28762
 Alpha  occ. eigenvalues --  -10.28388 -10.28369 -10.28313 -10.28255 -10.27939
 Alpha  occ. eigenvalues --  -10.27823 -10.27798 -10.27589 -10.27277 -10.27191
 Alpha  occ. eigenvalues --  -10.27141 -10.27137 -10.27131 -10.27079 -10.27016
 Alpha  occ. eigenvalues --  -10.27007 -10.26986 -10.26913 -10.26868 -10.26832
 Alpha  occ. eigenvalues --  -10.26731 -10.26447 -10.26358 -10.26354 -10.26350
 Alpha  occ. eigenvalues --  -10.26347 -10.26304 -10.26290 -10.26273 -10.26161
 Alpha  occ. eigenvalues --  -10.26149 -10.25850 -10.25492 -10.25301 -10.25001
 Alpha  occ. eigenvalues --  -10.24880 -10.24780 -10.24487 -10.24469 -10.24296
 Alpha  occ. eigenvalues --   -3.13035  -1.87746  -1.87273  -1.87212  -1.17971
 Alpha  occ. eigenvalues --   -1.13233  -1.09845  -1.07393  -1.06235  -1.05828
 Alpha  occ. eigenvalues --   -1.02858  -1.02512  -1.00567  -0.92881  -0.91894
 Alpha  occ. eigenvalues --   -0.90648  -0.89795  -0.89609  -0.89194  -0.88675
 Alpha  occ. eigenvalues --   -0.88285  -0.87941  -0.87655  -0.87090  -0.86592
 Alpha  occ. eigenvalues --   -0.85423  -0.84354  -0.83398  -0.82704  -0.82498
 Alpha  occ. eigenvalues --   -0.81579  -0.80789  -0.80249  -0.79903  -0.78185
 Alpha  occ. eigenvalues --   -0.77642  -0.77143  -0.77080  -0.76041  -0.75521
 Alpha  occ. eigenvalues --   -0.75107  -0.74898  -0.74253  -0.73816  -0.72687
 Alpha  occ. eigenvalues --   -0.72316  -0.70741  -0.70114  -0.69104  -0.68468
 Alpha  occ. eigenvalues --   -0.66959  -0.66073  -0.65676  -0.64577  -0.64384
 Alpha  occ. eigenvalues --   -0.64291  -0.63945  -0.63258  -0.62524  -0.61627
 Alpha  occ. eigenvalues --   -0.61602  -0.60722  -0.60123  -0.59554  -0.59174
 Alpha  occ. eigenvalues --   -0.58185  -0.57847  -0.57333  -0.57257  -0.56040
 Alpha  occ. eigenvalues --   -0.55305  -0.55054  -0.54863  -0.54752  -0.54552
 Alpha  occ. eigenvalues --   -0.54128  -0.53725  -0.53425  -0.53148  -0.53031
 Alpha  occ. eigenvalues --   -0.52620  -0.52386  -0.52314  -0.52129  -0.51874
 Alpha  occ. eigenvalues --   -0.51634  -0.51231  -0.51160  -0.50919  -0.50535
 Alpha  occ. eigenvalues --   -0.50133  -0.49960  -0.49785  -0.49674  -0.49348
 Alpha  occ. eigenvalues --   -0.49237  -0.49041  -0.48761  -0.48554  -0.48263
 Alpha  occ. eigenvalues --   -0.47892  -0.47658  -0.47399  -0.47254  -0.46799
 Alpha  occ. eigenvalues --   -0.46707  -0.46581  -0.46361  -0.46199  -0.46003
 Alpha  occ. eigenvalues --   -0.45894  -0.45679  -0.45266  -0.45172  -0.44748
 Alpha  occ. eigenvalues --   -0.44617  -0.44455  -0.44302  -0.44228  -0.44094
 Alpha  occ. eigenvalues --   -0.43917  -0.43761  -0.43473  -0.43234  -0.43153
 Alpha  occ. eigenvalues --   -0.42847  -0.42655  -0.42615  -0.42529  -0.42257
 Alpha  occ. eigenvalues --   -0.42171  -0.41929  -0.41863  -0.41530  -0.41355
 Alpha  occ. eigenvalues --   -0.41320  -0.41055  -0.40948  -0.40574  -0.40399
 Alpha  occ. eigenvalues --   -0.40260  -0.39731  -0.39554  -0.39240  -0.38948
 Alpha  occ. eigenvalues --   -0.38811  -0.38655  -0.38578  -0.38040  -0.37814
 Alpha  occ. eigenvalues --   -0.37414  -0.37359  -0.36868  -0.36857  -0.36471
 Alpha  occ. eigenvalues --   -0.36441  -0.36098  -0.35858  -0.35754  -0.35599
 Alpha  occ. eigenvalues --   -0.35570  -0.35220  -0.34894  -0.33934  -0.33746
 Alpha  occ. eigenvalues --   -0.33601  -0.32133  -0.32084  -0.30709  -0.29747
 Alpha  occ. eigenvalues --   -0.29587  -0.29055  -0.27918  -0.27125  -0.23122
 Alpha  occ. eigenvalues --   -0.21446
 Alpha virt. eigenvalues --   -0.07173  -0.03350   0.01413   0.03168   0.04895
 Alpha virt. eigenvalues --    0.05764   0.06087   0.06777   0.06943   0.07129
 Alpha virt. eigenvalues --    0.07904   0.09901   0.10796   0.11075   0.11277

 Mulliken charges:
               1
     1  Mg   0.805103
     2  C    0.096223
     3  C   -0.234422
     4  C   -0.189509
     5  C   -0.156246
     6  N   -0.618843
     7  C    0.251056
     8  C   -0.131229
     9  C   -0.169921
    10  C    0.340480
    11  C   -0.278261
    12  C   -0.168438
    13  C   -0.255270
    14  C    0.581274
    15  O   -0.515707
    16  O   -0.468703
    17  N   -0.710363
    18  C    0.320138
    19  C    0.042620
    20  C   -0.006874
    21  C    0.323414
    22  C   -0.359366
    23  C   -0.064177
    24  C   -0.236360
    25  N   -0.699431
    26  C    0.294112
    27  C    0.018422
    28  C   -0.008225
    29  C    0.313242
    30  C   -0.356758
    31  C   -0.243152
    32  C   -0.307174
    33  N   -0.710612
    34  C    0.252253
    35  C    0.007463
    36  C    0.008318
    37  C    0.317851
    38  C   -0.359754
    39  C    0.354459
    40  O   -0.466779
    41  C   -0.326515
    42  C    0.625259
    43  O   -0.487486
    44  O   -0.472402
    45  C   -0.093490
    46  C    0.052485
    47  C   -0.134096
    48  C    0.086078
    49  C   -0.349205
    50  C   -0.204577
    51  C   -0.159226
    52  C   -0.164852
    53  C   -0.066112
    54  C   -0.286453
    55  C   -0.149032
    56  C   -0.171527
    57  C   -0.159310
    58  C   -0.056795
    59  C   -0.293729
    60  C   -0.161249
    61  C   -0.174822
    62  C   -0.149640
    63  C   -0.042278
    64  C   -0.317938
    65  C   -0.311466
    66  H    0.073536
    67  H    0.089417
    68  H    0.102529
    69  H    0.133940
    70  H    0.109977
    71  H    0.127913
    72  H    0.077686
    73  H    0.135955
    74  H    0.113038
    75  H    0.130366
    76  H    0.111131
    77  H    0.145132
    78  H    0.126674
    79  H    0.106458
    80  H    0.116068
    81  H    0.094748
    82  H    0.109781
    83  H    0.079879
    84  H    0.100931
    85  H    0.124043
    86  H    0.132823
    87  H    0.101421
    88  H    0.108339
    89  H    0.109454
    90  H    0.091768
    91  H    0.119026
    92  H    0.119336
    93  H    0.142452
    94  H    0.082529
    95  H    0.174115
    96  H    0.133166
    97  H    0.134866
    98  H    0.124254
    99  H    0.138465
   100  H    0.118911
   101  H    0.093025
   102  H    0.123363
   103  H    0.115572
   104  H    0.116302
   105  H    0.092456
   106  H    0.109747
   107  H    0.060324
   108  H    0.073670
   109  H    0.097511
   110  H    0.089899
   111  H    0.060324
   112  H    0.115171
   113  H    0.106576
   114  H    0.054753
   115  H    0.079961
   116  H    0.076434
   117  H    0.100730
   118  H    0.079573
   119  H    0.052582
   120  H    0.107700
   121  H    0.081697
   122  H    0.062264
   123  H    0.084467
   124  H    0.101544
   125  H    0.097845
   126  H    0.089005
   127  H    0.091780
   128  H    0.077211
   129  H    0.048432
   130  H    0.093196
   131  H    0.096562
   132  H    0.109174
   133  H    0.087384
   134  H    0.113826
   135  H    0.091772
   136  H    0.077692
   137  H    0.107873
 Sum of Mulliken charges =   0.00000

 Dipole moment (field-independent basis, Debye):
    X=              3.1628    Y=              6.0530    Z=             -0.1382  Tot=              6.8309
 Quadrupole moment (field-independent basis, Debye-Ang):
   XX=           -340.7829   YY=           -401.9135   ZZ=           -397.5216
   XY=            -31.3291   XZ=             18.9607   YZ=             -4.6486

 Normal termination of Gaussian 09 at Thu Jul  4 20:36:34 2019.
