 Gaussian 09, Revision D.01,
 Gaussian 09:  ES64L-G09RevD.01 24-Apr-2013

 -------------------------------------
 # td=(NStates=1) CAM-B3LYP/6-31G(d,p)
 -------------------------------------

 --
 TD
 --
 Symbolic Z-matrix:
 Charge =  0 Multiplicity = 1

                         Standard orientation:
 ---------------------------------------------------------------------
 Center     Atomic      Atomic             Coordinates (Angstroms)
 Number     Number       Type             X           Y           Z
 ---------------------------------------------------------------------
      1         12           0       -7.137003    0.566872    0.085762
      2          6           0       -4.863561   -1.919749    0.599807
      3          6           0       -4.820257    2.859398    1.210985
      4          6           0       -9.402883    3.082313   -0.476307
      5          6           0       -9.457931   -1.712173   -0.984373
      6          7           0       -5.107543    0.399146    0.768520
      7          6           0       -4.342493   -0.733398    0.886020
      8          6           0       -2.910634   -0.366122    1.301742
      9          6           0       -3.047587    1.091465    1.666321
     10          6           0       -4.455667    1.489426    1.189128
     11          6           0       -2.860760    1.301360    3.218924
     12          6           0       -1.814904   -0.547300    0.200833
     13          6           0       -0.460529   -0.314216    0.592622
     14          6           0        0.559513   -0.536806   -0.555289
     15          8           0        0.183118   -0.815215   -1.631785
     16          8           0        1.841580   -0.280685   -0.146278
     17          7           0       -7.067941    2.638665    0.247054
     18          6           0       -6.082709    3.357700    0.718510
     19          6           0       -6.409630    4.758175    0.781473
     20          6           0       -7.646535    4.844391    0.371759
     21          6           0       -8.141076    3.360706    0.016068
     22          6           0       -5.387128    5.882389    1.076312
     23          6           0       -8.538716    6.041939    0.151598
     24          6           0       -8.475842    7.160540    0.973324
     25          7           0       -9.093585    0.729456   -0.618236
     26          6           0       -9.790830    1.784092   -0.683607
     27          6           0      -11.166245    1.530646   -1.162761
     28          6           0      -11.192388    0.157453   -1.316271
     29          6           0       -9.848954   -0.370988   -0.976334
     30          6           0      -12.267116    2.492315   -1.471477
     31          6           0      -12.297226   -0.679147   -1.876694
     32          6           0      -12.171952   -1.315798   -3.255885
     33          7           0       -7.191443   -1.395975   -0.166570
     34          6           0       -8.221471   -2.240188   -0.500239
     35          6           0       -7.820014   -3.567998   -0.592615
     36          6           0       -6.449901   -3.511242   -0.135090
     37          6           0       -6.135700   -2.174017    0.120228
     38          6           0       -8.557599   -4.826092   -0.738315
     39          6           0       -5.360053   -4.309780    0.307728
     40          8           0       -5.136704   -5.506647    0.303328
     41          6           0       -4.265288   -3.338124    0.689737
     42          6           0       -3.618712   -3.669549    1.971571
     43          8           0       -3.721328   -3.198839    3.072375
     44          8           0       -2.762972   -4.807659    1.795049
     45          6           0       -2.171675   -5.368138    2.924797
     46          6           0        2.745420   -0.628751   -1.273376
     47          6           0        4.057170   -0.406950   -0.579028
     48          6           0        5.075994    0.287336   -1.104513
     49          6           0        5.093469    1.001617   -2.378115
     50          6           0        6.453674    0.390689   -0.333034
     51          6           0        7.663539   -0.258346   -1.083008
     52          6           0        8.924675   -0.168871   -0.315876
     53          6           0       10.190389   -0.672681   -1.014745
     54          6           0       10.101475   -2.150343   -1.448811
     55          6           0       11.419530   -0.390678   -0.081597
     56          6           0       12.735112   -0.616397   -0.799910
     57          6           0       13.871296   -0.157042    0.069358
     58          6           0       15.249439   -0.161338   -0.505772
     59          6           0       15.571402   -1.543557   -0.890710
     60          6           0       16.289998    0.623380    0.373786
     61          6           0       17.762393    0.664982   -0.165692
     62          6           0       18.697903    1.375189    0.784400
     63          6           0       20.174857    1.358708    0.345979
     64          6           0       20.378121    2.222008   -0.891147
     65          6           0       21.118638    1.782896    1.473238
     66          1           0       -4.149719    3.539249    1.843169
     67          1           0      -10.394539    3.756984   -0.416635
     68          1           0      -10.029681   -2.615885   -1.317201
     69          1           0       -2.784720   -1.053368    2.230832
     70          1           0       -2.287829    1.765410    1.141585
     71          1           0       -1.887473    1.106788    3.564399
     72          1           0       -2.981263    2.368614    3.562737
     73          1           0       -3.564645    0.709845    3.984140
     74          1           0       -2.034432   -1.672240   -0.349801
     75          1           0       -1.873875    0.043234   -0.589052
     76          1           0       -0.448829    0.698630    0.995752
     77          1           0       -0.214999   -1.053657    1.427786
     78          1           0       -5.908127    6.789615    0.920142
     79          1           0       -5.088596    5.883676    2.193345
     80          1           0       -4.427771    5.731287    0.643980
     81          1           0       -9.263146    5.863917   -0.441982
     82          1           0       -9.171499    7.878848    0.665422
     83          1           0       -7.724056    7.246100    1.821729
     84          1           0      -12.107888    3.181564   -2.354003
     85          1           0      -13.272256    1.969836   -1.391907
     86          1           0      -12.390103    3.194401   -0.708180
     87          1           0      -12.619457   -1.472919   -1.192404
     88          1           0      -13.124196   -0.038757   -1.644366
     89          1           0      -12.910722   -2.161394   -3.522635
     90          1           0      -12.066508   -0.368219   -4.041222
     91          1           0      -11.224940   -1.810482   -3.121743
     92          1           0       -9.049579   -4.833413   -1.808375
     93          1           0       -7.871898   -5.655549   -0.501718
     94          1           0       -9.391631   -4.826016   -0.085579
     95          1           0       -3.507280   -3.333160   -0.086351
     96          1           0       -1.390630   -4.785731    3.479812
     97          1           0       -3.090023   -5.292177    3.743305
     98          1           0       -1.684184   -6.366173    2.496834
     99          1           0        2.684273   -1.555288   -1.552598
    100          1           0        2.623964    0.008150   -2.114903
    101          1           0        4.217004   -0.803834    0.432296
    102          1           0        4.252889    0.976726   -2.874265
    103          1           0        5.433269    1.974115   -2.282433
    104          1           0        5.767235    0.587774   -3.171812
    105          1           0        6.703299    1.500317   -0.094792
    106          1           0        6.343600    0.012889    0.679656
    107          1           0        7.044199   -1.182683   -1.301178
    108          1           0        7.691781    0.272695   -2.047744
    109          1           0        9.197437    0.917837    0.007747
    110          1           0        8.915852   -0.733025    0.466699
    111          1           0       10.495673   -0.041761   -1.914011
    112          1           0        9.122722   -2.175308   -1.986159
    113          1           0       10.791690   -2.468471   -1.934442
    114          1           0        9.957243   -2.788454   -0.480329
    115          1           0       11.490757    0.668869    0.356953
    116          1           0       11.255379   -1.055751    0.795397
    117          1           0       12.935922   -1.643316   -0.912032
    118          1           0       12.501131   -0.091608   -1.679627
    119          1           0       13.810854    0.784080    0.507502
    120          1           0       13.629015   -0.877413    0.918674
    121          1           0       15.263585    0.254661   -1.692645
    122          1           0       15.937635   -2.147179    0.232735
    123          1           0       14.705666   -2.293109   -1.287893
    124          1           0       16.423670   -1.625537   -1.590157
    125          1           0       15.817269    1.782342    0.542760
    126          1           0       16.121160    0.197242    1.438801
    127          1           0       17.942445   -0.246431   -0.260899
    128          1           0       17.889444    1.148165   -1.228280
    129          1           0       18.203131    2.307523    0.892439
    130          1           0       18.680086    0.918337    1.840394
    131          1           0       20.524568    0.386192    0.099620
    132          1           0       19.959278    3.248444   -0.590679
    133          1           0       21.296322    2.385967   -1.354997
    134          1           0       19.853373    1.805083   -1.846741
    135          1           0       20.761566    0.964215    2.316063
    136          1           0       22.229568    1.411130    1.467218
    137          1           0       21.020377    2.826410    1.721877
 ---------------------------------------------------------------------

 SCF Done:  E(RCAM-B3LYP) =  -2932.63035562     A.U. after   17 cycles

 Excitation energies and oscillator strengths:

 Excited State   1:      Singlet-A      2.2739 eV  545.26 nm  f=0.2336  <S**2>=0.000
     240 -> 242       -0.21615
     240 -> 243        0.20798
     241 -> 242        0.61688
     241 -> 243        0.14225
 This state for optimization and/or second-order correction.
 Total Energy, E(TD-HF/TD-KS) =  -2932.54679227
 Copying the excited state density for this state as the 1-particle RhoCI density.

 The electronic state is 1-A.
 Alpha  occ. eigenvalues --  -46.85074 -19.26761 -19.23600 -19.22071 -19.21624
 Alpha  occ. eigenvalues --  -19.18472 -14.41863 -14.40698 -14.39804 -14.38640
 Alpha  occ. eigenvalues --  -10.39385 -10.39017 -10.33303 -10.31897 -10.31457
 Alpha  occ. eigenvalues --  -10.31294 -10.31266 -10.30757 -10.29810 -10.29295
 Alpha  occ. eigenvalues --  -10.29094 -10.28605 -10.28590 -10.28038 -10.27980
 Alpha  occ. eigenvalues --  -10.27797 -10.27689 -10.27590 -10.27570 -10.27473
 Alpha  occ. eigenvalues --  -10.27441 -10.27245 -10.27133 -10.27095 -10.27086
 Alpha  occ. eigenvalues --  -10.27069 -10.27050 -10.27034 -10.26966 -10.26870
 Alpha  occ. eigenvalues --  -10.26861 -10.26840 -10.26808 -10.26698 -10.26395
 Alpha  occ. eigenvalues --  -10.26274 -10.26129 -10.26074 -10.25978 -10.25966
 Alpha  occ. eigenvalues --  -10.25888 -10.25825 -10.25714 -10.25703 -10.25606
 Alpha  occ. eigenvalues --  -10.25040 -10.24939 -10.24704 -10.24535 -10.24491
 Alpha  occ. eigenvalues --  -10.24032 -10.23958 -10.23699 -10.23602 -10.23560
 Alpha  occ. eigenvalues --   -3.14108  -1.88823  -1.88327  -1.88296  -1.18921
 Alpha  occ. eigenvalues --   -1.16406  -1.11112  -1.09682  -1.08359  -1.07162
 Alpha  occ. eigenvalues --   -1.05502  -1.04800  -1.03458  -0.93416  -0.91627
 Alpha  occ. eigenvalues --   -0.91131  -0.90737  -0.90127  -0.89914  -0.89472
 Alpha  occ. eigenvalues --   -0.88943  -0.88796  -0.87684  -0.87206  -0.86086
 Alpha  occ. eigenvalues --   -0.85542  -0.84630  -0.83920  -0.83708  -0.83406
 Alpha  occ. eigenvalues --   -0.82414  -0.81222  -0.80957  -0.80741  -0.78252
 Alpha  occ. eigenvalues --   -0.77902  -0.77526  -0.77234  -0.75957  -0.75254
 Alpha  occ. eigenvalues --   -0.75179  -0.74337  -0.74139  -0.73589  -0.73268
 Alpha  occ. eigenvalues --   -0.71772  -0.70469  -0.70217  -0.69272  -0.68996
 Alpha  occ. eigenvalues --   -0.67914  -0.66678  -0.65790  -0.65487  -0.64841
 Alpha  occ. eigenvalues --   -0.64273  -0.63831  -0.63757  -0.63123  -0.61609
 Alpha  occ. eigenvalues --   -0.61276  -0.60678  -0.60335  -0.60263  -0.59541
 Alpha  occ. eigenvalues --   -0.59066  -0.58761  -0.57835  -0.57705  -0.57646
 Alpha  occ. eigenvalues --   -0.56710  -0.56196  -0.55421  -0.55168  -0.54987
 Alpha  occ. eigenvalues --   -0.54678  -0.54433  -0.54360  -0.54120  -0.53374
 Alpha  occ. eigenvalues --   -0.53118  -0.52925  -0.52548  -0.52495  -0.51985
 Alpha  occ. eigenvalues --   -0.51629  -0.51529  -0.51011  -0.50727  -0.50549
 Alpha  occ. eigenvalues --   -0.50354  -0.50201  -0.50100  -0.49907  -0.49665
 Alpha  occ. eigenvalues --   -0.49507  -0.49227  -0.49093  -0.48712  -0.48549
 Alpha  occ. eigenvalues --   -0.48375  -0.48024  -0.47835  -0.47667  -0.47518
 Alpha  occ. eigenvalues --   -0.47463  -0.46952  -0.46799  -0.46372  -0.46195
 Alpha  occ. eigenvalues --   -0.45866  -0.45740  -0.45648  -0.45513  -0.45357
 Alpha  occ. eigenvalues --   -0.45344  -0.45163  -0.44976  -0.44867  -0.44409
 Alpha  occ. eigenvalues --   -0.44379  -0.44248  -0.43975  -0.43771  -0.43606
 Alpha  occ. eigenvalues --   -0.43434  -0.43219  -0.43058  -0.42753  -0.42356
 Alpha  occ. eigenvalues --   -0.42184  -0.42060  -0.41975  -0.41798  -0.41296
 Alpha  occ. eigenvalues --   -0.41098  -0.40790  -0.40365  -0.40280  -0.39882
 Alpha  occ. eigenvalues --   -0.39724  -0.39516  -0.39298  -0.38985  -0.38867
 Alpha  occ. eigenvalues --   -0.38512  -0.38323  -0.38222  -0.37905  -0.37813
 Alpha  occ. eigenvalues --   -0.37534  -0.37392  -0.37306  -0.37031  -0.36768
 Alpha  occ. eigenvalues --   -0.36506  -0.36373  -0.36175  -0.35867  -0.35781
 Alpha  occ. eigenvalues --   -0.35586  -0.34835  -0.34370  -0.34006  -0.33147
 Alpha  occ. eigenvalues --   -0.32868  -0.32741  -0.32535  -0.31492  -0.29838
 Alpha  occ. eigenvalues --   -0.29339  -0.29129  -0.29016  -0.28211  -0.23694
 Alpha  occ. eigenvalues --   -0.21868
 Alpha virt. eigenvalues --   -0.06348  -0.02582   0.01756   0.03547   0.05454
 Alpha virt. eigenvalues --    0.05765   0.06270   0.06676   0.07135   0.07410
 Alpha virt. eigenvalues --    0.08546   0.10465   0.10968   0.11385   0.12021

 Mulliken charges:
               1
     1  Mg   0.824847
     2  C    0.076545
     3  C   -0.216488
     4  C   -0.175022
     5  C   -0.150870
     6  N   -0.653080
     7  C    0.278254
     8  C   -0.143850
     9  C   -0.162282
    10  C    0.377865
    11  C   -0.323245
    12  C   -0.147423
    13  C   -0.271237
    14  C    0.620402
    15  O   -0.437567
    16  O   -0.491361
    17  N   -0.698590
    18  C    0.317313
    19  C    0.035835
    20  C   -0.052764
    21  C    0.321070
    22  C   -0.356477
    23  C   -0.048313
    24  C   -0.237577
    25  N   -0.690049
    26  C    0.340751
    27  C    0.018587
    28  C    0.005015
    29  C    0.269371
    30  C   -0.389527
    31  C   -0.235860
    32  C   -0.290386
    33  N   -0.748905
    34  C    0.235259
    35  C    0.035049
    36  C   -0.020902
    37  C    0.298832
    38  C   -0.381060
    39  C    0.353020
    40  O   -0.478410
    41  C   -0.305776
    42  C    0.617656
    43  O   -0.462045
    44  O   -0.466799
    45  C   -0.065154
    46  C    0.012842
    47  C   -0.147068
    48  C    0.105778
    49  C   -0.360389
    50  C   -0.235478
    51  C   -0.182191
    52  C   -0.141408
    53  C   -0.094763
    54  C   -0.279892
    55  C   -0.185516
    56  C   -0.165205
    57  C   -0.171539
    58  C   -0.021393
    59  C   -0.277825
    60  C   -0.185083
    61  C   -0.159972
    62  C   -0.165838
    63  C   -0.055642
    64  C   -0.303453
    65  C   -0.298239
    66  H    0.095082
    67  H    0.098859
    68  H    0.101429
    69  H    0.136030
    70  H    0.107338
    71  H    0.123360
    72  H    0.094962
    73  H    0.113431
    74  H    0.072402
    75  H    0.124219
    76  H    0.127833
    77  H    0.123295
    78  H    0.120850
    79  H    0.104179
    80  H    0.134960
    81  H    0.082067
    82  H    0.110079
    83  H    0.117493
    84  H    0.126647
    85  H    0.118992
    86  H    0.125067
    87  H    0.102333
    88  H    0.090239
    89  H    0.106296
    90  H    0.091369
    91  H    0.116684
    92  H    0.101738
    93  H    0.156772
    94  H    0.135120
    95  H    0.181285
    96  H    0.103277
    97  H    0.103109
    98  H    0.115970
    99  H    0.145105
   100  H    0.131452
   101  H    0.098806
   102  H    0.106980
   103  H    0.128495
   104  H    0.110612
   105  H    0.075432
   106  H    0.094288
   107  H    0.103517
   108  H    0.096918
   109  H    0.086921
   110  H    0.105499
   111  H    0.067628
   112  H    0.104703
   113  H    0.109120
   114  H    0.078166
   115  H    0.079883
   116  H    0.076630
   117  H    0.103566
   118  H    0.093557
   119  H    0.086232
   120  H    0.083347
   121  H    0.052655
   122  H    0.027943
   123  H    0.096128
   124  H    0.101866
   125  H    0.057201
   126  H    0.093618
   127  H    0.113893
   128  H    0.088313
   129  H    0.100847
   130  H    0.078774
   131  H    0.096010
   132  H    0.087422
   133  H    0.109132
   134  H    0.079916
   135  H    0.069260
   136  H    0.095362
   137  H    0.109658
 Sum of Mulliken charges =   0.00000

 Dipole moment (field-independent basis, Debye):
    X=              0.2413    Y=              6.9315    Z=             -0.2653  Tot=              6.9408
 Quadrupole moment (field-independent basis, Debye-Ang):
   XX=           -328.9522   YY=           -401.8463   ZZ=           -398.9587
   XY=            -38.7366   XZ=             -1.2286   YZ=              6.0662

 Normal termination of Gaussian 09 at Tue Jul  2 20:59:49 2019.
