 Gaussian 16, Revision A.03,
 Gaussian 16:  ES64L-G16RevA.03 25-Dec-2016

 ----------------------------------------------------------------------
 # td=(NStates=1) iop(3/107=0140000000,3/108=0140000000) CAM-B3LYP/6-31
 G(d,p)
 ----------------------------------------------------------------------

 --
 TD
 --
 Symbolic Z-matrix:
 Charge =  0 Multiplicity = 1

                         Standard orientation:
 ---------------------------------------------------------------------
 Center     Atomic      Atomic             Coordinates (Angstroms)
 Number     Number       Type             X           Y           Z
 ---------------------------------------------------------------------
      1         12           0       -7.151268    0.642625    0.074306
      2          6           0       -4.809228   -1.873207    0.500329
      3          6           0       -4.925240    2.893153    1.230714
      4          6           0       -9.412494    3.163338   -0.436271
      5          6           0       -9.605500   -1.756338   -0.902310
      6          7           0       -5.252225    0.587847    0.643951
      7          6           0       -4.380267   -0.646150    0.718413
      8          6           0       -2.996049   -0.236787    1.269621
      9          6           0       -3.048422    1.198769    1.668123
     10          6           0       -4.461074    1.632698    1.162378
     11          6           0       -3.061817    1.257993    3.212580
     12          6           0       -1.950023   -0.559552    0.150634
     13          6           0       -0.375102   -0.430340    0.651729
     14          6           0        0.490773   -0.555597   -0.537881
     15          8           0        0.243889   -1.129679   -1.672321
     16          8           0        1.770106   -0.346022   -0.143308
     17          7           0       -7.188939    2.627665    0.281363
     18          6           0       -6.077817    3.381470    0.761804
     19          6           0       -6.524216    4.859611    0.761888
     20          6           0       -7.809495    4.883369    0.299694
     21          6           0       -8.121805    3.574710    0.042677
     22          6           0       -5.625618    6.038254    1.004503
     23          6           0       -8.589815    6.073527    0.046091
     24          6           0       -8.419139    7.249801    0.646496
     25          7           0       -9.153794    0.667575   -0.489467
     26          6           0       -9.903523    1.759101   -0.645875
     27          6           0      -11.276010    1.375520   -1.047242
     28          6           0      -11.269941    0.064998   -1.277167
     29          6           0       -9.881677   -0.504144   -0.909168
     30          6           0      -12.319072    2.368079   -1.305482
     31          6           0      -12.307370   -0.842664   -1.670782
     32          6           0      -12.197609   -1.142015   -3.179887
     33          7           0       -7.293155   -1.355421   -0.151921
     34          6           0       -8.297726   -2.254161   -0.483401
     35          6           0       -7.720539   -3.599608   -0.589514
     36          6           0       -6.462631   -3.534650   -0.153858
     37          6           0       -6.130075   -2.161893    0.072482
     38          6           0       -8.571118   -4.891584   -0.940817
     39          6           0       -5.300958   -4.378174    0.042414
     40          8           0       -5.118451   -5.605097    0.172905
     41          6           0       -4.105320   -3.254794    0.500585
     42          6           0       -3.500332   -3.761788    1.843460
     43          8           0       -3.843812   -3.218930    2.888292
     44          8           0       -2.783993   -4.842195    1.777548
     45          6           0       -2.162732   -5.349029    2.948512
     46          6           0        2.804650   -0.674089   -1.132144
     47          6           0        4.109024   -0.390376   -0.394027
     48          6           0        5.182781    0.309793   -0.851515
     49          6           0        5.223901    1.111436   -2.057458
     50          6           0        6.469547    0.263132   -0.091091
     51          6           0        7.654607   -0.264270   -0.911631
     52          6           0        8.991346   -0.207859   -0.142168
     53          6           0       10.172695   -0.552733   -0.940711
     54          6           0       10.099876   -2.138627   -1.280919
     55          6           0       11.416477   -0.343429    0.018096
     56          6           0       12.765173   -0.600557   -0.622018
     57          6           0       13.955453   -0.167328    0.269868
     58          6           0       15.391020   -0.224297   -0.434488
     59          6           0       15.788961   -1.670136   -0.795289
     60          6           0       16.457051    0.311830    0.525880
     61          6           0       17.810948    0.687057   -0.182348
     62          6           0       18.914435    1.380810    0.659010
     63          6           0       20.274902    1.500435    0.088887
     64          6           0       20.287857    2.374489   -1.226807
     65          6           0       21.250402    1.965504    1.151286
     66          1           0       -4.191737    3.617995    1.425773
     67          1           0      -10.238235    3.909231   -0.651920
     68          1           0      -10.169702   -2.575006   -1.170527
     69          1           0       -2.741508   -0.925934    1.979388
     70          1           0       -2.326831    1.694024    1.234782
     71          1           0       -2.206196    0.701894    3.742726
     72          1           0       -3.181699    2.250672    3.762114
     73          1           0       -4.009472    0.811517    3.508460
     74          1           0       -2.166121   -1.621076   -0.237469
     75          1           0       -1.951994    0.077592   -0.832601
     76          1           0        0.107131    0.409440    1.348358
     77          1           0       -0.167729   -1.316490    1.352040
     78          1           0       -5.511204    6.846377    0.298795
     79          1           0       -5.694626    6.460119    2.011590
     80          1           0       -4.669743    5.511856    1.169864
     81          1           0       -9.593675    5.906000   -0.417329
     82          1           0       -9.199968    8.022130    0.396223
     83          1           0       -7.674935    7.191206    1.412462
     84          1           0      -11.865526    2.900424   -2.198695
     85          1           0      -13.309793    1.924864   -1.519009
     86          1           0      -12.463656    3.099068   -0.616200
     87          1           0      -12.414743   -1.732569   -0.990672
     88          1           0      -13.338155   -0.322839   -1.681391
     89          1           0      -12.877378   -1.956261   -3.624399
     90          1           0      -12.109450   -0.304297   -3.742561
     91          1           0      -11.329433   -1.563482   -3.395756
     92          1           0       -9.050357   -4.599573   -1.873764
     93          1           0       -8.087028   -5.807658   -0.902679
     94          1           0       -9.397771   -4.772154   -0.267017
     95          1           0       -3.481262   -3.420925   -0.328080
     96          1           0       -1.197477   -4.693640    3.059395
     97          1           0       -2.853623   -5.247751    3.796900
     98          1           0       -2.056690   -6.626744    2.667695
     99          1           0        2.767312   -1.720337   -1.495104
    100          1           0        2.616885   -0.075002   -2.082583
    101          1           0        4.170020   -0.935814    0.548289
    102          1           0        4.159724    1.091103   -2.500284
    103          1           0        5.540970    2.179105   -1.976458
    104          1           0        5.868104    0.840738   -3.078305
    105          1           0        6.618880    1.207831    0.317611
    106          1           0        6.295164   -0.363052    0.782437
    107          1           0        7.624477   -1.326685   -1.198870
    108          1           0        7.908261    0.327055   -1.741343
    109          1           0        9.013901    0.886688    0.033620
    110          1           0        9.049709   -0.822317    0.871049
    111          1           0       10.319670    0.121435   -1.785923
    112          1           0        9.431082   -2.404213   -2.299475
    113          1           0       11.333160   -2.546314   -1.388029
    114          1           0        9.712965   -2.740913   -0.487081
    115          1           0       11.328215    0.540498    0.447583
    116          1           0       11.221777   -1.133600    0.899873
    117          1           0       12.977976   -1.580468   -1.074933
    118          1           0       12.638852    0.071547   -1.626157
    119          1           0       13.764898    0.702103    0.728529
    120          1           0       14.127794   -0.922211    1.105606
    121          1           0       15.280401    0.326781   -1.297047
    122          1           0       16.173790   -2.079183   -0.027009
    123          1           0       15.135699   -2.378025   -1.474741
    124          1           0       16.620555   -1.544043   -1.488239
    125          1           0       16.260487    1.240413    1.116330
    126          1           0       16.428475   -0.415047    1.367852
    127          1           0       18.445183   -0.301537   -0.668537
    128          1           0       17.673330    1.301727   -0.918219
    129          1           0       18.632618    2.467055    0.720899
    130          1           0       18.777021    1.100073    1.748063
    131          1           0       20.563453    0.432143   -0.001150
    132          1           0       20.194875    3.471160   -1.106511
    133          1           0       21.301983    2.087997   -1.738795
    134          1           0       19.417539    2.048159   -1.973423
    135          1           0       21.403363    1.297419    2.075887
    136          1           0       22.210770    2.227944    0.722841
    137          1           0       20.828575    2.925800    1.525865
 ---------------------------------------------------------------------

 SCF Done:  E(RCAM-B3LYP) =  -2933.48521254     A.U. after   16 cycles

 Excitation energies and oscillator strengths:

 Excited State   1:      Singlet-A      1.9246 eV  644.21 nm  f=0.2847  <S**2>=0.000
     240 -> 243        0.15669
     241 -> 242        0.68958
 This state for optimization and/or second-order correction.
 Total Energy, E(TD-HF/TD-DFT) =  -2933.41448477
 Copying the excited state density for this state as the 1-particle RhoCI density.

 The electronic state is 1-A.
 Alpha  occ. eigenvalues --  -46.78324 -19.22275 -19.22004 -19.16223 -19.16090
 Alpha  occ. eigenvalues --  -19.14715 -14.37949 -14.35654 -14.35595 -14.35071
 Alpha  occ. eigenvalues --  -10.34720 -10.33777 -10.30564 -10.29429 -10.27975
 Alpha  occ. eigenvalues --  -10.27039 -10.26438 -10.26175 -10.25569 -10.25504
 Alpha  occ. eigenvalues --  -10.25298 -10.24250 -10.24193 -10.24050 -10.23991
 Alpha  occ. eigenvalues --  -10.23842 -10.23781 -10.23622 -10.23358 -10.22890
 Alpha  occ. eigenvalues --  -10.22880 -10.22871 -10.22847 -10.22824 -10.22530
 Alpha  occ. eigenvalues --  -10.22458 -10.22371 -10.22272 -10.22244 -10.22152
 Alpha  occ. eigenvalues --  -10.22028 -10.22020 -10.22004 -10.21984 -10.21969
 Alpha  occ. eigenvalues --  -10.21853 -10.21707 -10.21666 -10.21646 -10.21435
 Alpha  occ. eigenvalues --  -10.21292 -10.21267 -10.21161 -10.20940 -10.20736
 Alpha  occ. eigenvalues --  -10.20703 -10.20686 -10.20607 -10.20574 -10.20476
 Alpha  occ. eigenvalues --  -10.20436 -10.20134 -10.19987 -10.19279 -10.19100
 Alpha  occ. eigenvalues --   -3.07249  -1.82166  -1.81730  -1.81682  -1.14103
 Alpha  occ. eigenvalues --   -1.11626  -1.03827  -1.02901  -1.00402  -0.98752
 Alpha  occ. eigenvalues --   -0.97119  -0.96145  -0.94998  -0.86663  -0.86465
 Alpha  occ. eigenvalues --   -0.85545  -0.85193  -0.84716  -0.84645  -0.84506
 Alpha  occ. eigenvalues --   -0.83467  -0.83422  -0.82973  -0.81345  -0.80996
 Alpha  occ. eigenvalues --   -0.79769  -0.79460  -0.79212  -0.78076  -0.77348
 Alpha  occ. eigenvalues --   -0.76744  -0.76455  -0.75841  -0.74810  -0.74539
 Alpha  occ. eigenvalues --   -0.73186  -0.72860  -0.71349  -0.71206  -0.70541
 Alpha  occ. eigenvalues --   -0.70198  -0.69970  -0.69232  -0.68346  -0.67796
 Alpha  occ. eigenvalues --   -0.67455  -0.66415  -0.65584  -0.64582  -0.63423
 Alpha  occ. eigenvalues --   -0.62927  -0.62755  -0.61782  -0.60964  -0.60413
 Alpha  occ. eigenvalues --   -0.60057  -0.59286  -0.58804  -0.58390  -0.57978
 Alpha  occ. eigenvalues --   -0.57834  -0.56992  -0.56471  -0.55829  -0.55566
 Alpha  occ. eigenvalues --   -0.54560  -0.54298  -0.53439  -0.52732  -0.52218
 Alpha  occ. eigenvalues --   -0.51873  -0.51573  -0.51405  -0.51303  -0.50957
 Alpha  occ. eigenvalues --   -0.50293  -0.49692  -0.49635  -0.49530  -0.49032
 Alpha  occ. eigenvalues --   -0.48750  -0.48479  -0.48387  -0.48074  -0.47909
 Alpha  occ. eigenvalues --   -0.47603  -0.47265  -0.46908  -0.46852  -0.46673
 Alpha  occ. eigenvalues --   -0.46517  -0.46014  -0.45947  -0.45892  -0.45614
 Alpha  occ. eigenvalues --   -0.45468  -0.45220  -0.45147  -0.44399  -0.44315
 Alpha  occ. eigenvalues --   -0.44139  -0.43833  -0.43440  -0.43360  -0.43311
 Alpha  occ. eigenvalues --   -0.43284  -0.43026  -0.42812  -0.42680  -0.42434
 Alpha  occ. eigenvalues --   -0.42331  -0.42167  -0.41840  -0.41625  -0.41410
 Alpha  occ. eigenvalues --   -0.41358  -0.41022  -0.40920  -0.40828  -0.40669
 Alpha  occ. eigenvalues --   -0.40404  -0.40199  -0.39996  -0.39899  -0.39792
 Alpha  occ. eigenvalues --   -0.39496  -0.39240  -0.39045  -0.38910  -0.38704
 Alpha  occ. eigenvalues --   -0.38466  -0.38320  -0.38109  -0.37956  -0.37847
 Alpha  occ. eigenvalues --   -0.37793  -0.37581  -0.37431  -0.37275  -0.37169
 Alpha  occ. eigenvalues --   -0.36966  -0.36607  -0.36370  -0.36306  -0.36167
 Alpha  occ. eigenvalues --   -0.35901  -0.35808  -0.35376  -0.35193  -0.34851
 Alpha  occ. eigenvalues --   -0.34818  -0.34374  -0.34030  -0.33889  -0.33722
 Alpha  occ. eigenvalues --   -0.33507  -0.33389  -0.32885  -0.32540  -0.32087
 Alpha  occ. eigenvalues --   -0.32005  -0.31838  -0.31462  -0.30089  -0.30029
 Alpha  occ. eigenvalues --   -0.29878  -0.29513  -0.29002  -0.28477  -0.26756
 Alpha  occ. eigenvalues --   -0.26734  -0.26008  -0.25911  -0.25594  -0.22226
 Alpha  occ. eigenvalues --   -0.19588
 Alpha virt. eigenvalues --   -0.07315  -0.02908  -0.00219   0.01303   0.01559
 Alpha virt. eigenvalues --    0.03459   0.04632   0.04852   0.05707   0.05810
 Alpha virt. eigenvalues --    0.06490   0.09167   0.09451   0.09608   0.10278

 Mulliken charges:
               1
     1  Mg   0.798636
     2  C    0.151807
     3  C   -0.196855
     4  C   -0.208329
     5  C   -0.137510
     6  N   -0.644401
     7  C    0.221999
     8  C   -0.118488
     9  C   -0.085212
    10  C    0.310863
    11  C   -0.322798
    12  C   -0.202314
    13  C   -0.281922
    14  C    0.614903
    15  O   -0.508009
    16  O   -0.463450
    17  N   -0.708478
    18  C    0.322876
    19  C   -0.029191
    20  C    0.095719
    21  C    0.322604
    22  C   -0.396623
    23  C   -0.056224
    24  C   -0.241905
    25  N   -0.681646
    26  C    0.321962
    27  C    0.021203
    28  C    0.058176
    29  C    0.322842
    30  C   -0.381270
    31  C   -0.269660
    32  C   -0.318673
    33  N   -0.700719
    34  C    0.223712
    35  C   -0.039844
    36  C    0.086332
    37  C    0.225745
    38  C   -0.363374
    39  C    0.324650
    40  O   -0.466845
    41  C   -0.351944
    42  C    0.614689
    43  O   -0.496390
    44  O   -0.400785
    45  C   -0.083417
    46  C    0.001940
    47  C   -0.138152
    48  C    0.160290
    49  C   -0.372638
    50  C   -0.227931
    51  C   -0.174842
    52  C   -0.164458
    53  C   -0.053093
    54  C   -0.295997
    55  C   -0.149008
    56  C   -0.169035
    57  C   -0.164337
    58  C   -0.071309
    59  C   -0.306508
    60  C   -0.189240
    61  C   -0.144721
    62  C   -0.179086
    63  C   -0.042780
    64  C   -0.318227
    65  C   -0.308491
    66  H    0.076758
    67  H    0.076850
    68  H    0.082666
    69  H    0.124628
    70  H    0.106824
    71  H    0.106219
    72  H    0.098191
    73  H    0.136443
    74  H    0.125249
    75  H    0.112152
    76  H    0.125623
    77  H    0.145084
    78  H    0.145656
    79  H    0.129138
    80  H    0.102780
    81  H    0.081573
    82  H    0.106967
    83  H    0.106247
    84  H    0.120486
    85  H    0.111960
    86  H    0.130622
    87  H    0.107562
    88  H    0.092308
    89  H    0.089890
    90  H    0.118625
    91  H    0.120702
    92  H    0.119155
    93  H    0.144954
    94  H    0.131019
    95  H    0.151412
    96  H    0.118922
    97  H    0.152613
    98  H    0.108346
    99  H    0.139240
   100  H    0.121974
   101  H    0.092370
   102  H    0.095442
   103  H    0.119042
   104  H    0.097920
   105  H    0.107827
   106  H    0.094080
   107  H    0.099939
   108  H    0.100073
   109  H    0.077056
   110  H    0.072805
   111  H    0.085519
   112  H    0.079461
   113  H    0.061047
   114  H    0.119839
   115  H    0.099612
   116  H    0.060270
   117  H    0.100913
   118  H    0.053190
   119  H    0.093699
   120  H    0.074597
   121  H    0.089697
   122  H    0.114674
   123  H    0.088074
   124  H    0.105797
   125  H    0.087652
   126  H    0.090656
   127  H    0.044815
   128  H    0.110974
   129  H    0.070772
   130  H    0.081775
   131  H    0.088531
   132  H    0.114675
   133  H    0.099044
   134  H    0.095573
   135  H    0.098515
   136  H    0.099947
   137  H    0.090470
 Sum of Mulliken charges =  -0.00000

 Dipole moment (field-independent basis, Debye):
    X=              1.7523    Y=              6.0642    Z=              0.6192  Tot=              6.3426
 Quadrupole moment (field-independent basis, Debye-Ang):
   XX=           -337.3526   YY=           -389.2195   ZZ=           -397.3902
   XY=            -21.3301   XZ=             12.4800   YZ=             -1.6914

 Normal termination of Gaussian 16 at Tue Sep 24 04:23:02 2019.
