 Gaussian 16, Revision A.03,
 Gaussian 16:  ES64L-G16RevA.03 25-Dec-2016

 ----------------------------------------------------------------------
 # td=(NStates=1) iop(3/107=0140000000,3/108=0140000000) CAM-B3LYP/6-31
 G(d,p)
 ----------------------------------------------------------------------

 --
 TD
 --
 Symbolic Z-matrix:
 Charge =  0 Multiplicity = 1

                         Standard orientation:
 ---------------------------------------------------------------------
 Center     Atomic      Atomic             Coordinates (Angstroms)
 Number     Number       Type             X           Y           Z
 ---------------------------------------------------------------------
      1         12           0       -7.138746    0.632451    0.207218
      2          6           0       -4.931909   -2.050694    0.521216
      3          6           0       -4.596742    2.791455    1.116619
      4          6           0       -9.261278    3.250607   -0.337750
      5          6           0       -9.542776   -1.590845   -0.926066
      6          7           0       -5.033464    0.364639    0.672707
      7          6           0       -4.450341   -0.747252    0.719210
      8          6           0       -2.936769   -0.559257    1.141587
      9          6           0       -2.982500    0.904260    1.671838
     10          6           0       -4.302292    1.438783    1.214314
     11          6           0       -2.787303    1.043250    3.157623
     12          6           0       -1.941633   -0.836239    0.043636
     13          6           0       -0.485508   -0.751397    0.503009
     14          6           0        0.543500   -0.916711   -0.715290
     15          8           0        0.285388   -1.213806   -1.856815
     16          8           0        1.773915   -0.584710   -0.320977
     17          7           0       -7.005564    2.592187    0.392166
     18          6           0       -5.896918    3.275760    0.835342
     19          6           0       -6.140062    4.688169    0.788528
     20          6           0       -7.543534    4.854295    0.350539
     21          6           0       -7.997601    3.516385    0.150246
     22          6           0       -5.189759    5.830027    1.149540
     23          6           0       -8.310897    6.121281    0.140288
     24          6           0       -7.981615    7.304697    0.681313
     25          7           0       -9.130698    0.860818   -0.492247
     26          6           0       -9.877378    1.968079   -0.501900
     27          6           0      -11.180812    1.726971   -1.004757
     28          6           0      -11.333252    0.349498   -1.127547
     29          6           0       -9.984001   -0.258985   -0.877153
     30          6           0      -12.220327    2.694744   -1.250432
     31          6           0      -12.461558   -0.480875   -1.582327
     32          6           0      -12.478786   -0.773203   -3.115761
     33          7           0       -7.254333   -1.357203   -0.111563
     34          6           0       -8.312571   -2.110186   -0.417857
     35          6           0       -8.049861   -3.589554   -0.421219
     36          6           0       -6.702433   -3.542596   -0.070040
     37          6           0       -6.263558   -2.174585    0.091509
     38          6           0       -8.892324   -4.598108   -1.013445
     39          6           0       -5.498478   -4.415085    0.207579
     40          8           0       -5.416297   -5.614495    0.292670
     41          6           0       -4.345681   -3.411563    0.557923
     42          6           0       -3.651526   -3.663641    1.924611
     43          8           0       -3.846373   -3.003164    3.007364
     44          8           0       -2.834489   -4.764411    1.695812
     45          6           0       -2.226106   -5.386814    2.845151
     46          6           0        2.694531   -0.810740   -1.333172
     47          6           0        4.080836   -0.510469   -0.663559
     48          6           0        5.040703    0.271868   -1.070514
     49          6           0        5.111631    0.956528   -2.434505
     50          6           0        6.373439    0.231610   -0.333169
     51          6           0        7.709895   -0.173365   -1.116335
     52          6           0        8.955170   -0.241529   -0.220477
     53          6           0       10.224858   -0.546801   -0.981833
     54          6           0       10.113650   -1.959267   -1.497692
     55          6           0       11.484991   -0.325748    0.050225
     56          6           0       12.804894   -0.607291   -0.783736
     57          6           0       13.916421   -0.317212    0.125609
     58          6           0       15.386808   -0.359350   -0.367953
     59          6           0       15.736615   -1.715462   -0.999809
     60          6           0       16.465606    0.305349    0.481094
     61          6           0       17.693961    0.705285   -0.074080
     62          6           0       18.709416    1.428654    0.864168
     63          6           0       20.092915    1.513242    0.424955
     64          6           0       20.351637    2.310044   -0.914804
     65          6           0       21.074604    2.117515    1.469949
     66          1           0       -3.908821    3.451033    1.533291
     67          1           0       -9.844862    4.141065   -0.503723
     68          1           0      -10.309737   -2.192682   -1.210959
     69          1           0       -2.555126   -1.113854    2.024579
     70          1           0       -2.056946    1.486879    1.095222
     71          1           0       -1.731901    0.572751    3.356089
     72          1           0       -2.838812    2.059796    3.612778
     73          1           0       -3.377272    0.290306    3.753048
     74          1           0       -2.034352   -1.719598   -0.355092
     75          1           0       -2.126042   -0.090397   -0.716590
     76          1           0       -0.242344    0.294076    0.807192
     77          1           0       -0.403491   -1.529279    1.284556
     78          1           0       -5.521678    6.719711    0.521676
     79          1           0       -5.370055    6.125396    2.214706
     80          1           0       -4.146740    5.642849    1.181208
     81          1           0       -9.174565    6.244648   -0.684136
     82          1           0       -8.370335    8.158742    0.072683
     83          1           0       -7.242738    7.423513    1.496794
     84          1           0      -11.938538    3.262397   -2.247596
     85          1           0      -13.213225    2.165004   -1.370381
     86          1           0      -12.083065    3.527361   -0.607998
     87          1           0      -12.332135   -1.600814   -0.886121
     88          1           0      -13.318842    0.059517   -1.454383
     89          1           0      -13.230340   -1.359892   -3.610724
     90          1           0      -12.562491    0.122862   -3.753220
     91          1           0      -11.470213   -1.255834   -3.374298
     92          1           0       -9.208234   -4.404987   -1.903461
     93          1           0       -8.569505   -5.578098   -0.968672
     94          1           0       -9.960655   -4.641141   -0.382274
     95          1           0       -3.725722   -3.325853   -0.413178
     96          1           0       -1.428272   -4.716064    3.228175
     97          1           0       -3.136836   -5.326326    3.705737
     98          1           0       -1.868854   -6.319704    2.688819
     99          1           0        2.544739   -1.863256   -1.808521
    100          1           0        2.534928   -0.115799   -2.107848
    101          1           0        4.303136   -1.159092    0.229199
    102          1           0        4.255796    1.275933   -2.878675
    103          1           0        5.471401    2.144177   -2.194359
    104          1           0        5.778795    0.575111   -3.055554
    105          1           0        6.530317    1.206108    0.053165
    106          1           0        6.309696   -0.399909    0.728453
    107          1           0        7.542639   -1.124725   -1.867960
    108          1           0        7.997231    0.795492   -1.715888
    109          1           0        9.089534    0.820936    0.367288
    110          1           0        8.900113   -0.945627    0.646341
    111          1           0       10.454648    0.034470   -1.772167
    112          1           0        9.355107   -2.398142   -2.080905
    113          1           0       10.906659   -2.351513   -2.212296
    114          1           0       10.139899   -2.794878   -0.595400
    115          1           0       11.295699    0.564783    0.514515
    116          1           0       11.346181   -0.873152    1.055179
    117          1           0       12.721988   -1.525851   -1.156016
    118          1           0       12.701832    0.026815   -1.657700
    119          1           0       13.704897    0.748252    0.472483
    120          1           0       14.070082   -0.947440    0.998203
    121          1           0       15.404568    0.341143   -1.278593
    122          1           0       15.830814   -2.383582   -0.184140
    123          1           0       14.783470   -1.888645   -1.610648
    124          1           0       16.803469   -1.762756   -1.493125
    125          1           0       16.041642    1.256490    0.930581
    126          1           0       16.566250   -0.271944    1.487685
    127          1           0       18.144535   -0.079632   -0.624873
    128          1           0       17.516990    1.237149   -0.982668
    129          1           0       18.347500    2.579007    1.099250
    130          1           0       18.683976    0.971816    1.982161
    131          1           0       20.272974    0.473175    0.327389
    132          1           0       19.935715    3.381119   -1.063485
    133          1           0       21.411379    2.318784   -1.122088
    134          1           0       19.842017    1.918304   -1.800040
    135          1           0       21.031788    1.745840    2.509997
    136          1           0       22.086811    2.283461    1.193082
    137          1           0       20.731793    3.205201    1.829087
 ---------------------------------------------------------------------

 SCF Done:  E(RCAM-B3LYP) =  -2933.48553873     A.U. after   16 cycles

 Excitation energies and oscillator strengths:

 Excited State   1:      Singlet-A      2.0047 eV  618.47 nm  f=0.2598  <S**2>=0.000
     240 -> 243        0.24139
     241 -> 242        0.65276
 This state for optimization and/or second-order correction.
 Total Energy, E(TD-HF/TD-DFT) =  -2933.41186713
 Copying the excited state density for this state as the 1-particle RhoCI density.

 The electronic state is 1-A.
 Alpha  occ. eigenvalues --  -46.79888 -19.23233 -19.22529 -19.18422 -19.17054
 Alpha  occ. eigenvalues --  -19.16716 -14.37384 -14.35435 -14.35052 -14.34543
 Alpha  occ. eigenvalues --  -10.36691 -10.34689 -10.30990 -10.27874 -10.27256
 Alpha  occ. eigenvalues --  -10.26011 -10.25962 -10.25315 -10.25171 -10.25086
 Alpha  occ. eigenvalues --  -10.24622 -10.24303 -10.24207 -10.24037 -10.23974
 Alpha  occ. eigenvalues --  -10.23875 -10.23872 -10.23760 -10.23656 -10.23535
 Alpha  occ. eigenvalues --  -10.23061 -10.22967 -10.22725 -10.22664 -10.22643
 Alpha  occ. eigenvalues --  -10.22521 -10.22465 -10.22172 -10.22126 -10.22115
 Alpha  occ. eigenvalues --  -10.22113 -10.22104 -10.22084 -10.21925 -10.21841
 Alpha  occ. eigenvalues --  -10.21805 -10.21739 -10.21700 -10.21445 -10.21407
 Alpha  occ. eigenvalues --  -10.21372 -10.21354 -10.21334 -10.21323 -10.21311
 Alpha  occ. eigenvalues --  -10.21291 -10.21221 -10.20889 -10.20860 -10.20739
 Alpha  occ. eigenvalues --  -10.20735 -10.20548 -10.20505 -10.20321 -10.19803
 Alpha  occ. eigenvalues --   -3.08501  -1.83440  -1.82942  -1.82937  -1.15336
 Alpha  occ. eigenvalues --   -1.11286  -1.06975  -1.05252  -1.02945  -1.01189
 Alpha  occ. eigenvalues --   -0.99949  -0.97664  -0.96033  -0.87840  -0.86147
 Alpha  occ. eigenvalues --   -0.85470  -0.85188  -0.84639  -0.84256  -0.83516
 Alpha  occ. eigenvalues --   -0.83381  -0.83314  -0.82639  -0.82340  -0.80849
 Alpha  occ. eigenvalues --   -0.80621  -0.78971  -0.78741  -0.77809  -0.77662
 Alpha  occ. eigenvalues --   -0.76892  -0.76659  -0.75767  -0.75264  -0.73561
 Alpha  occ. eigenvalues --   -0.72950  -0.72234  -0.71789  -0.71414  -0.70629
 Alpha  occ. eigenvalues --   -0.70514  -0.70368  -0.70323  -0.68858  -0.68154
 Alpha  occ. eigenvalues --   -0.67173  -0.66363  -0.65596  -0.64962  -0.63956
 Alpha  occ. eigenvalues --   -0.62874  -0.62133  -0.61820  -0.61247  -0.60048
 Alpha  occ. eigenvalues --   -0.59990  -0.59621  -0.59315  -0.58856  -0.58703
 Alpha  occ. eigenvalues --   -0.57112  -0.56354  -0.55905  -0.55794  -0.55182
 Alpha  occ. eigenvalues --   -0.54870  -0.54213  -0.53844  -0.53675  -0.53469
 Alpha  occ. eigenvalues --   -0.52297  -0.51646  -0.51423  -0.51198  -0.50970
 Alpha  occ. eigenvalues --   -0.50799  -0.50666  -0.50285  -0.49905  -0.49246
 Alpha  occ. eigenvalues --   -0.49158  -0.49021  -0.48623  -0.48463  -0.48223
 Alpha  occ. eigenvalues --   -0.47679  -0.47438  -0.47305  -0.47288  -0.46685
 Alpha  occ. eigenvalues --   -0.46570  -0.46396  -0.46270  -0.46135  -0.45950
 Alpha  occ. eigenvalues --   -0.45706  -0.45330  -0.45230  -0.44847  -0.44772
 Alpha  occ. eigenvalues --   -0.44667  -0.44602  -0.44309  -0.43981  -0.43806
 Alpha  occ. eigenvalues --   -0.43652  -0.43378  -0.43226  -0.42777  -0.42712
 Alpha  occ. eigenvalues --   -0.42348  -0.42036  -0.41978  -0.41783  -0.41616
 Alpha  occ. eigenvalues --   -0.41494  -0.41355  -0.40996  -0.40852  -0.40539
 Alpha  occ. eigenvalues --   -0.40409  -0.40257  -0.40147  -0.40118  -0.39834
 Alpha  occ. eigenvalues --   -0.39624  -0.39388  -0.39314  -0.39137  -0.38931
 Alpha  occ. eigenvalues --   -0.38740  -0.38684  -0.38606  -0.38389  -0.38050
 Alpha  occ. eigenvalues --   -0.37807  -0.37753  -0.37407  -0.37093  -0.37003
 Alpha  occ. eigenvalues --   -0.36802  -0.36532  -0.36237  -0.35940  -0.35813
 Alpha  occ. eigenvalues --   -0.35625  -0.35534  -0.35265  -0.35128  -0.34695
 Alpha  occ. eigenvalues --   -0.34257  -0.34223  -0.33986  -0.33563  -0.33364
 Alpha  occ. eigenvalues --   -0.33343  -0.33115  -0.32956  -0.32534  -0.31865
 Alpha  occ. eigenvalues --   -0.31773  -0.31617  -0.31217  -0.31110  -0.30689
 Alpha  occ. eigenvalues --   -0.30302  -0.29764  -0.29555  -0.28129  -0.27526
 Alpha  occ. eigenvalues --   -0.27480  -0.26939  -0.24848  -0.24318  -0.21541
 Alpha  occ. eigenvalues --   -0.19624
 Alpha virt. eigenvalues --   -0.06942  -0.04075  -0.00199   0.01099   0.02511
 Alpha virt. eigenvalues --    0.04203   0.04328   0.05093   0.05235   0.05900
 Alpha virt. eigenvalues --    0.06713   0.08573   0.09038   0.09541   0.10080

 Mulliken charges:
               1
     1  Mg   0.819059
     2  C    0.095981
     3  C   -0.143868
     4  C   -0.155452
     5  C   -0.146833
     6  N   -0.638242
     7  C    0.344462
     8  C   -0.165397
     9  C   -0.147092
    10  C    0.303110
    11  C   -0.314648
    12  C   -0.151650
    13  C   -0.275245
    14  C    0.584970
    15  O   -0.464338
    16  O   -0.423280
    17  N   -0.739152
    18  C    0.310514
    19  C    0.002173
    20  C    0.006135
    21  C    0.321553
    22  C   -0.390013
    23  C   -0.084674
    24  C   -0.242931
    25  N   -0.668479
    26  C    0.304736
    27  C    0.062779
    28  C    0.028333
    29  C    0.248502
    30  C   -0.384610
    31  C   -0.226611
    32  C   -0.316337
    33  N   -0.702144
    34  C    0.239026
    35  C    0.054476
    36  C   -0.030405
    37  C    0.306943
    38  C   -0.370349
    39  C    0.374173
    40  O   -0.440568
    41  C   -0.325309
    42  C    0.634583
    43  O   -0.481642
    44  O   -0.444461
    45  C   -0.078738
    46  C    0.003855
    47  C   -0.135806
    48  C    0.133038
    49  C   -0.353052
    50  C   -0.220097
    51  C   -0.166171
    52  C   -0.167608
    53  C   -0.046235
    54  C   -0.309300
    55  C   -0.191719
    56  C   -0.175781
    57  C   -0.163031
    58  C   -0.082864
    59  C   -0.302573
    60  C   -0.157897
    61  C   -0.169022
    62  C   -0.152700
    63  C   -0.027736
    64  C   -0.322004
    65  C   -0.321652
    66  H    0.079598
    67  H    0.073614
    68  H    0.064334
    69  H    0.105798
    70  H    0.072613
    71  H    0.089347
    72  H    0.110290
    73  H    0.131213
    74  H    0.118054
    75  H    0.109813
    76  H    0.131124
    77  H    0.128795
    78  H    0.125390
    79  H    0.120657
    80  H    0.115964
    81  H    0.086722
    82  H    0.097045
    83  H    0.106339
    84  H    0.106701
    85  H    0.111811
    86  H    0.128659
    87  H    0.066622
    88  H    0.104563
    89  H    0.111678
    90  H    0.107359
    91  H    0.099339
    92  H    0.149081
    93  H    0.146995
    94  H    0.089615
    95  H    0.171190
    96  H    0.122570
    97  H    0.111644
    98  H    0.142421
    99  H    0.119229
   100  H    0.117777
   101  H    0.083551
   102  H    0.125851
   103  H    0.060223
   104  H    0.142040
   105  H    0.111525
   106  H    0.065257
   107  H    0.086389
   108  H    0.089844
   109  H    0.060419
   110  H    0.095487
   111  H    0.096566
   112  H    0.112746
   113  H    0.084635
   114  H    0.072174
   115  H    0.101709
   116  H    0.076411
   117  H    0.118471
   118  H    0.098869
   119  H    0.086831
   120  H    0.096739
   121  H    0.058072
   122  H    0.106057
   123  H    0.098833
   124  H    0.092081
   125  H    0.081116
   126  H    0.061172
   127  H    0.086776
   128  H    0.098846
   129  H    0.057692
   130  H    0.071334
   131  H    0.102182
   132  H    0.094903
   133  H    0.107923
   134  H    0.097341
   135  H    0.097846
   136  H    0.111584
   137  H    0.075853
 Sum of Mulliken charges =  -0.00000

 Dipole moment (field-independent basis, Debye):
    X=              1.5139    Y=              2.7155    Z=             -0.5981  Tot=              3.1660
 Quadrupole moment (field-independent basis, Debye-Ang):
   XX=           -359.3683   YY=           -391.2213   ZZ=           -395.7833
   XY=            -16.8900   XZ=             10.3368   YZ=             -2.0081

 Normal termination of Gaussian 16 at Sun Sep 22 21:25:54 2019.
