 Gaussian 16, Revision A.03,
 Gaussian 16:  ES64L-G16RevA.03 25-Dec-2016

 ----------------------------------------------------------------------
 # td=(NStates=1) iop(3/107=0140000000,3/108=0140000000) CAM-B3LYP/6-31
 G(d,p)
 ----------------------------------------------------------------------

 --
 TD
 --
 Symbolic Z-matrix:
 Charge =  0 Multiplicity = 1

                         Standard orientation:
 ---------------------------------------------------------------------
 Center     Atomic      Atomic             Coordinates (Angstroms)
 Number     Number       Type             X           Y           Z
 ---------------------------------------------------------------------
      1         12           0       -7.100968    0.668490   -0.005580
      2          6           0       -4.885348   -2.031938    0.492832
      3          6           0       -4.792319    2.716981    1.249888
      4          6           0       -9.325324    3.150936   -0.413107
      5          6           0       -9.596966   -1.689744   -0.995411
      6          7           0       -5.097417    0.356610    0.609616
      7          6           0       -4.396372   -0.697197    0.855449
      8          6           0       -3.005339   -0.407871    1.134721
      9          6           0       -3.083681    0.982859    1.717984
     10          6           0       -4.398946    1.539773    1.203852
     11          6           0       -2.886180    1.230607    3.193290
     12          6           0       -1.991399   -0.743994    0.030273
     13          6           0       -0.597012   -0.478154    0.519813
     14          6           0        0.480849   -0.825602   -0.641529
     15          8           0        0.212821   -1.226093   -1.749804
     16          8           0        1.743832   -0.544597   -0.199492
     17          7           0       -7.078733    2.673317    0.388791
     18          6           0       -6.026669    3.401737    0.782293
     19          6           0       -6.340310    4.786755    0.688218
     20          6           0       -7.606485    4.890846    0.374549
     21          6           0       -8.066088    3.532684    0.159384
     22          6           0       -5.272288    5.934790    1.163811
     23          6           0       -8.489137    6.020379    0.245381
     24          6           0       -8.245923    7.229921    0.838057
     25          7           0       -9.058172    0.714828   -0.546464
     26          6           0       -9.837692    1.860729   -0.682105
     27          6           0      -11.218981    1.535833   -1.127830
     28          6           0      -11.235421    0.213080   -1.306452
     29          6           0       -9.920486   -0.348836   -0.917504
     30          6           0      -12.331688    2.455245   -1.345488
     31          6           0      -12.416987   -0.662980   -1.809697
     32          6           0      -12.112414   -0.802356   -3.362484
     33          7           0       -7.289063   -1.404700   -0.187861
     34          6           0       -8.281587   -2.123177   -0.636306
     35          6           0       -7.986276   -3.537120   -0.547646
     36          6           0       -6.617219   -3.543209   -0.156293
     37          6           0       -6.181883   -2.180981    0.011833
     38          6           0       -8.747219   -4.760037   -0.915198
     39          6           0       -5.497738   -4.358680    0.181916
     40          8           0       -5.283467   -5.582732    0.004888
     41          6           0       -4.266252   -3.407059    0.626244
     42          6           0       -3.685518   -3.836756    1.971650
     43          8           0       -3.895520   -3.242462    3.001547
     44          8           0       -2.948387   -4.947205    1.966582
     45          6           0       -2.319201   -5.316210    3.205097
     46          6           0        2.886414   -0.672769   -1.185755
     47          6           0        4.184413   -0.510104   -0.498968
     48          6           0        5.035879    0.371505   -0.832518
     49          6           0        5.106897    1.364880   -1.910313
     50          6           0        6.307995    0.368360   -0.049438
     51          6           0        7.601006   -0.174675   -0.959331
     52          6           0        8.905277   -0.315136   -0.059100
     53          6           0       10.258170   -0.531323   -0.829436
     54          6           0       10.255814   -1.930403   -1.477219
     55          6           0       11.487844   -0.285067    0.056381
     56          6           0       12.718392   -0.474677   -0.750748
     57          6           0       14.017839   -0.099364    0.045638
     58          6           0       15.361709   -0.167005   -0.635547
     59          6           0       15.665216   -1.553871   -1.128091
     60          6           0       16.476793    0.453180    0.358984
     61          6           0       17.849678    0.729367   -0.186656
     62          6           0       18.785632    1.222177    0.711932
     63          6           0       20.305870    1.283482    0.287153
     64          6           0       20.541021    2.092277   -1.036722
     65          6           0       21.172250    1.870140    1.472599
     66          1           0       -4.267645    3.457598    1.750918
     67          1           0      -10.034362    3.928444   -0.565119
     68          1           0      -10.330937   -2.427385   -1.456978
     69          1           0       -2.565284   -0.962405    1.967603
     70          1           0       -2.380856    1.748582    1.191267
     71          1           0       -1.936686    1.255423    3.421172
     72          1           0       -3.098511    2.338851    3.463832
     73          1           0       -3.611947    0.686223    3.922599
     74          1           0       -2.113197   -1.622502   -0.432604
     75          1           0       -2.185142   -0.132619   -0.905510
     76          1           0       -0.488456    0.623178    1.049650
     77          1           0       -0.171721   -1.172710    1.483651
     78          1           0       -5.434675    7.015459    0.641520
     79          1           0       -5.276982    6.061223    2.166774
     80          1           0       -4.366690    5.668516    0.813462
     81          1           0       -9.166829    5.918023   -0.534872
     82          1           0       -8.838211    8.057360    0.785688
     83          1           0       -7.589173    7.262855    1.838364
     84          1           0      -12.129227    3.429424   -2.067894
     85          1           0      -13.195184    2.070544   -1.616563
     86          1           0      -12.449566    2.874871   -0.365855
     87          1           0      -12.489767   -1.626171   -1.278425
     88          1           0      -13.342585   -0.117689   -1.560543
     89          1           0      -12.724788   -1.449021   -3.925075
     90          1           0      -12.079127    0.291497   -3.573605
     91          1           0      -10.952904   -1.221698   -3.616747
     92          1           0       -8.944120   -4.488857   -1.861170
     93          1           0       -7.939823   -5.553685   -1.012988
     94          1           0       -9.594386   -5.004567   -0.187918
     95          1           0       -3.425501   -3.437139   -0.106825
     96          1           0       -1.681303   -4.601262    3.608621
     97          1           0       -3.117940   -5.440569    4.025883
     98          1           0       -1.952583   -6.276274    2.940693
     99          1           0        2.926698   -1.672703   -1.748815
    100          1           0        2.415745   -0.061744   -1.983439
    101          1           0        4.392898   -1.450131    0.261037
    102          1           0        4.270907    1.523108   -2.530738
    103          1           0        5.609371    2.330203   -1.630873
    104          1           0        5.616935    0.844664   -2.835377
    105          1           0        6.548382    1.431100    0.209971
    106          1           0        6.133120   -0.318429    0.987535
    107          1           0        7.312550   -1.177169   -1.281151
    108          1           0        7.774132    0.538054   -1.746308
    109          1           0        8.738596    0.703181    0.489884
    110          1           0        8.766895   -1.045366    0.694874
    111          1           0       10.326055    0.156535   -1.722565
    112          1           0        9.436986   -2.400540   -1.988536
    113          1           0       11.300623   -2.272386   -2.034325
    114          1           0       10.414358   -2.761907   -0.616611
    115          1           0       11.309829    0.689564    0.483912
    116          1           0       11.462233   -0.889923    1.030314
    117          1           0       12.621920   -1.502859   -1.235460
    118          1           0       12.816916    0.150116   -1.707080
    119          1           0       13.911932    0.969829    0.154820
    120          1           0       14.136495   -0.614657    1.056862
    121          1           0       15.315016    0.567934   -1.688570
    122          1           0       15.668637   -2.261339   -0.260324
    123          1           0       14.743775   -2.029038   -1.731794
    124          1           0       16.531229   -1.478120   -1.742786
    125          1           0       16.331818    1.468871    0.532014
    126          1           0       16.571271   -0.216818    1.306937
    127          1           0       18.276778   -0.271476   -0.584897
    128          1           0       17.634209    1.362296   -1.063027
    129          1           0       18.486511    2.246154    1.029633
    130          1           0       19.126251    0.592309    1.492581
    131          1           0       20.719139    0.384570    0.267256
    132          1           0       20.507562    3.073855   -1.042844
    133          1           0       21.433626    2.032996   -1.417639
    134          1           0       19.920935    1.504764   -1.712279
    135          1           0       21.183203    1.145232    2.337821
    136          1           0       22.202237    2.043007    1.035606
    137          1           0       20.765741    2.821838    1.866036
 ---------------------------------------------------------------------

 SCF Done:  E(RCAM-B3LYP) =  -2933.44270014     A.U. after   16 cycles

 Excitation energies and oscillator strengths:

 Excited State   1:      Singlet-A      1.8610 eV  666.24 nm  f=0.3904  <S**2>=0.000
     240 -> 243       -0.15467
     241 -> 242        0.69309
 This state for optimization and/or second-order correction.
 Total Energy, E(TD-HF/TD-DFT) =  -2933.37431141
 Copying the excited state density for this state as the 1-particle RhoCI density.

 The electronic state is 1-A.
 Alpha  occ. eigenvalues --  -46.80103 -19.21365 -19.21276 -19.17187 -19.15297
 Alpha  occ. eigenvalues --  -19.15057 -14.37419 -14.35529 -14.35040 -14.34624
 Alpha  occ. eigenvalues --  -10.34988 -10.33654 -10.29865 -10.27919 -10.26545
 Alpha  occ. eigenvalues --  -10.26281 -10.26103 -10.24854 -10.24789 -10.24735
 Alpha  occ. eigenvalues --  -10.24582 -10.24521 -10.24225 -10.24155 -10.23889
 Alpha  occ. eigenvalues --  -10.23652 -10.23611 -10.23493 -10.23189 -10.23072
 Alpha  occ. eigenvalues --  -10.23019 -10.22896 -10.22808 -10.22725 -10.22706
 Alpha  occ. eigenvalues --  -10.22693 -10.22545 -10.22523 -10.22490 -10.22251
 Alpha  occ. eigenvalues --  -10.22230 -10.22208 -10.22148 -10.22008 -10.21763
 Alpha  occ. eigenvalues --  -10.21670 -10.21665 -10.21566 -10.21564 -10.21505
 Alpha  occ. eigenvalues --  -10.21395 -10.21388 -10.21286 -10.21108 -10.20915
 Alpha  occ. eigenvalues --  -10.20866 -10.20718 -10.20707 -10.20705 -10.20569
 Alpha  occ. eigenvalues --  -10.20545 -10.20415 -10.20107 -10.19591 -10.17242
 Alpha  occ. eigenvalues --   -3.08643  -1.83592  -1.83099  -1.83053  -1.13020
 Alpha  occ. eigenvalues --   -1.11370  -1.03668  -1.03356  -1.03014  -1.00221
 Alpha  occ. eigenvalues --   -0.99703  -0.98745  -0.96127  -0.87333  -0.87125
 Alpha  occ. eigenvalues --   -0.86082  -0.85385  -0.84911  -0.84660  -0.83951
 Alpha  occ. eigenvalues --   -0.83607  -0.82802  -0.82598  -0.82152  -0.80320
 Alpha  occ. eigenvalues --   -0.79939  -0.79049  -0.78582  -0.78362  -0.77228
 Alpha  occ. eigenvalues --   -0.77140  -0.76502  -0.75170  -0.74666  -0.73799
 Alpha  occ. eigenvalues --   -0.73262  -0.72641  -0.72605  -0.71957  -0.71724
 Alpha  occ. eigenvalues --   -0.70995  -0.70460  -0.69972  -0.68766  -0.68138
 Alpha  occ. eigenvalues --   -0.67029  -0.65968  -0.65120  -0.64485  -0.64126
 Alpha  occ. eigenvalues --   -0.63525  -0.62234  -0.61131  -0.60766  -0.60285
 Alpha  occ. eigenvalues --   -0.59999  -0.59108  -0.58697  -0.58291  -0.58133
 Alpha  occ. eigenvalues --   -0.56528  -0.56254  -0.56083  -0.55547  -0.55024
 Alpha  occ. eigenvalues --   -0.54844  -0.54217  -0.53592  -0.52801  -0.52336
 Alpha  occ. eigenvalues --   -0.52124  -0.51776  -0.51359  -0.51008  -0.50607
 Alpha  occ. eigenvalues --   -0.50474  -0.50078  -0.49951  -0.49268  -0.48988
 Alpha  occ. eigenvalues --   -0.48864  -0.48510  -0.48446  -0.48252  -0.48044
 Alpha  occ. eigenvalues --   -0.47942  -0.47731  -0.47547  -0.47155  -0.46966
 Alpha  occ. eigenvalues --   -0.46790  -0.46496  -0.46412  -0.46332  -0.46077
 Alpha  occ. eigenvalues --   -0.45995  -0.45854  -0.45573  -0.45436  -0.44963
 Alpha  occ. eigenvalues --   -0.44822  -0.44645  -0.44464  -0.44095  -0.43585
 Alpha  occ. eigenvalues --   -0.43393  -0.43213  -0.43112  -0.42843  -0.42453
 Alpha  occ. eigenvalues --   -0.42123  -0.41999  -0.41727  -0.41493  -0.41248
 Alpha  occ. eigenvalues --   -0.41094  -0.41034  -0.40927  -0.40759  -0.40416
 Alpha  occ. eigenvalues --   -0.40279  -0.40113  -0.39890  -0.39777  -0.39641
 Alpha  occ. eigenvalues --   -0.39288  -0.39147  -0.39101  -0.39058  -0.38984
 Alpha  occ. eigenvalues --   -0.38531  -0.38356  -0.38215  -0.37996  -0.37954
 Alpha  occ. eigenvalues --   -0.37532  -0.37328  -0.37286  -0.37244  -0.37102
 Alpha  occ. eigenvalues --   -0.36981  -0.36760  -0.36460  -0.36299  -0.35941
 Alpha  occ. eigenvalues --   -0.35756  -0.35732  -0.35221  -0.34642  -0.34555
 Alpha  occ. eigenvalues --   -0.34417  -0.33853  -0.33688  -0.33520  -0.33197
 Alpha  occ. eigenvalues --   -0.33032  -0.32733  -0.32717  -0.32250  -0.32084
 Alpha  occ. eigenvalues --   -0.32034  -0.31992  -0.31849  -0.30477  -0.30226
 Alpha  occ. eigenvalues --   -0.30011  -0.29369  -0.29266  -0.28586  -0.27779
 Alpha  occ. eigenvalues --   -0.26529  -0.26103  -0.25724  -0.25503  -0.22260
 Alpha  occ. eigenvalues --   -0.18914
 Alpha virt. eigenvalues --   -0.07359  -0.02685   0.00021   0.02183   0.03723
 Alpha virt. eigenvalues --    0.04010   0.04183   0.05006   0.05708   0.06141
 Alpha virt. eigenvalues --    0.06526   0.08768   0.09248   0.09543   0.09794

 Mulliken charges:
               1
     1  Mg   0.814959
     2  C    0.051593
     3  C   -0.192909
     4  C   -0.177288
     5  C   -0.181118
     6  N   -0.636408
     7  C    0.359016
     8  C   -0.142801
     9  C   -0.160439
    10  C    0.361110
    11  C   -0.302751
    12  C   -0.151526
    13  C   -0.255181
    14  C    0.603786
    15  O   -0.463055
    16  O   -0.486809
    17  N   -0.681749
    18  C    0.250738
    19  C   -0.019442
    20  C    0.040325
    21  C    0.287367
    22  C   -0.364220
    23  C   -0.075089
    24  C   -0.242102
    25  N   -0.693146
    26  C    0.284549
    27  C    0.069205
    28  C   -0.007849
    29  C    0.304587
    30  C   -0.372447
    31  C   -0.241771
    32  C   -0.294542
    33  N   -0.722600
    34  C    0.303288
    35  C   -0.002025
    36  C    0.045382
    37  C    0.281828
    38  C   -0.376393
    39  C    0.315291
    40  O   -0.480873
    41  C   -0.315008
    42  C    0.606705
    43  O   -0.476156
    44  O   -0.435877
    45  C   -0.084778
    46  C   -0.003567
    47  C   -0.158132
    48  C    0.214148
    49  C   -0.371575
    50  C   -0.243328
    51  C   -0.186643
    52  C   -0.177326
    53  C   -0.043629
    54  C   -0.318079
    55  C   -0.156687
    56  C   -0.179047
    57  C   -0.154106
    58  C   -0.057405
    59  C   -0.290689
    60  C   -0.152784
    61  C   -0.184029
    62  C   -0.132095
    63  C   -0.082960
    64  C   -0.317574
    65  C   -0.325837
    66  H    0.071547
    67  H    0.071186
    68  H    0.100099
    69  H    0.119948
    70  H    0.096697
    71  H    0.119809
    72  H    0.092326
    73  H    0.122028
    74  H    0.132628
    75  H    0.112304
    76  H    0.118106
    77  H    0.102389
    78  H    0.099939
    79  H    0.134277
    80  H    0.120281
    81  H    0.095203
    82  H    0.102132
    83  H    0.086224
    84  H    0.095125
    85  H    0.120405
    86  H    0.133902
    87  H    0.104962
    88  H    0.104235
    89  H    0.113324
    90  H    0.118119
    91  H    0.082876
    92  H    0.139709
    93  H    0.148356
    94  H    0.127908
    95  H    0.150414
    96  H    0.133815
    97  H    0.120614
    98  H    0.131921
    99  H    0.118186
   100  H    0.123885
   101  H    0.093693
   102  H    0.121145
   103  H    0.119805
   104  H    0.118728
   105  H    0.093797
   106  H    0.071863
   107  H    0.101523
   108  H    0.106523
   109  H    0.073816
   110  H    0.101930
   111  H    0.086335
   112  H    0.115736
   113  H    0.082435
   114  H    0.071780
   115  H    0.097810
   116  H    0.085311
   117  H    0.088014
   118  H    0.083757
   119  H    0.099963
   120  H    0.079208
   121  H    0.027622
   122  H    0.095206
   123  H    0.082556
   124  H    0.111937
   125  H    0.097641
   126  H    0.075066
   127  H    0.062811
   128  H    0.094660
   129  H    0.077040
   130  H    0.094653
   131  H    0.103436
   132  H    0.105765
   133  H    0.101898
   134  H    0.101462
   135  H    0.091312
   136  H    0.095234
   137  H    0.101617
 Sum of Mulliken charges =  -0.00000

 Dipole moment (field-independent basis, Debye):
    X=              2.3335    Y=              4.5309    Z=             -0.1910  Tot=              5.1000
 Quadrupole moment (field-independent basis, Debye-Ang):
   XX=           -331.7408   YY=           -402.4194   ZZ=           -394.8384
   XY=            -17.3725   XZ=             10.4667   YZ=             -3.1763

 Normal termination of Gaussian 16 at Wed Sep  4 04:42:45 2019.
