 Gaussian 09, Revision D.01,
 Gaussian 09:  ES64L-G09RevD.01 24-Apr-2013

 -------------------------------------
 # td=(NStates=1) CAM-B3LYP/6-31G(d,p)
 -------------------------------------

 --
 TD
 --
 Symbolic Z-matrix:
 Charge =  0 Multiplicity = 1

                         Standard orientation:
 ---------------------------------------------------------------------
 Center     Atomic      Atomic             Coordinates (Angstroms)
 Number     Number       Type             X           Y           Z
 ---------------------------------------------------------------------
      1         12           0       -7.181718    0.599640    0.076198
      2          6           0       -4.826672   -1.975506    0.499239
      3          6           0       -4.773806    2.772899    1.197884
      4          6           0       -9.446595    3.096178   -0.476017
      5          6           0       -9.499385   -1.788307   -0.885839
      6          7           0       -5.164184    0.476902    0.750615
      7          6           0       -4.355059   -0.684275    0.833638
      8          6           0       -2.949376   -0.417553    1.310397
      9          6           0       -3.065233    1.079878    1.635295
     10          6           0       -4.430544    1.456280    1.202849
     11          6           0       -2.885701    1.431985    3.037320
     12          6           0       -1.894009   -0.671810    0.065268
     13          6           0       -0.432092   -0.421734    0.535584
     14          6           0        0.505218   -0.550223   -0.558817
     15          8           0        0.264873   -0.874779   -1.736344
     16          8           0        1.816849   -0.385757   -0.131975
     17          7           0       -7.020989    2.596388    0.260883
     18          6           0       -6.002008    3.357897    0.690983
     19          6           0       -6.382459    4.743520    0.868651
     20          6           0       -7.689828    4.829214    0.374220
     21          6           0       -8.077248    3.472417    0.054638
     22          6           0       -5.421624    5.783137    1.258789
     23          6           0       -8.558275    6.052570    0.237650
     24          6           0       -8.464709    7.248731    0.840001
     25          7           0       -9.075920    0.597956   -0.503612
     26          6           0       -9.836559    1.712696   -0.674472
     27          6           0      -11.206063    1.379635   -1.155424
     28          6           0      -11.302026    0.019948   -1.220409
     29          6           0       -9.925651   -0.361823   -0.815616
     30          6           0      -12.218012    2.446826   -1.395226
     31          6           0      -12.361422   -0.757256   -1.780202
     32          6           0      -12.292633   -0.934434   -3.343873
     33          7           0       -7.177401   -1.457354   -0.102596
     34          6           0       -8.260484   -2.304635   -0.599247
     35          6           0       -7.758257   -3.618202   -0.627110
     36          6           0       -6.401210   -3.570070   -0.108456
     37          6           0       -6.151359   -2.259926    0.114243
     38          6           0       -8.548132   -4.839561   -0.960224
     39          6           0       -5.249700   -4.364882    0.136147
     40          8           0       -5.074808   -5.580949    0.100869
     41          6           0       -4.163942   -3.293179    0.529432
     42          6           0       -3.656702   -3.716028    1.932576
     43          8           0       -3.855108   -3.127887    2.959949
     44          8           0       -2.809762   -4.822461    1.823774
     45          6           0       -2.318179   -5.383301    3.063437
     46          6           0        2.854323   -0.580176   -1.173551
     47          6           0        4.122056   -0.393257   -0.518361
     48          6           0        5.109063    0.513462   -0.907385
     49          6           0        5.165509    1.398435   -2.179731
     50          6           0        6.299818    0.561531   -0.123737
     51          6           0        7.600843   -0.003280   -1.002983
     52          6           0        8.963045    0.152926   -0.122888
     53          6           0       10.185933   -0.440943   -0.820576
     54          6           0        9.966886   -1.917760   -1.176459
     55          6           0       11.435237   -0.132561   -0.017384
     56          6           0       12.726590   -0.718353   -0.626312
     57          6           0       13.918022   -0.212701    0.149379
     58          6           0       15.360660   -0.295361   -0.536686
     59          6           0       15.616166   -1.758585   -0.950820
     60          6           0       16.427538    0.313548    0.460242
     61          6           0       17.702698    0.473101   -0.216320
     62          6           0       18.742625    1.115005    0.710952
     63          6           0       20.202649    1.295863    0.153613
     64          6           0       20.328288    2.043260   -1.137618
     65          6           0       21.102739    1.885434    1.283859
     66          1           0       -3.911986    3.504900    1.613158
     67          1           0      -10.045807    3.770709   -0.928135
     68          1           0      -10.064372   -2.578449   -1.059361
     69          1           0       -2.626135   -1.088171    2.089289
     70          1           0       -2.253718    1.489809    0.984390
     71          1           0       -1.975632    0.830460    3.589381
     72          1           0       -3.040195    2.507646    3.129004
     73          1           0       -3.908814    1.081723    3.788982
     74          1           0       -2.196571   -1.825839   -0.219190
     75          1           0       -2.009593    0.149690   -0.654638
     76          1           0       -0.503625    0.722953    0.834299
     77          1           0       -0.172013   -1.176243    1.438231
     78          1           0       -5.817933    6.676161    0.796399
     79          1           0       -5.249436    5.974209    2.295436
     80          1           0       -4.367639    5.464617    0.950420
     81          1           0       -9.327581    5.839173   -0.498408
     82          1           0       -9.073486    7.966437    0.368167
     83          1           0       -7.659582    7.717134    1.620978
     84          1           0      -11.839086    3.167631   -2.231966
     85          1           0      -13.031667    1.985021   -1.993861
     86          1           0      -12.838356    2.728934   -0.404667
     87          1           0      -12.254971   -1.837916   -1.395099
     88          1           0      -13.413730   -0.483116   -1.316223
     89          1           0      -12.878078   -1.692489   -3.898186
     90          1           0      -12.177380    0.199262   -3.738398
     91          1           0      -11.215980   -1.564404   -3.380143
     92          1           0       -9.050794   -4.702716   -2.053255
     93          1           0       -7.790081   -5.662696   -1.060462
     94          1           0       -9.427537   -5.175041   -0.352736
     95          1           0       -3.244886   -3.481485   -0.098544
     96          1           0       -1.836838   -4.615900    3.494994
     97          1           0       -3.226664   -5.447810    3.772659
     98          1           0       -1.658965   -6.272492    2.702613
     99          1           0        2.787738   -1.635530   -1.592097
    100          1           0        2.716540    0.045874   -2.017532
    101          1           0        4.220686   -0.865542    0.420173
    102          1           0        4.289044    1.722266   -2.672467
    103          1           0        5.602752    2.303742   -1.899709
    104          1           0        5.705442    0.702481   -2.962799
    105          1           0        6.748455    1.616860   -0.000933
    106          1           0        6.494515   -0.106626    0.762125
    107          1           0        7.300502   -0.932274   -1.213313
    108          1           0        7.703535    0.672546   -1.908093
    109          1           0        9.136524    1.195720    0.329287
    110          1           0        8.726803   -0.353930    0.737728
    111          1           0       10.145074   -0.037931   -1.790398
    112          1           0        9.104395   -2.139562   -1.759265
    113          1           0       10.779926   -2.123018   -1.704877
    114          1           0        9.851029   -2.413621   -0.115913
    115          1           0       11.547657    0.925986    0.090417
    116          1           0       11.442369   -0.708084    1.077113
    117          1           0       12.745056   -1.743231   -0.685294
    118          1           0       12.904860   -0.268420   -1.628068
    119          1           0       13.704873    1.066256    0.338403
    120          1           0       13.947588   -0.666808    1.329989
    121          1           0       15.324586    0.348775   -1.477538
    122          1           0       15.748262   -2.526890   -0.245425
    123          1           0       14.893281   -2.111267   -1.800249
    124          1           0       16.518371   -1.776278   -1.373797
    125          1           0       15.871764    1.356467    0.743793
    126          1           0       16.538417   -0.178865    1.357176
    127          1           0       18.101057   -0.429078   -0.738083
    128          1           0       17.674121    1.345179   -1.011952
    129          1           0       18.277625    2.133612    0.755739
    130          1           0       18.767509    0.541492    1.820896
    131          1           0       20.661308    0.278027    0.059692
    132          1           0       19.955141    3.024693   -0.976589
    133          1           0       21.461138    2.161466   -1.556365
    134          1           0       19.884965    1.453464   -2.047866
    135          1           0       21.253294    1.166128    2.317406
    136          1           0       21.998108    2.041768    0.906780
    137          1           0       20.882845    2.760065    1.677940
 ---------------------------------------------------------------------

 SCF Done:  E(RCAM-B3LYP) =  -2932.60698914     A.U. after   15 cycles

 Excitation energies and oscillator strengths:

 Excited State   1:      Singlet-A      1.9033 eV  651.42 nm  f=0.2675  <S**2>=0.000
     240 -> 243        0.20894
     241 -> 242        0.65833
 This state for optimization and/or second-order correction.
 Total Energy, E(TD-HF/TD-KS) =  -2932.53704422
 Copying the excited state density for this state as the 1-particle RhoCI density.

 The electronic state is 1-A.
 Alpha  occ. eigenvalues --  -46.84360 -19.25228 -19.24652 -19.21340 -19.20634
 Alpha  occ. eigenvalues --  -19.19773 -14.41734 -14.40965 -14.40037 -14.38377
 Alpha  occ. eigenvalues --  -10.39079 -10.39021 -10.34498 -10.31169 -10.30849
 Alpha  occ. eigenvalues --  -10.30818 -10.30695 -10.30657 -10.29949 -10.29842
 Alpha  occ. eigenvalues --  -10.29768 -10.29727 -10.28963 -10.28734 -10.28687
 Alpha  occ. eigenvalues --  -10.28624 -10.28381 -10.28329 -10.28281 -10.28262
 Alpha  occ. eigenvalues --  -10.28161 -10.28050 -10.27914 -10.27784 -10.27746
 Alpha  occ. eigenvalues --  -10.27459 -10.27411 -10.27268 -10.27226 -10.27190
 Alpha  occ. eigenvalues --  -10.27089 -10.27057 -10.26885 -10.26749 -10.26678
 Alpha  occ. eigenvalues --  -10.26516 -10.26415 -10.26388 -10.26337 -10.26312
 Alpha  occ. eigenvalues --  -10.26298 -10.26295 -10.26109 -10.25726 -10.25586
 Alpha  occ. eigenvalues --  -10.25338 -10.25227 -10.25005 -10.24941 -10.24865
 Alpha  occ. eigenvalues --  -10.24662 -10.24430 -10.23660 -10.23616 -10.23430
 Alpha  occ. eigenvalues --   -3.13511  -1.88207  -1.87797  -1.87661  -1.16561
 Alpha  occ. eigenvalues --   -1.15535  -1.09786  -1.08774  -1.06882  -1.05619
 Alpha  occ. eigenvalues --   -1.05055  -1.03591  -1.02950  -0.93090  -0.91002
 Alpha  occ. eigenvalues --   -0.90428  -0.90185  -0.90147  -0.89649  -0.88738
 Alpha  occ. eigenvalues --   -0.88239  -0.87708  -0.87611  -0.86877  -0.86310
 Alpha  occ. eigenvalues --   -0.84972  -0.84476  -0.83767  -0.83213  -0.82382
 Alpha  occ. eigenvalues --   -0.81563  -0.80850  -0.80293  -0.79856  -0.78233
 Alpha  occ. eigenvalues --   -0.77730  -0.77245  -0.76336  -0.76205  -0.75421
 Alpha  occ. eigenvalues --   -0.75269  -0.74715  -0.74323  -0.72559  -0.72036
 Alpha  occ. eigenvalues --   -0.71091  -0.70174  -0.69823  -0.68429  -0.68005
 Alpha  occ. eigenvalues --   -0.66967  -0.66167  -0.65154  -0.64726  -0.64622
 Alpha  occ. eigenvalues --   -0.64187  -0.62965  -0.62458  -0.62089  -0.61681
 Alpha  occ. eigenvalues --   -0.61192  -0.60481  -0.60065  -0.59573  -0.59192
 Alpha  occ. eigenvalues --   -0.58599  -0.58476  -0.58222  -0.56934  -0.56456
 Alpha  occ. eigenvalues --   -0.55863  -0.55475  -0.55147  -0.54857  -0.54482
 Alpha  occ. eigenvalues --   -0.53939  -0.53629  -0.53461  -0.53136  -0.52693
 Alpha  occ. eigenvalues --   -0.52563  -0.52225  -0.52083  -0.51789  -0.51668
 Alpha  occ. eigenvalues --   -0.51497  -0.51390  -0.50603  -0.50528  -0.50415
 Alpha  occ. eigenvalues --   -0.50140  -0.49916  -0.49860  -0.49566  -0.49443
 Alpha  occ. eigenvalues --   -0.49407  -0.49258  -0.48934  -0.48691  -0.48292
 Alpha  occ. eigenvalues --   -0.48256  -0.47997  -0.47862  -0.47788  -0.47679
 Alpha  occ. eigenvalues --   -0.47439  -0.46983  -0.46581  -0.46231  -0.46123
 Alpha  occ. eigenvalues --   -0.45932  -0.45611  -0.45469  -0.45111  -0.44894
 Alpha  occ. eigenvalues --   -0.44715  -0.44700  -0.44323  -0.43822  -0.43730
 Alpha  occ. eigenvalues --   -0.43511  -0.43477  -0.43453  -0.43200  -0.42973
 Alpha  occ. eigenvalues --   -0.42740  -0.42501  -0.42456  -0.42382  -0.42252
 Alpha  occ. eigenvalues --   -0.41712  -0.41605  -0.41536  -0.41443  -0.41405
 Alpha  occ. eigenvalues --   -0.41084  -0.40961  -0.40857  -0.40484  -0.40287
 Alpha  occ. eigenvalues --   -0.40154  -0.40028  -0.39443  -0.39402  -0.38939
 Alpha  occ. eigenvalues --   -0.38673  -0.38362  -0.38070  -0.37961  -0.37771
 Alpha  occ. eigenvalues --   -0.37246  -0.36949  -0.36711  -0.36546  -0.36348
 Alpha  occ. eigenvalues --   -0.36303  -0.36066  -0.35671  -0.35655  -0.35506
 Alpha  occ. eigenvalues --   -0.35270  -0.35090  -0.34779  -0.34075  -0.33452
 Alpha  occ. eigenvalues --   -0.33409  -0.33178  -0.31872  -0.30459  -0.30095
 Alpha  occ. eigenvalues --   -0.29785  -0.28393  -0.27767  -0.27467  -0.23189
 Alpha  occ. eigenvalues --   -0.21141
 Alpha virt. eigenvalues --   -0.07422  -0.03373   0.01503   0.04184   0.04889
 Alpha virt. eigenvalues --    0.05252   0.05602   0.06409   0.06655   0.07338
 Alpha virt. eigenvalues --    0.08168   0.09880   0.10272   0.10987   0.11189

 Mulliken charges:
               1
     1  Mg   0.826017
     2  C    0.098686
     3  C   -0.223870
     4  C   -0.148322
     5  C   -0.136531
     6  N   -0.636459
     7  C    0.291902
     8  C   -0.153079
     9  C   -0.130691
    10  C    0.407709
    11  C   -0.290904
    12  C   -0.168881
    13  C   -0.273506
    14  C    0.636346
    15  O   -0.485543
    16  O   -0.505594
    17  N   -0.688851
    18  C    0.290946
    19  C    0.024501
    20  C   -0.001301
    21  C    0.259661
    22  C   -0.381772
    23  C   -0.057972
    24  C   -0.248605
    25  N   -0.661576
    26  C    0.279773
    27  C    0.013836
    28  C    0.106944
    29  C    0.256070
    30  C   -0.392368
    31  C   -0.275979
    32  C   -0.282588
    33  N   -0.749554
    34  C    0.255674
    35  C    0.026012
    36  C    0.040686
    37  C    0.323149
    38  C   -0.387913
    39  C    0.346458
    40  O   -0.471405
    41  C   -0.380421
    42  C    0.615062
    43  O   -0.457971
    44  O   -0.479370
    45  C   -0.077567
    46  C    0.030377
    47  C   -0.144205
    48  C    0.126591
    49  C   -0.361937
    50  C   -0.244591
    51  C   -0.216696
    52  C   -0.177896
    53  C   -0.067008
    54  C   -0.302631
    55  C   -0.155068
    56  C   -0.179299
    57  C   -0.141081
    58  C   -0.059991
    59  C   -0.317636
    60  C   -0.153335
    61  C   -0.176149
    62  C   -0.157750
    63  C   -0.052481
    64  C   -0.309535
    65  C   -0.297423
    66  H    0.075263
    67  H    0.092983
    68  H    0.068101
    69  H    0.128943
    70  H    0.101879
    71  H    0.100747
    72  H    0.118171
    73  H    0.077958
    74  H    0.104287
    75  H    0.122305
    76  H    0.132915
    77  H    0.135501
    78  H    0.120748
    79  H    0.126843
    80  H    0.110326
    81  H    0.093506
    82  H    0.106294
    83  H    0.106040
    84  H    0.121973
    85  H    0.113300
    86  H    0.129421
    87  H    0.098123
    88  H    0.097505
    89  H    0.123623
    90  H    0.102127
    91  H    0.079912
    92  H    0.095369
    93  H    0.149651
    94  H    0.134992
    95  H    0.166319
    96  H    0.133058
    97  H    0.125833
    98  H    0.132327
    99  H    0.115568
   100  H    0.122185
   101  H    0.095019
   102  H    0.120616
   103  H    0.124668
   104  H    0.122316
   105  H    0.094839
   106  H    0.105648
   107  H    0.116352
   108  H    0.093443
   109  H    0.076020
   110  H    0.096484
   111  H    0.090942
   112  H    0.107101
   113  H    0.113175
   114  H    0.080079
   115  H    0.102624
   116  H    0.065193
   117  H    0.118162
   118  H    0.086947
   119  H    0.027537
   120  H    0.052637
   121  H    0.085123
   122  H    0.109171
   123  H    0.087260
   124  H    0.109496
   125  H    0.074613
   126  H    0.104782
   127  H    0.093088
   128  H    0.080993
   129  H    0.087878
   130  H    0.059364
   131  H    0.087453
   132  H    0.113284
   133  H    0.082256
   134  H    0.101693
   135  H    0.059273
   136  H    0.106080
   137  H    0.111197
 Sum of Mulliken charges =   0.00000

 Dipole moment (field-independent basis, Debye):
    X=              0.7105    Y=              4.4722    Z=             -0.9062  Tot=              4.6181
 Quadrupole moment (field-independent basis, Debye-Ang):
   XX=           -314.0587   YY=           -395.4955   ZZ=           -398.0055
   XY=            -18.4879   XZ=              6.5911   YZ=             -4.6577

 Normal termination of Gaussian 09 at Wed Jul  3 17:18:28 2019.
