 Gaussian 16, Revision A.03,
 Gaussian 16:  ES64L-G16RevA.03 25-Dec-2016

 ----------------------------------------------------------------------
 # td=(NStates=1) iop(3/107=0140000000,3/108=0140000000) CAM-B3LYP/6-31
 G(d,p)
 ----------------------------------------------------------------------

 --
 TD
 --
 Symbolic Z-matrix:
 Charge =  0 Multiplicity = 1

                         Standard orientation:
 ---------------------------------------------------------------------
 Center     Atomic      Atomic             Coordinates (Angstroms)
 Number     Number       Type             X           Y           Z
 ---------------------------------------------------------------------
      1         12           0       -7.040670    0.570480    0.133867
      2          6           0       -4.790433   -1.993860    0.529959
      3          6           0       -4.758777    2.840640    1.199998
      4          6           0       -9.347326    3.062743   -0.360357
      5          6           0       -9.568357   -1.785943   -0.832303
      6          7           0       -5.078580    0.503166    0.668372
      7          6           0       -4.323862   -0.700134    0.869158
      8          6           0       -2.841737   -0.391197    1.351941
      9          6           0       -2.991141    1.191173    1.682177
     10          6           0       -4.378112    1.500234    1.123620
     11          6           0       -2.766160    1.418327    3.194143
     12          6           0       -1.883537   -0.625976    0.169594
     13          6           0       -0.420933   -0.315423    0.498012
     14          6           0        0.458851   -0.543999   -0.678415
     15          8           0        0.184920   -1.016334   -1.689513
     16          8           0        1.724705   -0.294048   -0.293095
     17          7           0       -7.028333    2.591991    0.296294
     18          6           0       -5.929208    3.313998    0.778735
     19          6           0       -6.293920    4.761180    0.772193
     20          6           0       -7.602348    4.862201    0.366710
     21          6           0       -7.969963    3.462959   -0.000084
     22          6           0       -5.369883    5.846262    1.189315
     23          6           0       -8.471505    6.050362   -0.040974
     24          6           0       -8.330532    7.192433    0.725404
     25          7           0       -9.178851    0.642094   -0.490295
     26          6           0       -9.794393    1.802695   -0.617752
     27          6           0      -11.147428    1.492723   -1.092055
     28          6           0      -11.293969    0.153583   -1.147403
     29          6           0       -9.927486   -0.440967   -0.825441
     30          6           0      -12.292771    2.501539   -1.326156
     31          6           0      -12.487376   -0.637179   -1.643513
     32          6           0      -12.344463   -1.046181   -3.174604
     33          7           0       -7.211893   -1.394999   -0.255445
     34          6           0       -8.283902   -2.241585   -0.520282
     35          6           0       -7.836824   -3.670393   -0.558268
     36          6           0       -6.523163   -3.563463   -0.018964
     37          6           0       -6.221525   -2.163540    0.149448
     38          6           0       -8.697339   -4.865087   -0.923085
     39          6           0       -5.335640   -4.414239    0.252310
     40          8           0       -5.094390   -5.596574    0.273132
     41          6           0       -4.202752   -3.285585    0.606026
     42          6           0       -3.567353   -3.794350    1.925997
     43          8           0       -3.749845   -3.122477    2.982873
     44          8           0       -2.761400   -4.881060    1.794162
     45          6           0       -2.135010   -5.233405    3.077758
     46          6           0        2.812678   -0.585764   -1.256830
     47          6           0        4.098140   -0.390391   -0.623756
     48          6           0        5.082767    0.387591   -1.094428
     49          6           0        5.071260    1.313486   -2.199620
     50          6           0        6.477049    0.369542   -0.302272
     51          6           0        7.594611   -0.258849   -1.030278
     52          6           0        8.960878   -0.233726   -0.325545
     53          6           0       10.172417   -0.632819   -0.992028
     54          6           0        9.994456   -2.168596   -1.530450
     55          6           0       11.384895   -0.447903   -0.023185
     56          6           0       12.743346   -0.635407   -0.807677
     57          6           0       13.913475   -0.314549    0.198167
     58          6           0       15.361184   -0.257010   -0.531777
     59          6           0       15.768205   -1.740183   -0.983105
     60          6           0       16.329038    0.291642    0.516005
     61          6           0       17.744447    0.492819   -0.133349
     62          6           0       18.694055    1.334097    0.829372
     63          6           0       20.101596    1.505311    0.306798
     64          6           0       20.157185    2.268575   -0.910407
     65          6           0       20.987380    2.219095    1.447011
     66          1           0       -3.920261    3.514914    1.514135
     67          1           0      -10.200097    3.625181   -0.785402
     68          1           0      -10.359912   -2.449850   -1.228007
     69          1           0       -2.733266   -0.835376    2.336123
     70          1           0       -2.216570    1.638364    0.959421
     71          1           0       -1.684964    1.230255    3.449619
     72          1           0       -3.050856    2.352958    3.645504
     73          1           0       -3.496771    0.742327    3.723846
     74          1           0       -1.831319   -1.519292   -0.376078
     75          1           0       -2.162127    0.137339   -0.529747
     76          1           0       -0.400243    0.751919    0.640062
     77          1           0       -0.154782   -1.081966    1.249652
     78          1           0       -5.703685    6.795568    0.617562
     79          1           0       -5.595096    6.272830    2.157962
     80          1           0       -4.320313    5.712527    0.789486
     81          1           0       -9.169912    5.934382   -0.803917
     82          1           0       -8.851713    8.040798    0.539259
     83          1           0       -7.689674    7.401307    1.668413
     84          1           0      -11.995335    3.076414   -2.150198
     85          1           0      -13.098363    2.095135   -1.613862
     86          1           0      -12.285156    3.097835   -0.369409
     87          1           0      -12.503091   -1.507697   -0.926286
     88          1           0      -13.513796   -0.129702   -1.652339
     89          1           0      -13.421154   -1.408113   -3.696461
     90          1           0      -12.227544   -0.047970   -3.842986
     91          1           0      -11.425845   -1.623297   -3.578415
     92          1           0       -9.207723   -4.501598   -1.879675
     93          1           0       -8.126141   -5.871045   -1.292609
     94          1           0       -9.447798   -5.044176   -0.116026
     95          1           0       -3.389633   -3.447974   -0.211672
     96          1           0       -1.335546   -4.483879    3.459020
     97          1           0       -2.804243   -5.284398    4.040403
     98          1           0       -1.736096   -6.135048    2.778877
     99          1           0        2.567104   -1.617385   -1.562270
    100          1           0        2.681425    0.081064   -2.288489
    101          1           0        4.362140   -0.980348    0.316267
    102          1           0        4.031134    0.961569   -2.841859
    103          1           0        5.088028    2.343535   -1.915229
    104          1           0        6.013025    1.335343   -3.007229
    105          1           0        6.497338    1.447957   -0.033884
    106          1           0        6.224226   -0.117478    0.688885
    107          1           0        7.335969   -1.302419   -1.507193
    108          1           0        7.754345    0.265352   -1.986749
    109          1           0        8.870021    0.682799    0.136451
    110          1           0        8.787916   -1.014560    0.463569
    111          1           0       10.442250   -0.173784   -2.116481
    112          1           0        9.117862   -2.312447   -2.303044
    113          1           0       10.882250   -2.353797   -1.840574
    114          1           0        9.855660   -2.916034   -0.681361
    115          1           0       11.262520    0.547931    0.360367
    116          1           0       11.288297   -1.207950    0.917215
    117          1           0       12.717951   -1.551775   -1.093601
    118          1           0       12.819685    0.113709   -1.653297
    119          1           0       13.845537    0.672502    0.462349
    120          1           0       13.825695   -0.909620    1.052346
    121          1           0       15.487477    0.240463   -1.444149
    122          1           0       15.915473   -2.214889   -0.065624
    123          1           0       14.937165   -2.281958   -1.618167
    124          1           0       16.683851   -1.778341   -1.485002
    125          1           0       15.998220    1.250142    0.882065
    126          1           0       16.473831   -0.192737    1.380433
    127          1           0       18.107301   -0.602351   -0.097417
    128          1           0       17.886346    0.969651   -1.258205
    129          1           0       18.401130    2.332327    0.916682
    130          1           0       18.564891    0.796231    1.877354
    131          1           0       20.329070    0.449331    0.271859
    132          1           0       19.584447    3.171396   -0.774182
    133          1           0       21.094369    2.616661   -1.240909
    134          1           0       19.653797    1.645636   -1.716737
    135          1           0       21.083068    1.708659    2.365081
    136          1           0       21.977413    2.173312    1.105656
    137          1           0       20.477785    3.171004    1.606521
 ---------------------------------------------------------------------

 SCF Done:  E(RCAM-B3LYP) =  -2933.49842012     A.U. after   16 cycles

 Excitation energies and oscillator strengths:

 Excited State   1:      Singlet-A      1.9622 eV  631.86 nm  f=0.2950  <S**2>=0.000
     240 -> 243        0.18678
     241 -> 242        0.68194
 This state for optimization and/or second-order correction.
 Total Energy, E(TD-HF/TD-DFT) =  -2933.42631057
 Copying the excited state density for this state as the 1-particle RhoCI density.

 The electronic state is 1-A.
 Alpha  occ. eigenvalues --  -46.80568 -19.23097 -19.20418 -19.16563 -19.16170
 Alpha  occ. eigenvalues --  -19.15847 -14.38593 -14.35773 -14.35748 -14.33904
 Alpha  occ. eigenvalues --  -10.34516 -10.33040 -10.30409 -10.28226 -10.27396
 Alpha  occ. eigenvalues --  -10.26676 -10.26325 -10.25976 -10.25255 -10.24867
 Alpha  occ. eigenvalues --  -10.24622 -10.24194 -10.24182 -10.23978 -10.23937
 Alpha  occ. eigenvalues --  -10.23904 -10.23857 -10.23791 -10.23474 -10.23459
 Alpha  occ. eigenvalues --  -10.23428 -10.23412 -10.23284 -10.23284 -10.23119
 Alpha  occ. eigenvalues --  -10.22842 -10.22773 -10.22675 -10.22461 -10.22448
 Alpha  occ. eigenvalues --  -10.22424 -10.22333 -10.22323 -10.22207 -10.22043
 Alpha  occ. eigenvalues --  -10.22017 -10.21918 -10.21570 -10.21439 -10.21413
 Alpha  occ. eigenvalues --  -10.21269 -10.20997 -10.20931 -10.20606 -10.20509
 Alpha  occ. eigenvalues --  -10.20481 -10.20255 -10.20244 -10.19903 -10.19869
 Alpha  occ. eigenvalues --  -10.19840 -10.19673 -10.19569 -10.19471 -10.19154
 Alpha  occ. eigenvalues --   -3.09145  -1.84087  -1.83629  -1.83541  -1.14155
 Alpha  occ. eigenvalues --   -1.11505  -1.06211  -1.05293  -1.01733  -0.99732
 Alpha  occ. eigenvalues --   -0.98740  -0.98484  -0.97433  -0.86819  -0.86498
 Alpha  occ. eigenvalues --   -0.85285  -0.85121  -0.84693  -0.83841  -0.83360
 Alpha  occ. eigenvalues --   -0.83295  -0.82448  -0.82192  -0.81325  -0.81012
 Alpha  occ. eigenvalues --   -0.80212  -0.78771  -0.78076  -0.78034  -0.76812
 Alpha  occ. eigenvalues --   -0.76318  -0.75887  -0.75286  -0.74704  -0.72956
 Alpha  occ. eigenvalues --   -0.72798  -0.71644  -0.71621  -0.71482  -0.71218
 Alpha  occ. eigenvalues --   -0.70610  -0.70420  -0.70003  -0.69022  -0.67663
 Alpha  occ. eigenvalues --   -0.66604  -0.65810  -0.64588  -0.63994  -0.63450
 Alpha  occ. eigenvalues --   -0.62746  -0.62107  -0.61153  -0.60866  -0.60380
 Alpha  occ. eigenvalues --   -0.60106  -0.60070  -0.58323  -0.57867  -0.57779
 Alpha  occ. eigenvalues --   -0.57588  -0.56417  -0.55668  -0.55363  -0.54670
 Alpha  occ. eigenvalues --   -0.54428  -0.54061  -0.53519  -0.53244  -0.52689
 Alpha  occ. eigenvalues --   -0.51759  -0.51303  -0.50993  -0.50640  -0.50376
 Alpha  occ. eigenvalues --   -0.50219  -0.50107  -0.49762  -0.49682  -0.49260
 Alpha  occ. eigenvalues --   -0.48931  -0.48418  -0.48372  -0.48123  -0.47926
 Alpha  occ. eigenvalues --   -0.47610  -0.47413  -0.47373  -0.47199  -0.46656
 Alpha  occ. eigenvalues --   -0.46510  -0.46325  -0.46037  -0.45881  -0.45799
 Alpha  occ. eigenvalues --   -0.45552  -0.45170  -0.44847  -0.44681  -0.44485
 Alpha  occ. eigenvalues --   -0.44397  -0.44256  -0.44162  -0.44007  -0.43605
 Alpha  occ. eigenvalues --   -0.43421  -0.43052  -0.42775  -0.42633  -0.42400
 Alpha  occ. eigenvalues --   -0.42148  -0.42134  -0.41901  -0.41764  -0.41607
 Alpha  occ. eigenvalues --   -0.41497  -0.41306  -0.41011  -0.40874  -0.40765
 Alpha  occ. eigenvalues --   -0.40607  -0.40420  -0.40315  -0.39910  -0.39822
 Alpha  occ. eigenvalues --   -0.39559  -0.39504  -0.39328  -0.39070  -0.39021
 Alpha  occ. eigenvalues --   -0.38932  -0.38735  -0.38610  -0.38381  -0.38251
 Alpha  occ. eigenvalues --   -0.38112  -0.38001  -0.37775  -0.37646  -0.37315
 Alpha  occ. eigenvalues --   -0.37117  -0.36791  -0.36536  -0.36305  -0.35971
 Alpha  occ. eigenvalues --   -0.35881  -0.35559  -0.35387  -0.34640  -0.34547
 Alpha  occ. eigenvalues --   -0.34173  -0.33898  -0.33789  -0.33408  -0.33195
 Alpha  occ. eigenvalues --   -0.32670  -0.32388  -0.32325  -0.32199  -0.32093
 Alpha  occ. eigenvalues --   -0.31963  -0.31748  -0.31435  -0.30508  -0.29956
 Alpha  occ. eigenvalues --   -0.29291  -0.29007  -0.28928  -0.27983  -0.27408
 Alpha  occ. eigenvalues --   -0.26785  -0.26072  -0.25537  -0.25177  -0.22046
 Alpha  occ. eigenvalues --   -0.18958
 Alpha virt. eigenvalues --   -0.06667  -0.02927   0.00196   0.02039   0.03162
 Alpha virt. eigenvalues --    0.03770   0.04493   0.05023   0.05166   0.05938
 Alpha virt. eigenvalues --    0.06325   0.09035   0.09167   0.09288   0.09659

 Mulliken charges:
               1
     1  Mg   0.821348
     2  C    0.126618
     3  C   -0.199211
     4  C   -0.146513
     5  C   -0.171771
     6  N   -0.634798
     7  C    0.236142
     8  C   -0.147296
     9  C   -0.157464
    10  C    0.370738
    11  C   -0.323265
    12  C   -0.177627
    13  C   -0.265503
    14  C    0.586028
    15  O   -0.432245
    16  O   -0.487368
    17  N   -0.691284
    18  C    0.339887
    19  C    0.033854
    20  C    0.005842
    21  C    0.264518
    22  C   -0.400163
    23  C   -0.069027
    24  C   -0.235046
    25  N   -0.703344
    26  C    0.330366
    27  C   -0.033528
    28  C    0.017780
    29  C    0.291284
    30  C   -0.341315
    31  C   -0.230869
    32  C   -0.299486
    33  N   -0.700133
    34  C    0.238825
    35  C    0.047088
    36  C   -0.033600
    37  C    0.309565
    38  C   -0.370223
    39  C    0.364243
    40  O   -0.448642
    41  C   -0.370081
    42  C    0.632285
    43  O   -0.504741
    44  O   -0.435569
    45  C   -0.090086
    46  C    0.004477
    47  C   -0.100030
    48  C    0.128832
    49  C   -0.349995
    50  C   -0.226770
    51  C   -0.177815
    52  C   -0.139500
    53  C   -0.058009
    54  C   -0.311019
    55  C   -0.178582
    56  C   -0.176429
    57  C   -0.178783
    58  C   -0.066615
    59  C   -0.325795
    60  C   -0.173915
    61  C   -0.189599
    62  C   -0.158992
    63  C   -0.065288
    64  C   -0.297795
    65  C   -0.318005
    66  H    0.090075
    67  H    0.072334
    68  H    0.094971
    69  H    0.135177
    70  H    0.094586
    71  H    0.117331
    72  H    0.116304
    73  H    0.124916
    74  H    0.126917
    75  H    0.109115
    76  H    0.129866
    77  H    0.142986
    78  H    0.111060
    79  H    0.135717
    80  H    0.116489
    81  H    0.110136
    82  H    0.102162
    83  H    0.097212
    84  H    0.122398
    85  H    0.106153
    86  H    0.120417
    87  H    0.103826
    88  H    0.103583
    89  H    0.077208
    90  H    0.086712
    91  H    0.111835
    92  H    0.116601
    93  H    0.127802
    94  H    0.138008
    95  H    0.149487
    96  H    0.115100
    97  H    0.135598
    98  H    0.134331
    99  H    0.129146
   100  H    0.093732
   101  H    0.090014
   102  H    0.075162
   103  H    0.137707
   104  H    0.100704
   105  H    0.098144
   106  H    0.087675
   107  H    0.083146
   108  H    0.088845
   109  H    0.091264
   110  H    0.090096
   111  H    0.053250
   112  H    0.096149
   113  H    0.111358
   114  H    0.085150
   115  H    0.100683
   116  H    0.070557
   117  H    0.112619
   118  H    0.089737
   119  H    0.101679
   120  H    0.095713
   121  H    0.095405
   122  H    0.105396
   123  H    0.083058
   124  H    0.107852
   125  H    0.090106
   126  H    0.101739
   127  H    0.086677
   128  H    0.069628
   129  H    0.085995
   130  H    0.066189
   131  H    0.084641
   132  H    0.098771
   133  H    0.109082
   134  H    0.095544
   135  H    0.102230
   136  H    0.104596
   137  H    0.097564
 Sum of Mulliken charges =  -0.00000

 Dipole moment (field-independent basis, Debye):
    X=              3.1139    Y=              5.2976    Z=              0.6985  Tot=              6.1846
 Quadrupole moment (field-independent basis, Debye-Ang):
   XX=           -351.7488   YY=           -391.5634   ZZ=           -394.6090
   XY=            -22.4937   XZ=             12.1558   YZ=             -2.2219

 Normal termination of Gaussian 16 at Wed Sep 11 10:49:57 2019.
