 Gaussian 09, Revision D.01,
 Gaussian 09:  ES64L-G09RevD.01 24-Apr-2013

 -------------------------------------
 # td=(NStates=1) CAM-B3LYP/6-31G(d,p)
 -------------------------------------

 --
 TD
 --
 Symbolic Z-matrix:
 Charge =  0 Multiplicity = 1

                         Standard orientation:
 ---------------------------------------------------------------------
 Center     Atomic      Atomic             Coordinates (Angstroms)
 Number     Number       Type             X           Y           Z
 ---------------------------------------------------------------------
      1         12           0       -7.095382    0.644177   -0.153922
      2          6           0       -4.841080   -1.958233    0.519298
      3          6           0       -4.816503    2.814851    1.101175
      4          6           0       -9.349644    3.073904   -0.445857
      5          6           0       -9.512719   -1.735329   -0.902035
      6          7           0       -5.077363    0.419644    0.666714
      7          6           0       -4.352887   -0.670707    0.653071
      8          6           0       -2.834798   -0.379719    1.135490
      9          6           0       -3.004711    1.055332    1.645746
     10          6           0       -4.326908    1.397836    1.139781
     11          6           0       -2.870243    1.200270    3.191705
     12          6           0       -1.946569   -0.669201   -0.021109
     13          6           0       -0.511194   -0.403388    0.494155
     14          6           0        0.523465   -0.665776   -0.474476
     15          8           0        0.239494   -1.053723   -1.649407
     16          8           0        1.812723   -0.319246   -0.179738
     17          7           0       -7.046244    2.654593    0.213283
     18          6           0       -6.014264    3.340319    0.682002
     19          6           0       -6.353063    4.744407    0.739931
     20          6           0       -7.618882    4.773489    0.268946
     21          6           0       -8.132343    3.391296    0.018195
     22          6           0       -5.407000    5.908513    0.970969
     23          6           0       -8.584790    5.976225    0.360885
     24          6           0       -8.428109    7.017841    1.094251
     25          7           0       -9.196870    0.595072   -0.458744
     26          6           0       -9.911913    1.793692   -0.635807
     27          6           0      -11.258642    1.477251   -0.991079
     28          6           0      -11.302900    0.048647   -1.106013
     29          6           0       -9.953481   -0.369037   -0.929867
     30          6           0      -12.442440    2.454105   -1.183169
     31          6           0      -12.438681   -0.698688   -1.753569
     32          6           0      -12.194228   -0.920314   -3.256250
     33          7           0       -7.295545   -1.368002   -0.064014
     34          6           0       -8.332490   -2.267144   -0.569314
     35          6           0       -7.821987   -3.588880   -0.558924
     36          6           0       -6.535719   -3.562716   -0.229277
     37          6           0       -6.203984   -2.175484    0.051881
     38          6           0       -8.687180   -4.714239   -0.871931
     39          6           0       -5.296009   -4.362290   -0.004077
     40          8           0       -5.275706   -5.545291    0.247458
     41          6           0       -4.211237   -3.397628    0.478877
     42          6           0       -3.610380   -3.826271    1.896108
     43          8           0       -3.948542   -3.265061    2.948728
     44          8           0       -2.705809   -4.732714    1.709188
     45          6           0       -2.083649   -5.063343    2.985913
     46          6           0        2.832475   -0.417053   -1.232691
     47          6           0        4.101887   -0.358425   -0.518188
     48          6           0        5.169091    0.411344   -0.874208
     49          6           0        5.034445    1.335720   -2.070801
     50          6           0        6.439258    0.601533   -0.173594
     51          6           0        7.691180    0.031997   -0.816699
     52          6           0        8.955768    0.004257   -0.082677
     53          6           0       10.249772   -0.567400   -0.819345
     54          6           0       10.160960   -2.064309   -1.256454
     55          6           0       11.398711   -0.389943    0.047313
     56          6           0       12.759586   -0.681437   -0.523627
     57          6           0       13.909211   -0.151998    0.371806
     58          6           0       15.248773   -0.297043   -0.432679
     59          6           0       15.749576   -1.668451   -0.835533
     60          6           0       16.391064    0.412487    0.390169
     61          6           0       17.810797    0.576385   -0.356044
     62          6           0       18.876480    1.145773    0.675274
     63          6           0       20.172698    1.343459    0.071886
     64          6           0       20.373731    2.197323   -1.185541
     65          6           0       21.130205    1.901727    1.158274
     66          1           0       -3.895297    3.218613    1.336395
     67          1           0      -10.150914    3.752855   -0.585484
     68          1           0      -10.325675   -2.550623   -1.027995
     69          1           0       -2.471619   -1.069416    1.867743
     70          1           0       -2.132930    1.780577    1.006364
     71          1           0       -1.908113    0.862212    3.510187
     72          1           0       -3.156544    2.230007    3.577320
     73          1           0       -3.552026    0.397602    3.436303
     74          1           0       -2.019677   -1.629944   -0.224448
     75          1           0       -2.121648    0.082328   -0.729252
     76          1           0       -0.217853    0.416596    1.247071
     77          1           0       -0.290972   -1.279088    1.109769
     78          1           0       -5.535802    6.786962    0.350309
     79          1           0       -5.451675    6.254199    2.155321
     80          1           0       -4.240257    5.678693    0.935039
     81          1           0       -9.223249    5.893029   -0.438742
     82          1           0       -9.288448    7.883554    1.133954
     83          1           0       -7.662370    6.950635    1.800016
     84          1           0      -12.251766    2.795972   -2.195124
     85          1           0      -13.427140    1.983379   -1.107544
     86          1           0      -12.447818    3.417634   -0.572295
     87          1           0      -12.588172   -1.786978   -1.385418
     88          1           0      -13.419575   -0.065322   -1.621344
     89          1           0      -13.018466   -1.490788   -3.701465
     90          1           0      -12.154987   -0.163868   -4.015513
     91          1           0      -11.260920   -1.624613   -3.087723
     92          1           0       -8.923018   -4.897018   -2.044859
     93          1           0       -8.094937   -5.653711   -0.596002
     94          1           0       -9.764055   -4.602248   -0.348503
     95          1           0       -3.374302   -3.586582   -0.135175
     96          1           0       -1.701610   -4.159522    3.623068
     97          1           0       -2.762283   -5.787186    3.512940
     98          1           0       -1.181964   -5.792264    2.737228
     99          1           0        2.884975   -1.584310   -1.668982
    100          1           0        2.586005    0.320501   -1.806642
    101          1           0        4.228631   -0.795575    0.560080
    102          1           0        4.051269    1.499383   -2.396008
    103          1           0        5.601750    2.364601   -1.786559
    104          1           0        5.718604    0.771669   -2.807286
    105          1           0        6.469711    1.536927    0.233159
    106          1           0        6.206463   -0.198905    0.669078
    107          1           0        7.558433   -0.869586   -1.289328
    108          1           0        7.758466    0.943971   -1.586428
    109          1           0        9.058092    0.944500    0.143603
    110          1           0        8.723293   -0.463908    0.920672
    111          1           0       10.398473    0.080513   -1.602291
    112          1           0        9.369450   -2.108360   -1.853322
    113          1           0       11.115611   -2.427493   -1.799723
    114          1           0       10.121579   -2.710230   -0.364764
    115          1           0       11.393078    0.549774    0.527372
    116          1           0       11.376330   -1.109186    0.912835
    117          1           0       12.753096   -1.785499   -0.840674
    118          1           0       12.912107   -0.333603   -1.577605
    119          1           0       13.872745    0.849704    0.503830
    120          1           0       13.950691   -0.736106    1.328834
    121          1           0       15.012601    0.259453   -1.361599
    122          1           0       15.583286   -2.348434    0.051666
    123          1           0       15.131124   -2.266976   -1.672006
    124          1           0       16.699735   -1.704328   -1.153533
    125          1           0       16.009017    1.294922    0.825842
    126          1           0       16.475418   -0.340747    1.255798
    127          1           0       17.870400   -0.583713   -0.741487
    128          1           0       17.882428    1.426248   -1.240084
    129          1           0       18.495996    1.949948    0.984142
    130          1           0       18.697159    0.450645    1.527419
    131          1           0       20.506761    0.335004   -0.164938
    132          1           0       19.828888    3.068503   -0.922075
    133          1           0       21.374949    2.520243   -1.466784
    134          1           0       19.940200    1.787736   -2.098611
    135          1           0       20.980665    1.440590    2.344934
    136          1           0       22.252247    1.882026    1.084103
    137          1           0       20.914804    2.900234    1.348210
 ---------------------------------------------------------------------

 SCF Done:  E(RCAM-B3LYP) =  -2932.58279116     A.U. after   15 cycles

 Excitation energies and oscillator strengths:

 Excited State   1:      Singlet-A      2.1487 eV  577.03 nm  f=0.1396  <S**2>=0.000
     240 -> 242       -0.11238
     240 -> 243       -0.27901
     241 -> 242        0.61219
     241 -> 243       -0.16198
 This state for optimization and/or second-order correction.
 Total Energy, E(TD-HF/TD-KS) =  -2932.50382933
 Copying the excited state density for this state as the 1-particle RhoCI density.

 The electronic state is 1-A.
 Alpha  occ. eigenvalues --  -46.85350 -19.29296 -19.25982 -19.21145 -19.21114
 Alpha  occ. eigenvalues --  -19.19535 -14.42087 -14.39489 -14.38938 -14.38017
 Alpha  occ. eigenvalues --  -10.40162 -10.39180 -10.35793 -10.34233 -10.32539
 Alpha  occ. eigenvalues --  -10.31481 -10.30936 -10.29983 -10.29812 -10.29656
 Alpha  occ. eigenvalues --  -10.29022 -10.28641 -10.28544 -10.28274 -10.28200
 Alpha  occ. eigenvalues --  -10.27956 -10.27765 -10.27726 -10.27697 -10.27695
 Alpha  occ. eigenvalues --  -10.27683 -10.27586 -10.27580 -10.27352 -10.27038
 Alpha  occ. eigenvalues --  -10.26930 -10.26663 -10.26396 -10.26383 -10.26262
 Alpha  occ. eigenvalues --  -10.26245 -10.26104 -10.26064 -10.26023 -10.26019
 Alpha  occ. eigenvalues --  -10.25849 -10.25723 -10.25626 -10.25612 -10.25505
 Alpha  occ. eigenvalues --  -10.25499 -10.25438 -10.25382 -10.25357 -10.25289
 Alpha  occ. eigenvalues --  -10.25234 -10.25052 -10.25046 -10.25025 -10.24677
 Alpha  occ. eigenvalues --  -10.24602 -10.24413 -10.24161 -10.23653 -10.23492
 Alpha  occ. eigenvalues --   -3.14195  -1.88893  -1.88461  -1.88329  -1.21105
 Alpha  occ. eigenvalues --   -1.16373  -1.12323  -1.08970  -1.07018  -1.06145
 Alpha  occ. eigenvalues --   -1.05137  -1.02996  -1.01939  -0.92639  -0.92387
 Alpha  occ. eigenvalues --   -0.91639  -0.91042  -0.90436  -0.88998  -0.88840
 Alpha  occ. eigenvalues --   -0.88506  -0.88377  -0.87924  -0.87047  -0.86915
 Alpha  occ. eigenvalues --   -0.86006  -0.84533  -0.83608  -0.83192  -0.82320
 Alpha  occ. eigenvalues --   -0.81868  -0.81458  -0.80655  -0.80113  -0.79257
 Alpha  occ. eigenvalues --   -0.77114  -0.76860  -0.76655  -0.76266  -0.76004
 Alpha  occ. eigenvalues --   -0.75935  -0.75258  -0.74588  -0.74198  -0.72703
 Alpha  occ. eigenvalues --   -0.72182  -0.71407  -0.70094  -0.68398  -0.67911
 Alpha  occ. eigenvalues --   -0.66779  -0.66699  -0.65709  -0.65323  -0.64848
 Alpha  occ. eigenvalues --   -0.64455  -0.64295  -0.63943  -0.63085  -0.62619
 Alpha  occ. eigenvalues --   -0.62069  -0.60826  -0.60246  -0.59975  -0.59305
 Alpha  occ. eigenvalues --   -0.58937  -0.58314  -0.57812  -0.57484  -0.57168
 Alpha  occ. eigenvalues --   -0.56479  -0.56183  -0.55974  -0.55844  -0.55278
 Alpha  occ. eigenvalues --   -0.55121  -0.54857  -0.54383  -0.54076  -0.53575
 Alpha  occ. eigenvalues --   -0.53439  -0.52923  -0.52774  -0.52222  -0.51985
 Alpha  occ. eigenvalues --   -0.51734  -0.51579  -0.51349  -0.51003  -0.50700
 Alpha  occ. eigenvalues --   -0.50543  -0.50341  -0.49811  -0.49630  -0.49417
 Alpha  occ. eigenvalues --   -0.49390  -0.49125  -0.48789  -0.48624  -0.48531
 Alpha  occ. eigenvalues --   -0.48244  -0.47873  -0.47584  -0.47369  -0.47222
 Alpha  occ. eigenvalues --   -0.46941  -0.46876  -0.46608  -0.46399  -0.46139
 Alpha  occ. eigenvalues --   -0.46012  -0.45932  -0.45439  -0.45337  -0.45151
 Alpha  occ. eigenvalues --   -0.45039  -0.44795  -0.44479  -0.44249  -0.44196
 Alpha  occ. eigenvalues --   -0.44134  -0.43862  -0.43611  -0.43454  -0.43058
 Alpha  occ. eigenvalues --   -0.42822  -0.42795  -0.42652  -0.42624  -0.42508
 Alpha  occ. eigenvalues --   -0.42222  -0.41893  -0.41831  -0.41702  -0.41511
 Alpha  occ. eigenvalues --   -0.41376  -0.41287  -0.41231  -0.40930  -0.40669
 Alpha  occ. eigenvalues --   -0.40468  -0.39976  -0.39804  -0.39274  -0.39110
 Alpha  occ. eigenvalues --   -0.38493  -0.38303  -0.38145  -0.37882  -0.37804
 Alpha  occ. eigenvalues --   -0.37687  -0.37384  -0.37300  -0.36792  -0.36787
 Alpha  occ. eigenvalues --   -0.36199  -0.36127  -0.35892  -0.35638  -0.35460
 Alpha  occ. eigenvalues --   -0.35223  -0.34918  -0.34316  -0.33513  -0.32962
 Alpha  occ. eigenvalues --   -0.32841  -0.32470  -0.32424  -0.31150  -0.30603
 Alpha  occ. eigenvalues --   -0.29654  -0.28628  -0.28181  -0.26678  -0.23396
 Alpha  occ. eigenvalues --   -0.20709
 Alpha virt. eigenvalues --   -0.05259  -0.03658   0.01415   0.03624   0.04482
 Alpha virt. eigenvalues --    0.05496   0.06076   0.06383   0.07633   0.07825
 Alpha virt. eigenvalues --    0.08921   0.10503   0.10870   0.11352   0.11736

 Mulliken charges:
               1
     1  Mg   0.839654
     2  C    0.094384
     3  C   -0.178650
     4  C   -0.165887
     5  C   -0.196386
     6  N   -0.587611
     7  C    0.247871
     8  C   -0.162601
     9  C   -0.157337
    10  C    0.294852
    11  C   -0.299849
    12  C   -0.114686
    13  C   -0.303300
    14  C    0.610341
    15  O   -0.513101
    16  O   -0.510459
    17  N   -0.741382
    18  C    0.350343
    19  C    0.033843
    20  C   -0.069164
    21  C    0.363947
    22  C   -0.372815
    23  C   -0.015115
    24  C   -0.251719
    25  N   -0.661242
    26  C    0.260194
    27  C   -0.002621
    28  C    0.022991
    29  C    0.277628
    30  C   -0.375516
    31  C   -0.242530
    32  C   -0.285025
    33  N   -0.707514
    34  C    0.265716
    35  C    0.074227
    36  C    0.003884
    37  C    0.264917
    38  C   -0.391564
    39  C    0.372215
    40  O   -0.429080
    41  C   -0.328115
    42  C    0.634272
    43  O   -0.490713
    44  O   -0.407251
    45  C   -0.106612
    46  C    0.065432
    47  C   -0.142040
    48  C    0.106153
    49  C   -0.341184
    50  C   -0.226093
    51  C   -0.170262
    52  C   -0.161538
    53  C   -0.058870
    54  C   -0.313240
    55  C   -0.157168
    56  C   -0.193651
    57  C   -0.163787
    58  C   -0.071839
    59  C   -0.305748
    60  C   -0.193341
    61  C   -0.178352
    62  C   -0.148096
    63  C   -0.048895
    64  C   -0.326484
    65  C   -0.312128
    66  H    0.064471
    67  H    0.083925
    68  H    0.085970
    69  H    0.106949
    70  H    0.069953
    71  H    0.115543
    72  H    0.121417
    73  H    0.141260
    74  H    0.129347
    75  H    0.129306
    76  H    0.143555
    77  H    0.138514
    78  H    0.140203
    79  H    0.092532
    80  H    0.103366
    81  H    0.086917
    82  H    0.091422
    83  H    0.103340
    84  H    0.130655
    85  H    0.121694
    86  H    0.112323
    87  H    0.096223
    88  H    0.082749
    89  H    0.093942
    90  H    0.112336
    91  H    0.089876
    92  H    0.113000
    93  H    0.141887
    94  H    0.113432
    95  H    0.152000
    96  H    0.144089
    97  H    0.149479
    98  H    0.114400
    99  H    0.121686
   100  H    0.124381
   101  H    0.092269
   102  H    0.110278
   103  H    0.087084
   104  H    0.121834
   105  H    0.118701
   106  H    0.064589
   107  H    0.102775
   108  H    0.060996
   109  H    0.100056
   110  H    0.076392
   111  H    0.095001
   112  H    0.110576
   113  H    0.094922
   114  H    0.107361
   115  H    0.084441
   116  H    0.079870
   117  H    0.085219
   118  H    0.078361
   119  H    0.108880
   120  H    0.088039
   121  H    0.084181
   122  H    0.094261
   123  H    0.076329
   124  H    0.119003
   125  H    0.089508
   126  H    0.079865
   127  H    0.073424
   128  H    0.071666
   129  H    0.101642
   130  H    0.098472
   131  H    0.093233
   132  H    0.104508
   133  H    0.113196
   134  H    0.108484
   135  H    0.051200
   136  H    0.098771
   137  H    0.110170
 Sum of Mulliken charges =   0.00000

 Dipole moment (field-independent basis, Debye):
    X=              3.9578    Y=              3.2206    Z=              0.0011  Tot=              5.1026
 Quadrupole moment (field-independent basis, Debye-Ang):
   XX=           -386.3377   YY=           -392.0273   ZZ=           -398.5255
   XY=             -8.5487   XZ=             18.2157   YZ=             -3.2663

 Normal termination of Gaussian 09 at Sat Jul  6 17:36:52 2019.
