 Gaussian 16, Revision A.03,
 Gaussian 16:  ES64L-G16RevA.03 25-Dec-2016

 ----------------------------------------------------------------------
 # td=(NStates=1) iop(3/107=0140000000,3/108=0140000000) CAM-B3LYP/6-31
 G(d,p)
 ----------------------------------------------------------------------

 --
 TD
 --
 Symbolic Z-matrix:
 Charge =  0 Multiplicity = 1

                         Standard orientation:
 ---------------------------------------------------------------------
 Center     Atomic      Atomic             Coordinates (Angstroms)
 Number     Number       Type             X           Y           Z
 ---------------------------------------------------------------------
      1         12           0       -7.130958    0.641759    0.048447
      2          6           0       -4.895185   -1.961255    0.571675
      3          6           0       -4.833216    2.765987    1.279438
      4          6           0       -9.338058    3.090368   -0.396810
      5          6           0       -9.529949   -1.672645   -0.951971
      6          7           0       -5.020870    0.438853    0.649188
      7          6           0       -4.323013   -0.716507    0.845689
      8          6           0       -2.910494   -0.472894    1.297461
      9          6           0       -2.981159    1.139508    1.685888
     10          6           0       -4.378552    1.526992    1.157677
     11          6           0       -2.850607    1.145593    3.241641
     12          6           0       -1.999694   -0.704234    0.175451
     13          6           0       -0.571083   -0.489315    0.661052
     14          6           0        0.506869   -0.707848   -0.430802
     15          8           0        0.126653   -1.209379   -1.498127
     16          8           0        1.707472   -0.367247    0.034291
     17          7           0       -7.052250    2.569376    0.335932
     18          6           0       -6.012329    3.410511    0.883742
     19          6           0       -6.384284    4.691992    0.896736
     20          6           0       -7.649120    4.894805    0.423312
     21          6           0       -8.050622    3.492867    0.095628
     22          6           0       -5.320656    5.849646    1.159121
     23          6           0       -8.459754    6.030209    0.114476
     24          6           0       -8.300991    7.151626    0.734044
     25          7           0       -9.026854    0.757843   -0.631895
     26          6           0       -9.826032    1.889184   -0.583698
     27          6           0      -11.067729    1.531421   -1.079285
     28          6           0      -11.247461    0.181331   -1.355656
     29          6           0       -9.904811   -0.345010   -0.972196
     30          6           0      -12.263832    2.559832   -1.362570
     31          6           0      -12.388656   -0.531896   -1.818256
     32          6           0      -12.209990   -0.937201   -3.411736
     33          7           0       -7.259264   -1.356340   -0.108190
     34          6           0       -8.265784   -2.163577   -0.426842
     35          6           0       -7.923120   -3.559153   -0.523503
     36          6           0       -6.518684   -3.636105   -0.155794
     37          6           0       -6.227308   -2.178030    0.115681
     38          6           0       -8.737088   -4.777598   -0.997256
     39          6           0       -5.349584   -4.368829    0.241569
     40          8           0       -5.180100   -5.581329    0.146225
     41          6           0       -4.197275   -3.396615    0.491830
     42          6           0       -3.474317   -3.797771    1.803108
     43          8           0       -3.598953   -3.309729    2.850074
     44          8           0       -2.704958   -4.964820    1.571922
     45          6           0       -2.127869   -5.417391    2.714297
     46          6           0        2.718500   -0.698978   -1.028225
     47          6           0        4.089177   -0.397851   -0.342323
     48          6           0        5.087560    0.413897   -0.866203
     49          6           0        4.904018    1.215081   -2.176898
     50          6           0        6.386168    0.548126   -0.204244
     51          6           0        7.648238   -0.015838   -0.919908
     52          6           0        8.883859   -0.123792   -0.053845
     53          6           0       10.130175   -0.739741   -0.841455
     54          6           0       10.012526   -2.235003   -1.098516
     55          6           0       11.378153   -0.170814    0.065764
     56          6           0       12.739009   -0.536344   -0.615084
     57          6           0       13.901873    0.064734    0.162646
     58          6           0       15.366672   -0.088449   -0.472458
     59          6           0       15.698757   -1.578734   -0.903333
     60          6           0       16.392115    0.476319    0.416865
     61          6           0       17.716368    0.521592   -0.267947
     62          6           0       18.771417    1.389974    0.523843
     63          6           0       20.218854    1.287709    0.136481
     64          6           0       20.375183    2.051175   -1.239579
     65          6           0       21.101581    1.901565    1.101903
     66          1           0       -4.082052    3.403836    1.516214
     67          1           0       -9.863371    3.874293   -0.326252
     68          1           0      -10.378831   -2.423951   -1.195382
     69          1           0       -2.891454   -0.991074    2.233616
     70          1           0       -2.082857    1.628796    1.185102
     71          1           0       -1.825578    1.084479    3.439000
     72          1           0       -3.271937    2.061312    3.695699
     73          1           0       -3.497324    0.373495    3.699833
     74          1           0       -2.033322   -1.804191   -0.122011
     75          1           0       -2.250151   -0.012931   -0.625038
     76          1           0       -0.389420    0.431864    0.962348
     77          1           0       -0.166678   -0.995518    1.627475
     78          1           0       -5.483383    6.512682    0.413602
     79          1           0       -5.398630    6.282829    2.050978
     80          1           0       -4.340615    5.384474    0.816506
     81          1           0       -9.071893    6.071057   -0.716188
     82          1           0       -8.773229    8.262523    0.573853
     83          1           0       -7.690528    7.198729    1.633015
     84          1           0      -11.915849    3.276427   -2.266064
     85          1           0      -13.272375    2.168529   -1.777943
     86          1           0      -12.367599    3.004117   -0.514835
     87          1           0      -12.371249   -1.478398   -1.179295
     88          1           0      -13.347522    0.010522   -1.874323
     89          1           0      -13.121020   -1.315085   -4.100891
     90          1           0      -11.792242    0.206171   -3.721648
     91          1           0      -11.091683   -1.524342   -3.581259
     92          1           0       -9.345190   -4.628797   -2.096762
     93          1           0       -8.229344   -5.862344   -1.007368
     94          1           0       -9.732724   -5.050546   -0.393221
     95          1           0       -3.355363   -3.395905   -0.247774
     96          1           0       -1.384036   -4.731535    3.171749
     97          1           0       -2.894795   -5.479324    3.429241
     98          1           0       -1.630562   -6.389766    2.530036
     99          1           0        2.671633   -1.738966   -1.198010
    100          1           0        2.384329   -0.319481   -1.975639
    101          1           0        4.236730   -1.170997    0.530117
    102          1           0        3.764974    1.421716   -2.489744
    103          1           0        5.163560    2.330130   -2.016834
    104          1           0        5.392961    0.961678   -3.008878
    105          1           0        6.563315    1.567315    0.119215
    106          1           0        6.614902   -0.136830    0.769484
    107          1           0        7.287004   -1.054812   -1.466530
    108          1           0        7.777927    0.640979   -1.735396
    109          1           0        9.040573    1.003634    0.492077
    110          1           0        8.845242   -0.856328    0.842671
    111          1           0       10.206062   -0.244358   -1.818897
    112          1           0        9.170240   -2.513143   -1.888226
    113          1           0       10.783799   -2.625227   -1.890825
    114          1           0       10.167823   -3.001260   -0.250494
    115          1           0       11.012208    0.983726   -0.007140
    116          1           0       11.414782   -0.735100    0.899363
    117          1           0       12.719248   -1.451806   -1.090901
    118          1           0       12.488046   -0.108396   -1.530815
    119          1           0       13.736549    1.258162    0.541886
    120          1           0       14.200560   -0.622859    1.087106
    121          1           0       15.210324    0.463862   -1.446800
    122          1           0       15.632121   -2.299514   -0.048508
    123          1           0       14.909771   -1.754548   -1.782617
    124          1           0       16.714115   -1.654012   -1.296968
    125          1           0       16.233263    1.387763    0.918483
    126          1           0       16.495796   -0.260834    1.228484
    127          1           0       18.280482   -0.305531   -0.416805
    128          1           0       17.457080    1.055129   -1.200436
    129          1           0       18.337569    2.550044    0.758072
    130          1           0       18.587706    1.104194    1.549592
    131          1           0       20.506630    0.306631    0.071931
    132          1           0       19.853848    3.032193   -1.221913
    133          1           0       21.578249    2.005082   -1.366791
    134          1           0       20.106525    1.289274   -2.138453
    135          1           0       20.751229    1.693666    2.312364
    136          1           0       22.087970    1.620401    0.780149
    137          1           0       21.190327    3.101053    1.019170
 ---------------------------------------------------------------------

 SCF Done:  E(RCAM-B3LYP) =  -2933.34647002     A.U. after   16 cycles

 Excitation energies and oscillator strengths:

 Excited State   1:      Singlet-A      1.9555 eV  634.02 nm  f=0.3125  <S**2>=0.000
     240 -> 242       -0.10179
     240 -> 243        0.21500
     241 -> 242        0.66269
 This state for optimization and/or second-order correction.
 Total Energy, E(TD-HF/TD-DFT) =  -2933.27460569
 Copying the excited state density for this state as the 1-particle RhoCI density.

 The electronic state is 1-A.
 Alpha  occ. eigenvalues --  -46.79076 -19.23304 -19.20499 -19.18047 -19.16384
 Alpha  occ. eigenvalues --  -19.14960 -14.37331 -14.35908 -14.34809 -14.34761
 Alpha  occ. eigenvalues --  -10.34383 -10.34205 -10.29843 -10.27584 -10.25825
 Alpha  occ. eigenvalues --  -10.25582 -10.25367 -10.25240 -10.25223 -10.25223
 Alpha  occ. eigenvalues --  -10.25146 -10.25037 -10.25021 -10.24767 -10.24731
 Alpha  occ. eigenvalues --  -10.24613 -10.24229 -10.23987 -10.23747 -10.23683
 Alpha  occ. eigenvalues --  -10.23667 -10.23487 -10.23471 -10.23366 -10.23245
 Alpha  occ. eigenvalues --  -10.23194 -10.23087 -10.22894 -10.22845 -10.22744
 Alpha  occ. eigenvalues --  -10.22615 -10.22359 -10.22323 -10.22296 -10.22194
 Alpha  occ. eigenvalues --  -10.22162 -10.22105 -10.22021 -10.22005 -10.21999
 Alpha  occ. eigenvalues --  -10.21899 -10.21874 -10.21720 -10.21702 -10.21664
 Alpha  occ. eigenvalues --  -10.21611 -10.21074 -10.20996 -10.20797 -10.20582
 Alpha  occ. eigenvalues --  -10.20298 -10.20214 -10.19627 -10.19598 -10.19538
 Alpha  occ. eigenvalues --   -3.07895  -1.82812  -1.82374  -1.82321  -1.14072
 Alpha  occ. eigenvalues --   -1.12774  -1.06528  -1.04701  -1.03649  -1.00160
 Alpha  occ. eigenvalues --   -0.98286  -0.97320  -0.96096  -0.86799  -0.85844
 Alpha  occ. eigenvalues --   -0.85586  -0.85246  -0.85004  -0.84635  -0.84223
 Alpha  occ. eigenvalues --   -0.83301  -0.83114  -0.82352  -0.81488  -0.80629
 Alpha  occ. eigenvalues --   -0.80099  -0.79463  -0.78412  -0.77999  -0.77015
 Alpha  occ. eigenvalues --   -0.76532  -0.75990  -0.75419  -0.75004  -0.73490
 Alpha  occ. eigenvalues --   -0.72814  -0.71549  -0.71393  -0.70775  -0.70499
 Alpha  occ. eigenvalues --   -0.70033  -0.69628  -0.69013  -0.68412  -0.67834
 Alpha  occ. eigenvalues --   -0.66932  -0.66030  -0.64903  -0.64670  -0.64043
 Alpha  occ. eigenvalues --   -0.62735  -0.62150  -0.61816  -0.60845  -0.60793
 Alpha  occ. eigenvalues --   -0.59760  -0.59319  -0.59247  -0.58907  -0.58156
 Alpha  occ. eigenvalues --   -0.57527  -0.57304  -0.56412  -0.56193  -0.54846
 Alpha  occ. eigenvalues --   -0.54476  -0.53848  -0.53759  -0.53033  -0.52391
 Alpha  occ. eigenvalues --   -0.52090  -0.51614  -0.51365  -0.50934  -0.50830
 Alpha  occ. eigenvalues --   -0.50606  -0.50349  -0.50080  -0.49896  -0.49626
 Alpha  occ. eigenvalues --   -0.49288  -0.48668  -0.48616  -0.48400  -0.48323
 Alpha  occ. eigenvalues --   -0.47936  -0.47578  -0.47171  -0.46956  -0.46788
 Alpha  occ. eigenvalues --   -0.46740  -0.46538  -0.46318  -0.45741  -0.45579
 Alpha  occ. eigenvalues --   -0.45206  -0.45205  -0.45143  -0.45054  -0.44805
 Alpha  occ. eigenvalues --   -0.44663  -0.44513  -0.44332  -0.44069  -0.43591
 Alpha  occ. eigenvalues --   -0.43522  -0.42928  -0.42641  -0.42448  -0.42416
 Alpha  occ. eigenvalues --   -0.42212  -0.41950  -0.41887  -0.41714  -0.41320
 Alpha  occ. eigenvalues --   -0.41253  -0.41149  -0.40768  -0.40659  -0.40534
 Alpha  occ. eigenvalues --   -0.40333  -0.40138  -0.39889  -0.39531  -0.39264
 Alpha  occ. eigenvalues --   -0.38928  -0.38850  -0.38756  -0.38717  -0.38438
 Alpha  occ. eigenvalues --   -0.38158  -0.38015  -0.37852  -0.37812  -0.37642
 Alpha  occ. eigenvalues --   -0.37445  -0.37372  -0.37195  -0.37113  -0.36957
 Alpha  occ. eigenvalues --   -0.36697  -0.36667  -0.36028  -0.35802  -0.35274
 Alpha  occ. eigenvalues --   -0.35117  -0.34980  -0.34672  -0.34560  -0.34541
 Alpha  occ. eigenvalues --   -0.34337  -0.33909  -0.33829  -0.33787  -0.33632
 Alpha  occ. eigenvalues --   -0.33411  -0.33358  -0.33141  -0.32733  -0.32190
 Alpha  occ. eigenvalues --   -0.31741  -0.31585  -0.31351  -0.31037  -0.30620
 Alpha  occ. eigenvalues --   -0.29662  -0.29522  -0.29116  -0.29095  -0.26996
 Alpha  occ. eigenvalues --   -0.26990  -0.26296  -0.25943  -0.25221  -0.21555
 Alpha  occ. eigenvalues --   -0.20216
 Alpha virt. eigenvalues --   -0.07925  -0.03648  -0.00443   0.02520   0.02620
 Alpha virt. eigenvalues --    0.04237   0.04639   0.05012   0.05358   0.05929
 Alpha virt. eigenvalues --    0.06323   0.08056   0.09065   0.09513   0.09977

 Mulliken charges:
               1
     1  Mg   0.815101
     2  C    0.076398
     3  C   -0.178351
     4  C   -0.123232
     5  C   -0.187511
     6  N   -0.611982
     7  C    0.252432
     8  C   -0.145299
     9  C   -0.171574
    10  C    0.339807
    11  C   -0.312174
    12  C   -0.149035
    13  C   -0.273907
    14  C    0.611024
    15  O   -0.492914
    16  O   -0.455070
    17  N   -0.713219
    18  C    0.316680
    19  C   -0.024010
    20  C    0.041907
    21  C    0.233658
    22  C   -0.358215
    23  C   -0.056740
    24  C   -0.247095
    25  N   -0.705369
    26  C    0.374810
    27  C   -0.034129
    28  C    0.097516
    29  C    0.271123
    30  C   -0.355448
    31  C   -0.252008
    32  C   -0.301630
    33  N   -0.683808
    34  C    0.283055
    35  C    0.029173
    36  C    0.047595
    37  C    0.235538
    38  C   -0.379465
    39  C    0.361080
    40  O   -0.466412
    41  C   -0.306911
    42  C    0.599340
    43  O   -0.419293
    44  O   -0.443332
    45  C   -0.078692
    46  C   -0.019561
    47  C   -0.138135
    48  C    0.142931
    49  C   -0.375154
    50  C   -0.235248
    51  C   -0.165636
    52  C   -0.155950
    53  C   -0.077604
    54  C   -0.319453
    55  C   -0.166130
    56  C   -0.190974
    57  C   -0.146806
    58  C   -0.076577
    59  C   -0.310935
    60  C   -0.157870
    61  C   -0.160534
    62  C   -0.183618
    63  C   -0.038138
    64  C   -0.290374
    65  C   -0.279408
    66  H    0.061183
    67  H    0.046755
    68  H    0.092474
    69  H    0.137295
    70  H    0.095492
    71  H    0.118587
    72  H    0.102164
    73  H    0.124256
    74  H    0.112660
    75  H    0.124248
    76  H    0.128979
    77  H    0.119014
    78  H    0.134994
    79  H    0.130596
    80  H    0.105193
    81  H    0.105610
    82  H    0.092234
    83  H    0.098475
    84  H    0.098558
    85  H    0.102850
    86  H    0.136169
    87  H    0.104687
    88  H    0.115570
    89  H    0.108396
    90  H    0.083857
    91  H    0.089800
    92  H    0.093997
    93  H    0.142698
    94  H    0.109017
    95  H    0.168266
    96  H    0.096282
    97  H    0.121189
    98  H    0.113751
    99  H    0.140667
   100  H    0.139770
   101  H    0.100606
   102  H    0.100825
   103  H    0.103591
   104  H    0.143713
   105  H    0.107094
   106  H    0.083454
   107  H    0.074063
   108  H    0.101982
   109  H    0.063235
   110  H    0.091037
   111  H    0.087715
   112  H    0.097929
   113  H    0.089737
   114  H    0.109139
   115  H    0.088427
   116  H    0.110052
   117  H    0.102997
   118  H    0.092207
   119  H    0.068425
   120  H    0.069970
   121  H    0.075645
   122  H    0.099400
   123  H    0.087546
   124  H    0.113660
   125  H    0.097140
   126  H    0.083658
   127  H    0.099095
   128  H    0.094151
   129  H    0.040764
   130  H    0.083942
   131  H    0.098338
   132  H    0.120811
   133  H    0.072528
   134  H    0.085832
   135  H    0.068479
   136  H    0.102643
   137  H    0.080195
 Sum of Mulliken charges =  -0.00000

 Dipole moment (field-independent basis, Debye):
    X=              2.6945    Y=              5.2006    Z=             -0.3797  Tot=              5.8695
 Quadrupole moment (field-independent basis, Debye-Ang):
   XX=           -334.7449   YY=           -397.7937   ZZ=           -398.7420
   XY=            -38.0083   XZ=              0.8111   YZ=             -1.4311

 Normal termination of Gaussian 16 at Sun Sep 15 12:47:56 2019.
