 Gaussian 09, Revision D.01,
 Gaussian 09:  ES64L-G09RevD.01 24-Apr-2013

 -------------------------------------
 # td=(NStates=1) CAM-B3LYP/6-31G(d,p)
 -------------------------------------

 --
 TD
 --
 Symbolic Z-matrix:
 Charge =  0 Multiplicity = 1

                         Standard orientation:
 ---------------------------------------------------------------------
 Center     Atomic      Atomic             Coordinates (Angstroms)
 Number     Number       Type             X           Y           Z
 ---------------------------------------------------------------------
      1         12           0       -7.147686    0.543780    0.179429
      2          6           0       -4.845042   -1.975439    0.511587
      3          6           0       -4.806392    2.806783    1.241553
      4          6           0       -9.392833    3.149688   -0.313019
      5          6           0       -9.508594   -1.783790   -0.917573
      6          7           0       -5.176676    0.387964    0.752964
      7          6           0       -4.423821   -0.730913    0.816335
      8          6           0       -2.924652   -0.414372    1.192284
      9          6           0       -3.067923    1.008799    1.699725
     10          6           0       -4.387387    1.502343    1.149027
     11          6           0       -3.055262    1.080463    3.327099
     12          6           0       -1.930868   -0.510814    0.062516
     13          6           0       -0.506344   -0.450773    0.359438
     14          6           0        0.404042   -0.625671   -0.823718
     15          8           0        0.193696   -1.058797   -1.933935
     16          8           0        1.633729   -0.477795   -0.276361
     17          7           0       -7.113715    2.573783    0.400361
     18          6           0       -6.012562    3.277902    0.794893
     19          6           0       -6.380669    4.725192    0.878027
     20          6           0       -7.678756    4.798986    0.350078
     21          6           0       -8.207916    3.451775    0.074297
     22          6           0       -5.386240    5.819898    1.191470
     23          6           0       -8.484256    5.853314    0.060424
     24          6           0       -8.402639    7.100003    0.809657
     25          7           0       -9.069403    0.681575   -0.568726
     26          6           0       -9.795000    1.844284   -0.659013
     27          6           0      -11.137094    1.473048   -1.118111
     28          6           0      -11.172217    0.157170   -1.259153
     29          6           0       -9.880109   -0.364333   -0.912184
     30          6           0      -12.397551    2.461309   -1.276289
     31          6           0      -12.329720   -0.625097   -1.779674
     32          6           0      -12.224008   -1.102183   -3.363785
     33          7           0       -7.281164   -1.394339   -0.209070
     34          6           0       -8.314855   -2.249658   -0.557356
     35          6           0       -7.803316   -3.542722   -0.535715
     36          6           0       -6.478744   -3.608454   -0.087507
     37          6           0       -6.255813   -2.174430    0.075487
     38          6           0       -8.631423   -4.849187   -0.836585
     39          6           0       -5.356981   -4.379917    0.136885
     40          8           0       -5.103811   -5.594492    0.188338
     41          6           0       -4.154947   -3.286764    0.531788
     42          6           0       -3.618630   -3.693138    1.899121
     43          8           0       -3.772569   -3.090425    2.932122
     44          8           0       -2.697116   -4.714762    1.863929
     45          6           0       -2.160623   -5.140691    3.086076
     46          6           0        2.703400   -0.561035   -1.229506
     47          6           0        4.094048   -0.363139   -0.589019
     48          6           0        5.111144    0.407929   -0.936287
     49          6           0        5.148407    1.364662   -2.143399
     50          6           0        6.406035    0.503551   -0.121967
     51          6           0        7.586891    0.015810   -0.914044
     52          6           0        8.840922    0.108963   -0.085771
     53          6           0       10.116196   -0.379516   -0.865560
     54          6           0       10.090990   -1.818589   -1.464839
     55          6           0       11.440927   -0.151760   -0.095766
     56          6           0       12.771145   -0.483074   -0.593589
     57          6           0       13.946060   -0.030596    0.133785
     58          6           0       15.283965   -0.161239   -0.586691
     59          6           0       15.633411   -1.593134   -1.055690
     60          6           0       16.418382    0.368930    0.436414
     61          6           0       17.813531    0.521661   -0.150985
     62          6           0       18.882057    1.054106    0.756240
     63          6           0       20.377546    1.103344    0.243716
     64          6           0       20.389644    2.057115   -1.056998
     65          6           0       21.326119    1.519878    1.378049
     66          1           0       -4.078314    3.512248    1.540651
     67          1           0      -10.209776    3.975712   -0.424156
     68          1           0      -10.431194   -2.474575   -1.193157
     69          1           0       -2.545544   -0.899571    1.952710
     70          1           0       -2.131478    1.775463    1.502938
     71          1           0       -2.098318    0.783133    3.766240
     72          1           0       -3.312636    2.153857    3.752369
     73          1           0       -3.641170    0.451308    3.717942
     74          1           0       -2.294136   -1.599812   -0.589203
     75          1           0       -2.054044    0.156484   -0.753670
     76          1           0       -0.365226    0.464010    0.933572
     77          1           0       -0.228756   -1.430653    1.041586
     78          1           0       -5.471172    6.685794    0.472185
     79          1           0       -5.562857    6.331253    2.192218
     80          1           0       -4.240342    5.447252    1.129873
     81          1           0       -9.484170    5.619812   -0.459895
     82          1           0       -9.118042    7.869179    0.481030
     83          1           0       -7.649907    7.439984    1.532355
     84          1           0      -12.092821    2.985143   -2.230057
     85          1           0      -13.235695    1.738708   -1.251283
     86          1           0      -12.394903    3.184933   -0.470271
     87          1           0      -12.549177   -1.689284   -1.246878
     88          1           0      -13.289330   -0.177312   -1.800318
     89          1           0      -12.911166   -1.684924   -3.538762
     90          1           0      -12.374285   -0.252329   -4.005662
     91          1           0      -11.242352   -1.476623   -3.738751
     92          1           0       -9.136089   -4.698193   -1.836674
     93          1           0       -8.053100   -5.805202   -0.728489
     94          1           0       -9.640810   -4.984730   -0.111818
     95          1           0       -3.211467   -3.547356   -0.204543
     96          1           0       -1.520160   -4.499319    3.639982
     97          1           0       -3.043341   -5.786573    3.571490
     98          1           0       -1.328762   -6.015288    2.637343
     99          1           0        2.874781   -1.675000   -1.522456
    100          1           0        2.706347    0.125259   -2.121053
    101          1           0        4.304763   -0.729472    0.555964
    102          1           0        4.064665    1.514291   -2.625487
    103          1           0        5.362756    2.497799   -2.165122
    104          1           0        5.751249    0.888097   -2.979738
    105          1           0        6.674228    1.528640    0.248534
    106          1           0        6.445092   -0.214324    0.651334
    107          1           0        7.478739   -1.012621   -1.246122
    108          1           0        7.877666    0.674173   -1.576787
    109          1           0        9.252571    1.088912    0.259607
    110          1           0        8.909553   -0.337752    0.995441
    111          1           0       10.036119    0.311266   -1.797754
    112          1           0        9.275246   -2.060530   -2.098929
    113          1           0       11.012919   -2.251759   -1.592541
    114          1           0        9.716144   -2.577868   -0.512009
    115          1           0       11.354384    0.789087    0.222598
    116          1           0       11.260792   -0.786926    1.020090
    117          1           0       12.984593   -1.506390   -1.084671
    118          1           0       12.907473   -0.056323   -1.598926
    119          1           0       13.917582    0.964369    0.516155
    120          1           0       14.147088   -0.507081    1.131643
    121          1           0       15.397264    0.691826   -1.494246
    122          1           0       15.561566   -2.039245   -0.014440
    123          1           0       15.056293   -2.021097   -1.756994
    124          1           0       16.643068   -1.534548   -1.331004
    125          1           0       15.954726    1.334556    0.804708
    126          1           0       16.439557   -0.246644    1.520601
    127          1           0       18.020555   -0.289377   -0.534201
    128          1           0       17.729995    1.084780   -1.081103
    129          1           0       18.827723    2.184461    0.915738
    130          1           0       18.867483    0.719143    1.817238
    131          1           0       20.535972    0.042049   -0.098684
    132          1           0       20.086113    3.077169   -0.779416
    133          1           0       21.329579    2.327429   -1.354800
    134          1           0       19.751063    1.679038   -1.882704
    135          1           0       21.219008    0.991720    2.346194
    136          1           0       22.362562    1.541149    0.955798
    137          1           0       21.040700    2.542278    1.834999
 ---------------------------------------------------------------------

 SCF Done:  E(RCAM-B3LYP) =  -2932.55431503     A.U. after   16 cycles

 Excitation energies and oscillator strengths:

 Excited State   1:      Singlet-A      2.1335 eV  581.13 nm  f=0.2614  <S**2>=0.000
     240 -> 243       -0.22724
     241 -> 242        0.65159
 This state for optimization and/or second-order correction.
 Total Energy, E(TD-HF/TD-KS) =  -2932.47590984
 Copying the excited state density for this state as the 1-particle RhoCI density.

 The electronic state is 1-A.
 Alpha  occ. eigenvalues --  -46.83660 -19.26934 -19.24763 -19.21924 -19.20202
 Alpha  occ. eigenvalues --  -19.20120 -14.41862 -14.40265 -14.39898 -14.39766
 Alpha  occ. eigenvalues --  -10.39839 -10.38464 -10.35400 -10.33318 -10.32470
 Alpha  occ. eigenvalues --  -10.32033 -10.31084 -10.30854 -10.30539 -10.29714
 Alpha  occ. eigenvalues --  -10.29558 -10.29372 -10.29311 -10.29163 -10.29046
 Alpha  occ. eigenvalues --  -10.29003 -10.28791 -10.28638 -10.28530 -10.28528
 Alpha  occ. eigenvalues --  -10.28297 -10.28189 -10.28037 -10.27840 -10.27742
 Alpha  occ. eigenvalues --  -10.27723 -10.27707 -10.27704 -10.27154 -10.27148
 Alpha  occ. eigenvalues --  -10.27114 -10.27105 -10.27024 -10.26996 -10.26765
 Alpha  occ. eigenvalues --  -10.26546 -10.26506 -10.25985 -10.25935 -10.25785
 Alpha  occ. eigenvalues --  -10.25659 -10.25613 -10.25544 -10.25501 -10.25461
 Alpha  occ. eigenvalues --  -10.25334 -10.25276 -10.25029 -10.24814 -10.24519
 Alpha  occ. eigenvalues --  -10.24306 -10.24282 -10.23793 -10.23771 -10.23371
 Alpha  occ. eigenvalues --   -3.12917  -1.87613  -1.87158  -1.87111  -1.18910
 Alpha  occ. eigenvalues --   -1.17324  -1.10044  -1.09397  -1.08355  -1.05864
 Alpha  occ. eigenvalues --   -1.03558  -1.03248  -1.01861  -0.92480  -0.91783
 Alpha  occ. eigenvalues --   -0.91263  -0.90852  -0.90724  -0.89182  -0.89078
 Alpha  occ. eigenvalues --   -0.88126  -0.87967  -0.87742  -0.87581  -0.86463
 Alpha  occ. eigenvalues --   -0.85585  -0.84553  -0.83619  -0.83227  -0.82151
 Alpha  occ. eigenvalues --   -0.81660  -0.80750  -0.80439  -0.79995  -0.78111
 Alpha  occ. eigenvalues --   -0.77959  -0.76820  -0.76331  -0.76063  -0.75780
 Alpha  occ. eigenvalues --   -0.75309  -0.74966  -0.74557  -0.73805  -0.72960
 Alpha  occ. eigenvalues --   -0.72339  -0.71144  -0.70836  -0.69758  -0.69150
 Alpha  occ. eigenvalues --   -0.68324  -0.67308  -0.65750  -0.65580  -0.65281
 Alpha  occ. eigenvalues --   -0.64171  -0.63246  -0.63150  -0.62481  -0.61444
 Alpha  occ. eigenvalues --   -0.60992  -0.60575  -0.60319  -0.59622  -0.59276
 Alpha  occ. eigenvalues --   -0.58772  -0.58260  -0.57884  -0.56996  -0.56558
 Alpha  occ. eigenvalues --   -0.56093  -0.56005  -0.55718  -0.55123  -0.54623
 Alpha  occ. eigenvalues --   -0.54588  -0.54372  -0.53528  -0.53461  -0.53059
 Alpha  occ. eigenvalues --   -0.53006  -0.52825  -0.52069  -0.51818  -0.51741
 Alpha  occ. eigenvalues --   -0.51363  -0.51212  -0.50975  -0.50753  -0.50635
 Alpha  occ. eigenvalues --   -0.50558  -0.50286  -0.50117  -0.49963  -0.49536
 Alpha  occ. eigenvalues --   -0.49459  -0.49119  -0.48678  -0.48587  -0.48414
 Alpha  occ. eigenvalues --   -0.48335  -0.47871  -0.47586  -0.47395  -0.47163
 Alpha  occ. eigenvalues --   -0.46993  -0.46762  -0.46579  -0.46511  -0.46250
 Alpha  occ. eigenvalues --   -0.46096  -0.45925  -0.45612  -0.45516  -0.45369
 Alpha  occ. eigenvalues --   -0.45012  -0.44778  -0.44715  -0.44589  -0.44301
 Alpha  occ. eigenvalues --   -0.44048  -0.43674  -0.43386  -0.43342  -0.43278
 Alpha  occ. eigenvalues --   -0.42886  -0.42711  -0.42567  -0.42430  -0.42171
 Alpha  occ. eigenvalues --   -0.41960  -0.41942  -0.41903  -0.41284  -0.41250
 Alpha  occ. eigenvalues --   -0.41082  -0.40959  -0.40760  -0.40634  -0.40162
 Alpha  occ. eigenvalues --   -0.40072  -0.40007  -0.39306  -0.39275  -0.39086
 Alpha  occ. eigenvalues --   -0.38990  -0.38382  -0.38245  -0.38048  -0.37753
 Alpha  occ. eigenvalues --   -0.37425  -0.37177  -0.36871  -0.36836  -0.36582
 Alpha  occ. eigenvalues --   -0.36235  -0.35895  -0.35837  -0.35542  -0.35276
 Alpha  occ. eigenvalues --   -0.34892  -0.34479  -0.34323  -0.34241  -0.33650
 Alpha  occ. eigenvalues --   -0.33346  -0.33172  -0.32494  -0.31134  -0.30501
 Alpha  occ. eigenvalues --   -0.30018  -0.29797  -0.28629  -0.26451  -0.24122
 Alpha  occ. eigenvalues --   -0.22015
 Alpha virt. eigenvalues --   -0.06867  -0.03938   0.00566   0.02282   0.05031
 Alpha virt. eigenvalues --    0.05684   0.06065   0.06589   0.06655   0.06957
 Alpha virt. eigenvalues --    0.08390   0.10413   0.10879   0.11160   0.11504

 Mulliken charges:
               1
     1  Mg   0.812366
     2  C    0.076198
     3  C   -0.189707
     4  C   -0.178404
     5  C   -0.180788
     6  N   -0.680244
     7  C    0.339537
     8  C   -0.101140
     9  C   -0.174848
    10  C    0.365622
    11  C   -0.312076
    12  C   -0.157665
    13  C   -0.253812
    14  C    0.617196
    15  O   -0.459058
    16  O   -0.466351
    17  N   -0.738869
    18  C    0.343840
    19  C    0.025325
    20  C    0.071966
    21  C    0.352927
    22  C   -0.384562
    23  C   -0.153905
    24  C   -0.242660
    25  N   -0.693737
    26  C    0.274649
    27  C   -0.048746
    28  C    0.077729
    29  C    0.258746
    30  C   -0.343791
    31  C   -0.272453
    32  C   -0.316970
    33  N   -0.744964
    34  C    0.352827
    35  C   -0.018753
    36  C    0.109722
    37  C    0.294016
    38  C   -0.362117
    39  C    0.312029
    40  O   -0.475568
    41  C   -0.362537
    42  C    0.626752
    43  O   -0.467686
    44  O   -0.449028
    45  C   -0.062901
    46  C    0.035338
    47  C   -0.171684
    48  C    0.142041
    49  C   -0.376571
    50  C   -0.223110
    51  C   -0.161528
    52  C   -0.200420
    53  C   -0.054189
    54  C   -0.305131
    55  C   -0.147214
    56  C   -0.184350
    57  C   -0.155042
    58  C   -0.081166
    59  C   -0.291068
    60  C   -0.184466
    61  C   -0.156121
    62  C   -0.173841
    63  C   -0.060173
    64  C   -0.320090
    65  C   -0.316736
    66  H    0.080979
    67  H    0.107146
    68  H    0.116993
    69  H    0.115767
    70  H    0.081113
    71  H    0.106135
    72  H    0.093924
    73  H    0.145326
    74  H    0.067652
    75  H    0.117810
    76  H    0.135651
    77  H    0.129719
    78  H    0.127765
    79  H    0.121955
    80  H    0.103272
    81  H    0.093343
    82  H    0.103712
    83  H    0.114790
    84  H    0.125421
    85  H    0.117746
    86  H    0.121109
    87  H    0.079816
    88  H    0.113050
    89  H    0.116378
    90  H    0.105916
    91  H    0.104816
    92  H    0.119182
    93  H    0.149901
    94  H    0.095398
    95  H    0.155710
    96  H    0.134760
    97  H    0.121455
    98  H    0.079189
    99  H    0.124945
   100  H    0.124666
   101  H    0.081623
   102  H    0.081914
   103  H    0.119892
   104  H    0.123511
   105  H    0.103030
   106  H    0.104683
   107  H    0.112169
   108  H    0.114379
   109  H    0.087671
   110  H    0.072752
   111  H    0.067104
   112  H    0.111849
   113  H    0.120729
   114  H    0.043641
   115  H    0.101767
   116  H    0.038915
   117  H    0.089899
   118  H    0.095632
   119  H    0.095349
   120  H    0.082598
   121  H    0.047497
   122  H    0.101066
   123  H    0.110783
   124  H    0.106313
   125  H    0.087300
   126  H    0.054888
   127  H    0.106505
   128  H    0.091796
   129  H    0.079406
   130  H    0.083076
   131  H    0.082336
   132  H    0.097583
   133  H    0.106792
   134  H    0.106330
   135  H    0.109215
   136  H    0.105684
   137  H    0.089223
 Sum of Mulliken charges =   0.00000

 Dipole moment (field-independent basis, Debye):
    X=              0.2184    Y=              6.5529    Z=              0.1547  Tot=              6.5583
 Quadrupole moment (field-independent basis, Debye-Ang):
   XX=           -327.4035   YY=           -397.6876   ZZ=           -398.7262
   XY=            -16.9211   XZ=              6.1645   YZ=              2.9101

 Normal termination of Gaussian 09 at Thu Jul  4 14:32:16 2019.
