 Gaussian 16, Revision A.03,
 Gaussian 16:  ES64L-G16RevA.03 25-Dec-2016

 ----------------------------------------------------------------------
 # td=(NStates=1) iop(3/107=0140000000,3/108=0140000000) CAM-B3LYP/6-31
 G(d,p)
 ----------------------------------------------------------------------

 --
 TD
 --
 Symbolic Z-matrix:
 Charge =  0 Multiplicity = 1

                         Standard orientation:
 ---------------------------------------------------------------------
 Center     Atomic      Atomic             Coordinates (Angstroms)
 Number     Number       Type             X           Y           Z
 ---------------------------------------------------------------------
      1         12           0       -7.140306    0.551687    0.216761
      2          6           0       -4.838489   -1.981133    0.460134
      3          6           0       -4.782325    2.831840    1.066835
      4          6           0       -9.459097    3.057473   -0.304660
      5          6           0       -9.488856   -1.723177   -1.000127
      6          7           0       -5.081988    0.456672    0.816968
      7          6           0       -4.246312   -0.709633    0.920861
      8          6           0       -2.890661   -0.420182    1.224933
      9          6           0       -2.929916    1.181361    1.714123
     10          6           0       -4.373267    1.566710    1.203948
     11          6           0       -2.860386    1.368150    3.223999
     12          6           0       -1.891436   -0.613559    0.046418
     13          6           0       -0.504765   -0.453944    0.541592
     14          6           0        0.483958   -0.687305   -0.621246
     15          8           0        0.141844   -0.906346   -1.783647
     16          8           0        1.821572   -0.407063   -0.211786
     17          7           0       -7.060040    2.565834    0.380331
     18          6           0       -6.010480    3.261252    0.785660
     19          6           0       -6.433504    4.704235    0.744324
     20          6           0       -7.784283    4.785282    0.385231
     21          6           0       -8.230105    3.454455    0.090778
     22          6           0       -5.438453    5.887608    1.044141
     23          6           0       -8.645507    5.955692    0.248041
     24          6           0       -8.508003    7.115748    0.855250
     25          7           0       -9.130285    0.647578   -0.489322
     26          6           0       -9.967860    1.725884   -0.599716
     27          6           0      -11.171528    1.498277   -1.227962
     28          6           0      -11.229303    0.085885   -1.331416
     29          6           0       -9.929670   -0.406658   -0.903328
     30          6           0      -12.290385    2.407769   -1.429175
     31          6           0      -12.282954   -0.877807   -1.889038
     32          6           0      -12.041075   -1.321297   -3.319906
     33          7           0       -7.284446   -1.420356   -0.034190
     34          6           0       -8.218149   -2.200707   -0.483834
     35          6           0       -7.874353   -3.657176   -0.387542
     36          6           0       -6.511048   -3.567773    0.022325
     37          6           0       -6.157030   -2.161450    0.150467
     38          6           0       -8.633219   -4.852675   -0.758387
     39          6           0       -5.301545   -4.308765    0.252344
     40          8           0       -5.209917   -5.529313    0.307636
     41          6           0       -4.168436   -3.327635    0.582366
     42          6           0       -3.505992   -3.592365    1.827703
     43          8           0       -3.691041   -3.067921    2.925019
     44          8           0       -2.739237   -4.677015    1.705630
     45          6           0       -2.058050   -5.226412    2.909625
     46          6           0        2.798715   -0.601559   -1.195908
     47          6           0        4.041824   -0.194104   -0.598658
     48          6           0        5.154112    0.438240   -1.113082
     49          6           0        5.130919    1.234186   -2.474479
     50          6           0        6.421430    0.654800   -0.359128
     51          6           0        7.589825   -0.018320   -1.023225
     52          6           0        8.899438    0.081567   -0.127121
     53          6           0       10.140077   -0.487728   -0.884026
     54          6           0       10.125778   -1.955717   -1.281841
     55          6           0       11.397245   -0.242210    0.043645
     56          6           0       12.700744   -0.424812   -0.577933
     57          6           0       13.917289   -0.169284    0.231601
     58          6           0       15.267375   -0.239897   -0.412650
     59          6           0       15.598732   -1.628777   -0.894271
     60          6           0       16.330764    0.326817    0.557861
     61          6           0       17.715223    0.415745   -0.183241
     62          6           0       18.807419    1.176224    0.660045
     63          6           0       20.251171    1.205290    0.166448
     64          6           0       20.334780    2.071271   -1.054723
     65          6           0       21.127570    1.705107    1.280601
     66          1           0       -3.924728    3.833329    1.403078
     67          1           0      -10.117187    3.988734   -0.553040
     68          1           0      -10.328905   -2.621303   -1.280925
     69          1           0       -2.413018   -0.870665    2.114417
     70          1           0       -2.243493    1.890110    1.328007
     71          1           0       -1.938928    0.912299    3.529149
     72          1           0       -3.111730    2.500349    3.426465
     73          1           0       -3.633885    0.714826    3.640567
     74          1           0       -2.256110   -1.517717   -0.306664
     75          1           0       -2.186415    0.045196   -0.709023
     76          1           0       -0.332236    0.597475    0.975772
     77          1           0       -0.332959   -1.286605    1.437526
     78          1           0       -5.615701    6.671517    0.319027
     79          1           0       -5.807483    6.242286    2.018698
     80          1           0       -4.513794    5.520579    0.956961
     81          1           0       -9.320847    5.751495   -0.581398
     82          1           0       -9.108329    7.906410    0.521648
     83          1           0       -7.718105    7.183519    1.546352
     84          1           0      -11.915440    3.025606   -2.394955
     85          1           0      -13.204762    2.094464   -1.853312
     86          1           0      -12.230174    3.109084   -0.499918
     87          1           0      -12.484468   -1.711316   -1.498912
     88          1           0      -13.141340   -0.425322   -1.691380
     89          1           0      -12.837284   -2.088648   -3.678227
     90          1           0      -12.071337   -0.483069   -4.022865
     91          1           0      -11.026657   -1.682935   -3.463089
     92          1           0       -8.917386   -5.189481   -1.788179
     93          1           0       -8.009972   -5.639471   -0.553665
     94          1           0       -9.588340   -4.718940   -0.288903
     95          1           0       -3.385965   -3.518985   -0.113158
     96          1           0       -1.527473   -4.566570    3.255286
     97          1           0       -2.917695   -5.734130    3.525253
     98          1           0       -1.396156   -5.942736    2.454961
     99          1           0        2.636739   -1.624408   -1.462353
    100          1           0        2.624228   -0.075089   -2.178970
    101          1           0        4.289229   -0.449980    0.661772
    102          1           0        4.150322    1.175357   -3.056491
    103          1           0        5.089014    2.355718   -2.365400
    104          1           0        5.824136    0.631438   -3.244585
    105          1           0        6.750904    1.579742   -0.121301
    106          1           0        6.174566    0.313187    0.732376
    107          1           0        7.236213   -0.951234   -1.350080
    108          1           0        7.932599    0.563391   -2.016363
    109          1           0        9.099873    1.144017    0.223254
    110          1           0        8.719464   -0.662377    0.886337
    111          1           0       10.487504    0.123623   -1.839519
    112          1           0        9.197758   -2.341851   -1.809193
    113          1           0       10.964493   -2.195231   -1.744688
    114          1           0       10.176288   -2.464797   -0.292408
    115          1           0       11.292310    0.823325    0.319553
    116          1           0       11.343077   -0.840784    1.029724
    117          1           0       12.787533   -1.554158   -1.031543
    118          1           0       12.811201    0.208415   -1.516283
    119          1           0       13.849167    0.849284    0.475366
    120          1           0       14.106271   -0.799517    1.271558
    121          1           0       15.229649    0.448039   -1.279236
    122          1           0       15.642789   -2.469007   -0.120196
    123          1           0       14.671450   -1.929882   -1.523161
    124          1           0       16.570227   -1.639955   -1.285677
    125          1           0       15.866354    1.349844    0.682954
    126          1           0       16.367762   -0.215835    1.509409
    127          1           0       18.107746   -0.617691   -0.470350
    128          1           0       17.390633    0.711380   -1.274374
    129          1           0       18.685481    2.396906    0.866628
    130          1           0       18.813865    0.795981    1.783678
    131          1           0       20.709640    0.175744   -0.089671
    132          1           0       20.123691    3.211023   -0.662598
    133          1           0       21.348391    1.961710   -1.414888
    134          1           0       19.679699    1.834542   -1.973314
    135          1           0       21.326899    1.057155    2.211167
    136          1           0       22.065716    1.943113    0.847000
    137          1           0       20.942924    2.653559    1.757793
 ---------------------------------------------------------------------

 SCF Done:  E(RCAM-B3LYP) =  -2933.44737187     A.U. after   16 cycles

 Excitation energies and oscillator strengths:

 Excited State   1:      Singlet-A      2.0613 eV  601.49 nm  f=0.2352  <S**2>=0.000
     240 -> 243       -0.25339
     241 -> 242        0.65925
 This state for optimization and/or second-order correction.
 Total Energy, E(TD-HF/TD-DFT) =  -2933.37162067
 Copying the excited state density for this state as the 1-particle RhoCI density.

 The electronic state is 1-A.
 Alpha  occ. eigenvalues --  -46.79678 -19.21898 -19.21055 -19.18512 -19.15339
 Alpha  occ. eigenvalues --  -19.15203 -14.37914 -14.35421 -14.35009 -14.34639
 Alpha  occ. eigenvalues --  -10.35919 -10.33476 -10.29647 -10.27158 -10.27125
 Alpha  occ. eigenvalues --  -10.26208 -10.26071 -10.26062 -10.25088 -10.25076
 Alpha  occ. eigenvalues --  -10.25006 -10.24453 -10.24439 -10.24409 -10.24216
 Alpha  occ. eigenvalues --  -10.23947 -10.23913 -10.23745 -10.23536 -10.23508
 Alpha  occ. eigenvalues --  -10.23326 -10.23310 -10.23305 -10.23277 -10.23170
 Alpha  occ. eigenvalues --  -10.23047 -10.22998 -10.22961 -10.22914 -10.22795
 Alpha  occ. eigenvalues --  -10.22734 -10.22300 -10.22104 -10.22049 -10.22023
 Alpha  occ. eigenvalues --  -10.21888 -10.21869 -10.21720 -10.21679 -10.21551
 Alpha  occ. eigenvalues --  -10.21479 -10.21216 -10.21077 -10.21021 -10.20990
 Alpha  occ. eigenvalues --  -10.20902 -10.20839 -10.20803 -10.20767 -10.20742
 Alpha  occ. eigenvalues --  -10.20611 -10.19916 -10.19823 -10.19550 -10.19257
 Alpha  occ. eigenvalues --   -3.08269  -1.83213  -1.82740  -1.82677  -1.12095
 Alpha  occ. eigenvalues --   -1.11935  -1.05053  -1.05032  -1.02282  -1.00073
 Alpha  occ. eigenvalues --   -0.97659  -0.97374  -0.95997  -0.88692  -0.86275
 Alpha  occ. eigenvalues --   -0.85955  -0.85402  -0.84886  -0.84313  -0.83617
 Alpha  occ. eigenvalues --   -0.83523  -0.83028  -0.82459  -0.81997  -0.81142
 Alpha  occ. eigenvalues --   -0.80525  -0.80023  -0.79434  -0.78547  -0.78398
 Alpha  occ. eigenvalues --   -0.77289  -0.76423  -0.75643  -0.74952  -0.73819
 Alpha  occ. eigenvalues --   -0.73682  -0.73033  -0.71924  -0.71199  -0.70920
 Alpha  occ. eigenvalues --   -0.70651  -0.70452  -0.69399  -0.68571  -0.67565
 Alpha  occ. eigenvalues --   -0.67337  -0.66277  -0.66127  -0.64619  -0.64415
 Alpha  occ. eigenvalues --   -0.63437  -0.62305  -0.61417  -0.60752  -0.59904
 Alpha  occ. eigenvalues --   -0.59608  -0.59357  -0.58014  -0.57673  -0.57583
 Alpha  occ. eigenvalues --   -0.57413  -0.57166  -0.56633  -0.55335  -0.55011
 Alpha  occ. eigenvalues --   -0.54386  -0.54257  -0.53750  -0.53343  -0.52639
 Alpha  occ. eigenvalues --   -0.52416  -0.51712  -0.51245  -0.51213  -0.50806
 Alpha  occ. eigenvalues --   -0.50470  -0.50238  -0.49972  -0.49772  -0.49313
 Alpha  occ. eigenvalues --   -0.48738  -0.48671  -0.48454  -0.48198  -0.47977
 Alpha  occ. eigenvalues --   -0.47824  -0.47785  -0.47457  -0.47348  -0.47053
 Alpha  occ. eigenvalues --   -0.46770  -0.46562  -0.46292  -0.46219  -0.46027
 Alpha  occ. eigenvalues --   -0.45864  -0.45419  -0.45094  -0.45007  -0.44837
 Alpha  occ. eigenvalues --   -0.44630  -0.44571  -0.44335  -0.44186  -0.43700
 Alpha  occ. eigenvalues --   -0.43629  -0.43424  -0.43251  -0.42963  -0.42661
 Alpha  occ. eigenvalues --   -0.42503  -0.42140  -0.41917  -0.41635  -0.41589
 Alpha  occ. eigenvalues --   -0.41338  -0.41005  -0.40852  -0.40670  -0.40467
 Alpha  occ. eigenvalues --   -0.40274  -0.40112  -0.40085  -0.39747  -0.39684
 Alpha  occ. eigenvalues --   -0.39467  -0.39048  -0.38901  -0.38788  -0.38555
 Alpha  occ. eigenvalues --   -0.38432  -0.38341  -0.38098  -0.38004  -0.37944
 Alpha  occ. eigenvalues --   -0.37733  -0.37656  -0.37461  -0.37339  -0.37325
 Alpha  occ. eigenvalues --   -0.37123  -0.36809  -0.36710  -0.36183  -0.36160
 Alpha  occ. eigenvalues --   -0.35854  -0.35492  -0.35381  -0.34504  -0.34489
 Alpha  occ. eigenvalues --   -0.34434  -0.34149  -0.33720  -0.33564  -0.33323
 Alpha  occ. eigenvalues --   -0.33247  -0.32658  -0.32583  -0.32493  -0.32343
 Alpha  occ. eigenvalues --   -0.32226  -0.31973  -0.31706  -0.31234  -0.30742
 Alpha  occ. eigenvalues --   -0.30066  -0.29845  -0.29067  -0.28480  -0.26691
 Alpha  occ. eigenvalues --   -0.26660  -0.26307  -0.25201  -0.24622  -0.22067
 Alpha  occ. eigenvalues --   -0.19530
 Alpha virt. eigenvalues --   -0.06469  -0.04351  -0.00825   0.01525   0.02694
 Alpha virt. eigenvalues --    0.03222   0.04009   0.04938   0.05110   0.05531
 Alpha virt. eigenvalues --    0.06199   0.07266   0.08974   0.09350   0.09479

 Mulliken charges:
               1
     1  Mg   0.804113
     2  C    0.036629
     3  C   -0.190210
     4  C   -0.198830
     5  C   -0.181999
     6  N   -0.633858
     7  C    0.321623
     8  C   -0.194171
     9  C   -0.157222
    10  C    0.346896
    11  C   -0.301678
    12  C   -0.134026
    13  C   -0.267084
    14  C    0.609931
    15  O   -0.452262
    16  O   -0.485377
    17  N   -0.748421
    18  C    0.417467
    19  C   -0.072720
    20  C    0.033474
    21  C    0.289635
    22  C   -0.354176
    23  C   -0.056432
    24  C   -0.234596
    25  N   -0.670477
    26  C    0.287904
    27  C    0.061597
    28  C   -0.029354
    29  C    0.316396
    30  C   -0.369477
    31  C   -0.197710
    32  C   -0.322421
    33  N   -0.724004
    34  C    0.265965
    35  C    0.024073
    36  C    0.013173
    37  C    0.303243
    38  C   -0.381966
    39  C    0.341579
    40  O   -0.471311
    41  C   -0.302235
    42  C    0.613425
    43  O   -0.502273
    44  O   -0.464374
    45  C   -0.059165
    46  C    0.029162
    47  C   -0.111864
    48  C    0.101599
    49  C   -0.365927
    50  C   -0.200424
    51  C   -0.173254
    52  C   -0.157446
    53  C   -0.056842
    54  C   -0.296944
    55  C   -0.162483
    56  C   -0.170705
    57  C   -0.138002
    58  C   -0.078575
    59  C   -0.295766
    60  C   -0.154926
    61  C   -0.186854
    62  C   -0.130942
    63  C   -0.053276
    64  C   -0.284452
    65  C   -0.319806
    66  H    0.051099
    67  H    0.077219
    68  H    0.083693
    69  H    0.117667
    70  H    0.101012
    71  H    0.111246
    72  H    0.102204
    73  H    0.129397
    74  H    0.119705
    75  H    0.130827
    76  H    0.143752
    77  H    0.116096
    78  H    0.130070
    79  H    0.131106
    80  H    0.113641
    81  H    0.089087
    82  H    0.102573
    83  H    0.092135
    84  H    0.097327
    85  H    0.130327
    86  H    0.122478
    87  H    0.110357
    88  H    0.096462
    89  H    0.087024
    90  H    0.103758
    91  H    0.118790
    92  H    0.124225
    93  H    0.155098
    94  H    0.126465
    95  H    0.163702
    96  H    0.133290
    97  H    0.137735
    98  H    0.128700
    99  H    0.124332
   100  H    0.116101
   101  H    0.055708
   102  H    0.096950
   103  H    0.127763
   104  H    0.111390
   105  H    0.110577
   106  H    0.075962
   107  H    0.109241
   108  H    0.082129
   109  H    0.095329
   110  H    0.061735
   111  H    0.064373
   112  H    0.093895
   113  H    0.119322
   114  H    0.094406
   115  H    0.082333
   116  H    0.082924
   117  H    0.063121
   118  H    0.083133
   119  H    0.087750
   120  H    0.058675
   121  H    0.079099
   122  H    0.087192
   123  H    0.088078
   124  H    0.101863
   125  H    0.087461
   126  H    0.093379
   127  H    0.093398
   128  H    0.083282
   129  H    0.058685
   130  H    0.075570
   131  H    0.077416
   132  H    0.076215
   133  H    0.102476
   134  H    0.101311
   135  H    0.095701
   136  H    0.099722
   137  H    0.102170
 Sum of Mulliken charges =  -0.00000

 Dipole moment (field-independent basis, Debye):
    X=              1.8191    Y=              3.9830    Z=             -0.2468  Tot=              4.3857
 Quadrupole moment (field-independent basis, Debye-Ang):
   XX=           -344.0936   YY=           -391.8940   ZZ=           -399.8842
   XY=            -17.7397   XZ=             14.0207   YZ=             -1.2557

 Normal termination of Gaussian 16 at Tue Sep 10 02:03:01 2019.
