 Gaussian 16, Revision A.03,
 Gaussian 16:  ES64L-G16RevA.03 25-Dec-2016

 ----------------------------------------------------------------------
 # td=(NStates=1) iop(3/107=0140000000,3/108=0140000000) CAM-B3LYP/6-31
 G(d,p)
 ----------------------------------------------------------------------

 --
 TD
 --
 Symbolic Z-matrix:
 Charge =  0 Multiplicity = 1

                         Standard orientation:
 ---------------------------------------------------------------------
 Center     Atomic      Atomic             Coordinates (Angstroms)
 Number     Number       Type             X           Y           Z
 ---------------------------------------------------------------------
      1         12           0       -7.177896    0.643084    0.139175
      2          6           0       -4.948762   -2.039125    0.459896
      3          6           0       -4.719750    2.766450    1.148978
      4          6           0       -9.411055    3.182376   -0.239458
      5          6           0       -9.539145   -1.638520   -0.927917
      6          7           0       -5.081886    0.380160    0.796516
      7          6           0       -4.358440   -0.728269    0.746573
      8          6           0       -2.885014   -0.503557    1.165602
      9          6           0       -2.945505    0.948985    1.655040
     10          6           0       -4.289932    1.500371    1.168679
     11          6           0       -2.963429    1.124733    3.234080
     12          6           0       -1.977606   -0.673490   -0.046990
     13          6           0       -0.523174   -0.490518    0.390265
     14          6           0        0.492422   -0.671844   -0.779026
     15          8           0        0.152597   -0.850072   -1.893971
     16          8           0        1.749034   -0.632849   -0.264074
     17          7           0       -7.101128    2.594617    0.380553
     18          6           0       -6.012494    3.282280    0.750854
     19          6           0       -6.284863    4.710523    0.883743
     20          6           0       -7.589281    4.866739    0.414100
     21          6           0       -8.066967    3.534090    0.233900
     22          6           0       -5.355907    5.872315    1.139980
     23          6           0       -8.441806    6.027183    0.242564
     24          6           0       -8.143551    7.273969    0.746032
     25          7           0       -9.101895    0.774618   -0.405658
     26          6           0       -9.826439    1.938967   -0.464100
     27          6           0      -11.109184    1.595013   -1.117418
     28          6           0      -11.281677    0.256793   -1.327754
     29          6           0       -9.946465   -0.352303   -0.913008
     30          6           0      -12.203444    2.576313   -1.410383
     31          6           0      -12.348513   -0.537163   -1.871120
     32          6           0      -12.170867   -1.115920   -3.280418
     33          7           0       -7.302551   -1.324753   -0.224767
     34          6           0       -8.330298   -2.187502   -0.543214
     35          6           0       -7.937431   -3.618535   -0.451537
     36          6           0       -6.570274   -3.664042    0.031180
     37          6           0       -6.283464   -2.291770   -0.034750
     38          6           0       -8.866831   -4.685383   -0.786842
     39          6           0       -5.401494   -4.505900    0.318278
     40          8           0       -5.371893   -5.689640    0.238598
     41          6           0       -4.205799   -3.436404    0.585501
     42          6           0       -3.501580   -3.735344    1.899036
     43          8           0       -3.728124   -3.058441    2.927803
     44          8           0       -2.807547   -4.717180    1.799280
     45          6           0       -2.171671   -5.222777    2.966286
     46          6           0        2.787632   -0.658223   -1.243465
     47          6           0        4.081616   -0.540292   -0.572513
     48          6           0        5.070139    0.132690   -1.011084
     49          6           0        4.929975    1.182038   -2.219903
     50          6           0        6.349795    0.351871   -0.236912
     51          6           0        7.605281   -0.081054   -1.045043
     52          6           0        8.878246   -0.051048   -0.149538
     53          6           0       10.199568   -0.544141   -0.880380
     54          6           0       10.211650   -2.007951   -1.299747
     55          6           0       11.401129   -0.170645    0.043901
     56          6           0       12.750239   -0.436776   -0.710670
     57          6           0       13.949432   -0.046357    0.165217
     58          6           0       15.392470   -0.188343   -0.538342
     59          6           0       15.699676   -1.730525   -0.859761
     60          6           0       16.443309    0.325970    0.437930
     61          6           0       17.849811    0.569733   -0.192867
     62          6           0       18.905304    1.101678    0.865804
     63          6           0       20.306472    1.385472    0.182144
     64          6           0       20.243368    2.368711   -1.048728
     65          6           0       21.173391    1.814258    1.403931
     66          1           0       -4.079275    3.602897    1.462915
     67          1           0      -10.093204    3.969266   -0.473723
     68          1           0      -10.166579   -2.502677   -1.494693
     69          1           0       -2.714340   -1.126048    2.053170
     70          1           0       -2.069118    1.599380    1.177175
     71          1           0       -1.933020    1.001034    3.790076
     72          1           0       -3.145408    2.160794    3.659908
     73          1           0       -3.664884    0.354430    3.569050
     74          1           0       -2.134206   -1.545843   -0.678320
     75          1           0       -2.498966    0.066004   -0.775694
     76          1           0       -0.225405    0.320875    0.861456
     77          1           0       -0.368496   -1.279892    1.053168
     78          1           0       -5.261739    6.637094    0.579134
     79          1           0       -5.326713    6.155902    2.368210
     80          1           0       -4.240163    5.511704    0.980992
     81          1           0       -9.329431    5.724357   -0.271355
     82          1           0       -8.882458    8.061076    0.623652
     83          1           0       -7.214375    7.455634    1.311242
     84          1           0      -11.790260    3.447902   -2.061318
     85          1           0      -12.989969    2.005104   -1.915164
     86          1           0      -12.597611    3.268672   -0.501075
     87          1           0      -12.555956   -1.363556   -1.049700
     88          1           0      -13.226744    0.192177   -1.871369
     89          1           0      -12.924192   -1.758752   -3.600307
     90          1           0      -12.234615   -0.121759   -3.949474
     91          1           0      -11.135697   -1.782217   -3.384194
     92          1           0       -9.113344   -4.488845   -1.768544
     93          1           0       -8.414169   -5.759267   -0.712205
     94          1           0       -9.710861   -4.677253   -0.151595
     95          1           0       -3.695547   -3.704507   -0.298026
     96          1           0       -1.316218   -4.482392    3.524956
     97          1           0       -3.213708   -5.543450    3.623313
     98          1           0       -1.609238   -5.942388    2.666148
     99          1           0        2.577895   -1.556324   -2.054385
    100          1           0        2.592100    0.103889   -1.996556
    101          1           0        4.227662   -1.170009    0.331850
    102          1           0        3.981908    1.312302   -2.350182
    103          1           0        5.288440    2.141451   -1.930857
    104          1           0        5.296762    0.704092   -3.126834
    105          1           0        6.496364    1.346381    0.004186
    106          1           0        6.144184   -0.229184    0.731302
    107          1           0        7.517685   -1.171368   -1.279944
    108          1           0        7.858758    0.486902   -2.039416
    109          1           0        8.987703    1.033837    0.088265
    110          1           0        8.555142   -0.597253    0.879689
    111          1           0       10.543954   -0.000662   -1.763248
    112          1           0        9.388261   -2.442888   -1.816838
    113          1           0       11.045446   -2.312556   -1.952581
    114          1           0       10.492400   -2.707725   -0.547559
    115          1           0       11.286955    0.931008    0.330472
    116          1           0       11.229577   -0.540163    1.074506
    117          1           0       12.876460   -1.490829   -1.124912
    118          1           0       12.722853    0.143248   -1.662184
    119          1           0       13.929820    0.996445    0.347142
    120          1           0       13.946186   -0.674254    0.999847
    121          1           0       15.201316    0.408614   -1.331971
    122          1           0       15.762499   -2.210727    0.129793
    123          1           0       15.011744   -2.345642   -1.612315
    124          1           0       16.735383   -1.947890   -1.218657
    125          1           0       16.233793    1.241359    0.952920
    126          1           0       16.531802   -0.409604    1.027761
    127          1           0       18.187265   -0.361300   -0.541902
    128          1           0       17.769591    1.259082   -0.959292
    129          1           0       18.503322    2.076641    1.249009
    130          1           0       18.763876    0.630925    1.766843
    131          1           0       20.791876    0.390295   -0.200847
    132          1           0       19.564421    3.280876   -0.811923
    133          1           0       21.327213    2.731348   -1.249559
    134          1           0       19.746765    1.908045   -2.149032
    135          1           0       21.223476    1.098882    2.303578
    136          1           0       22.338694    1.750460    1.049719
    137          1           0       20.837938    2.817974    1.688985
 ---------------------------------------------------------------------

 SCF Done:  E(RCAM-B3LYP) =  -2933.47372875     A.U. after   16 cycles

 Excitation energies and oscillator strengths:

 Excited State   1:      Singlet-A      1.8770 eV  660.54 nm  f=0.3212  <S**2>=0.000
     240 -> 243        0.19999
     241 -> 242        0.67888
 This state for optimization and/or second-order correction.
 Total Energy, E(TD-HF/TD-DFT) =  -2933.40474999
 Copying the excited state density for this state as the 1-particle RhoCI density.

 The electronic state is 1-A.
 Alpha  occ. eigenvalues --  -46.78915 -19.25188 -19.22426 -19.17502 -19.17436
 Alpha  occ. eigenvalues --  -19.15016 -14.37449 -14.35310 -14.35024 -14.34614
 Alpha  occ. eigenvalues --  -10.34395 -10.34331 -10.31536 -10.30179 -10.27942
 Alpha  occ. eigenvalues --  -10.26348 -10.25185 -10.25161 -10.24803 -10.24782
 Alpha  occ. eigenvalues --  -10.24714 -10.24642 -10.24318 -10.24100 -10.23995
 Alpha  occ. eigenvalues --  -10.23895 -10.23698 -10.23550 -10.23505 -10.23133
 Alpha  occ. eigenvalues --  -10.22950 -10.22742 -10.22603 -10.22471 -10.22442
 Alpha  occ. eigenvalues --  -10.22427 -10.22418 -10.22294 -10.22191 -10.22172
 Alpha  occ. eigenvalues --  -10.22107 -10.22062 -10.22034 -10.21889 -10.21807
 Alpha  occ. eigenvalues --  -10.21795 -10.21792 -10.21719 -10.21702 -10.21604
 Alpha  occ. eigenvalues --  -10.21474 -10.21473 -10.21427 -10.21382 -10.21264
 Alpha  occ. eigenvalues --  -10.21008 -10.20985 -10.20979 -10.20844 -10.20262
 Alpha  occ. eigenvalues --  -10.19968 -10.19543 -10.19332 -10.18907 -10.18414
 Alpha  occ. eigenvalues --   -3.07693  -1.82609  -1.82163  -1.82125  -1.20033
 Alpha  occ. eigenvalues --   -1.13898  -1.08843  -1.06534  -1.02670  -0.99119
 Alpha  occ. eigenvalues --   -0.97958  -0.97156  -0.94497  -0.86490  -0.86435
 Alpha  occ. eigenvalues --   -0.84789  -0.84641  -0.84141  -0.83616  -0.83472
 Alpha  occ. eigenvalues --   -0.82781  -0.82468  -0.81926  -0.81878  -0.81151
 Alpha  occ. eigenvalues --   -0.80511  -0.79389  -0.78443  -0.77692  -0.77511
 Alpha  occ. eigenvalues --   -0.77034  -0.75933  -0.75148  -0.74450  -0.73599
 Alpha  occ. eigenvalues --   -0.73000  -0.72521  -0.72043  -0.71257  -0.70555
 Alpha  occ. eigenvalues --   -0.69718  -0.69685  -0.69419  -0.68654  -0.67433
 Alpha  occ. eigenvalues --   -0.66215  -0.65712  -0.65076  -0.64703  -0.64101
 Alpha  occ. eigenvalues --   -0.62893  -0.62234  -0.60557  -0.60533  -0.60153
 Alpha  occ. eigenvalues --   -0.59921  -0.59913  -0.59596  -0.58680  -0.57984
 Alpha  occ. eigenvalues --   -0.57772  -0.56326  -0.56221  -0.55858  -0.54960
 Alpha  occ. eigenvalues --   -0.54749  -0.54087  -0.53761  -0.53304  -0.53006
 Alpha  occ. eigenvalues --   -0.52676  -0.52161  -0.51400  -0.51084  -0.51005
 Alpha  occ. eigenvalues --   -0.50803  -0.50277  -0.50151  -0.49600  -0.49533
 Alpha  occ. eigenvalues --   -0.49147  -0.48337  -0.48280  -0.47974  -0.47591
 Alpha  occ. eigenvalues --   -0.47384  -0.47341  -0.47163  -0.46932  -0.46833
 Alpha  occ. eigenvalues --   -0.46175  -0.46014  -0.45937  -0.45784  -0.45611
 Alpha  occ. eigenvalues --   -0.45583  -0.45104  -0.44848  -0.44796  -0.44647
 Alpha  occ. eigenvalues --   -0.44268  -0.43882  -0.43776  -0.43699  -0.43392
 Alpha  occ. eigenvalues --   -0.43190  -0.43041  -0.42641  -0.42385  -0.42325
 Alpha  occ. eigenvalues --   -0.42106  -0.41768  -0.41709  -0.41337  -0.41143
 Alpha  occ. eigenvalues --   -0.40982  -0.40832  -0.40498  -0.40452  -0.40363
 Alpha  occ. eigenvalues --   -0.40339  -0.40227  -0.40014  -0.39778  -0.39658
 Alpha  occ. eigenvalues --   -0.39598  -0.39420  -0.39204  -0.38927  -0.38895
 Alpha  occ. eigenvalues --   -0.38632  -0.38415  -0.38387  -0.38204  -0.37814
 Alpha  occ. eigenvalues --   -0.37720  -0.37438  -0.37370  -0.37182  -0.37061
 Alpha  occ. eigenvalues --   -0.36573  -0.36535  -0.36345  -0.36105  -0.35884
 Alpha  occ. eigenvalues --   -0.35497  -0.35471  -0.35413  -0.35075  -0.34822
 Alpha  occ. eigenvalues --   -0.34523  -0.34348  -0.33990  -0.33786  -0.33741
 Alpha  occ. eigenvalues --   -0.33645  -0.33338  -0.33045  -0.32730  -0.32623
 Alpha  occ. eigenvalues --   -0.32591  -0.31839  -0.31625  -0.30663  -0.30089
 Alpha  occ. eigenvalues --   -0.29506  -0.29213  -0.29112  -0.28251  -0.27822
 Alpha  occ. eigenvalues --   -0.27626  -0.26324  -0.25112  -0.24178  -0.21160
 Alpha  occ. eigenvalues --   -0.19121
 Alpha virt. eigenvalues --   -0.07280  -0.02609  -0.00189   0.02410   0.04301
 Alpha virt. eigenvalues --    0.04646   0.05204   0.05698   0.05818   0.05962
 Alpha virt. eigenvalues --    0.06491   0.08475   0.08578   0.09348   0.09827

 Mulliken charges:
               1
     1  Mg   0.812815
     2  C    0.024058
     3  C   -0.171407
     4  C   -0.167107
     5  C   -0.220581
     6  N   -0.595997
     7  C    0.282405
     8  C   -0.152475
     9  C   -0.143179
    10  C    0.327366
    11  C   -0.311326
    12  C   -0.173513
    13  C   -0.251313
    14  C    0.592150
    15  O   -0.442480
    16  O   -0.467362
    17  N   -0.705590
    18  C    0.308718
    19  C   -0.000042
    20  C    0.034120
    21  C    0.260347
    22  C   -0.367397
    23  C   -0.040381
    24  C   -0.262402
    25  N   -0.721517
    26  C    0.373363
    27  C    0.003540
    28  C    0.100203
    29  C    0.274728
    30  C   -0.376629
    31  C   -0.260919
    32  C   -0.282482
    33  N   -0.670270
    34  C    0.328028
    35  C   -0.020550
    36  C    0.063608
    37  C    0.228103
    38  C   -0.389690
    39  C    0.338446
    40  O   -0.424724
    41  C   -0.305685
    42  C    0.601220
    43  O   -0.525270
    44  O   -0.339945
    45  C   -0.073472
    46  C    0.000522
    47  C   -0.120409
    48  C    0.115077
    49  C   -0.360101
    50  C   -0.223891
    51  C   -0.181495
    52  C   -0.174617
    53  C   -0.040624
    54  C   -0.331076
    55  C   -0.177100
    56  C   -0.193888
    57  C   -0.170996
    58  C   -0.066188
    59  C   -0.329228
    60  C   -0.165505
    61  C   -0.184299
    62  C   -0.180971
    63  C   -0.036817
    64  C   -0.296119
    65  C   -0.302646
    66  H    0.077087
    67  H    0.078848
    68  H    0.068662
    69  H    0.133223
    70  H    0.084330
    71  H    0.084909
    72  H    0.109865
    73  H    0.137406
    74  H    0.119536
    75  H    0.102701
    76  H    0.136030
    77  H    0.137904
    78  H    0.139640
    79  H    0.089436
    80  H    0.082809
    81  H    0.077227
    82  H    0.098079
    83  H    0.106553
    84  H    0.106342
    85  H    0.105485
    86  H    0.103685
    87  H    0.100567
    88  H    0.092025
    89  H    0.123583
    90  H    0.094575
    91  H    0.089340
    92  H    0.136033
    93  H    0.127324
    94  H    0.138691
    95  H    0.158069
    96  H    0.112395
    97  H    0.128249
    98  H    0.140944
    99  H    0.101845
   100  H    0.121475
   101  H    0.085864
   102  H    0.117452
   103  H    0.114494
   104  H    0.124391
   105  H    0.113481
   106  H    0.084031
   107  H    0.098574
   108  H    0.089909
   109  H    0.086161
   110  H    0.076055
   111  H    0.091063
   112  H    0.105923
   113  H    0.095182
   114  H    0.106261
   115  H    0.078733
   116  H    0.088629
   117  H    0.091843
   118  H    0.085548
   119  H    0.093427
   120  H    0.094847
   121  H    0.085044
   122  H    0.103040
   123  H    0.090241
   124  H    0.100332
   125  H    0.083992
   126  H    0.096282
   127  H    0.094112
   128  H    0.097637
   129  H    0.070844
   130  H    0.097773
   131  H    0.078640
   132  H    0.099278
   133  H    0.102634
   134  H    0.081224
   135  H    0.106547
   136  H    0.067153
   137  H    0.109346
 Sum of Mulliken charges =  -0.00000

 Dipole moment (field-independent basis, Debye):
    X=              3.5139    Y=              1.1462    Z=              0.0406  Tot=              3.6964
 Quadrupole moment (field-independent basis, Debye-Ang):
   XX=           -361.3909   YY=           -385.5556   ZZ=           -398.6463
   XY=             -4.7665   XZ=             18.3094   YZ=             -3.3840

 Normal termination of Gaussian 16 at Sun Sep 22 08:38:10 2019.
