 Gaussian 09, Revision D.01,
 Gaussian 09:  ES64L-G09RevD.01 24-Apr-2013

 -------------------------------------
 # td=(NStates=1) CAM-B3LYP/6-31G(d,p)
 -------------------------------------

 --
 TD
 --
 Symbolic Z-matrix:
 Charge =  0 Multiplicity = 1

                         Standard orientation:
 ---------------------------------------------------------------------
 Center     Atomic      Atomic             Coordinates (Angstroms)
 Number     Number       Type             X           Y           Z
 ---------------------------------------------------------------------
      1         12           0       -7.165872    0.577325    0.046043
      2          6           0       -4.868009   -1.939181    0.531050
      3          6           0       -4.862887    2.847771    1.058656
      4          6           0       -9.382737    3.039173   -0.394151
      5          6           0       -9.506079   -1.790044   -0.904983
      6          7           0       -5.081730    0.411514    0.599816
      7          6           0       -4.347967   -0.721420    0.766611
      8          6           0       -2.985562   -0.365589    1.301621
      9          6           0       -3.048146    1.109922    1.697021
     10          6           0       -4.428777    1.504416    1.134911
     11          6           0       -2.922148    1.438013    3.139323
     12          6           0       -1.898529   -0.612633    0.165185
     13          6           0       -0.476951   -0.500575    0.627371
     14          6           0        0.557872   -0.732174   -0.425267
     15          8           0        0.319175   -1.051040   -1.583195
     16          8           0        1.796898   -0.393467   -0.008534
     17          7           0       -7.028111    2.603171    0.209573
     18          6           0       -6.042597    3.408865    0.743114
     19          6           0       -6.448437    4.718412    0.749814
     20          6           0       -7.759724    4.795632    0.290997
     21          6           0       -8.140710    3.489433    0.038193
     22          6           0       -5.475493    5.893529    1.064652
     23          6           0       -8.664933    5.976796    0.271150
     24          6           0       -8.427998    7.175102    0.788004
     25          7           0       -9.157719    0.608590   -0.584450
     26          6           0       -9.880263    1.800081   -0.693825
     27          6           0      -11.207527    1.425468   -1.166771
     28          6           0      -11.265054    0.072275   -1.298499
     29          6           0       -9.919574   -0.342202   -0.870975
     30          6           0      -12.307347    2.417534   -1.373999
     31          6           0      -12.397133   -0.842292   -1.703087
     32          6           0      -12.406759   -1.076082   -3.303023
     33          7           0       -7.224213   -1.423295   -0.181243
     34          6           0       -8.322536   -2.257208   -0.508983
     35          6           0       -7.861988   -3.658475   -0.473727
     36          6           0       -6.556114   -3.599641   -0.066978
     37          6           0       -6.184474   -2.244650    0.153914
     38          6           0       -8.654405   -4.851147   -0.851578
     39          6           0       -5.341286   -4.348637    0.191661
     40          8           0       -5.165916   -5.597617    0.229928
     41          6           0       -4.103940   -3.252345    0.530787
     42          6           0       -3.546436   -3.679470    1.852994
     43          8           0       -3.639879   -3.142300    2.980893
     44          8           0       -2.755556   -4.743199    1.730271
     45          6           0       -2.309508   -5.254919    2.898870
     46          6           0        2.886481   -0.651685   -1.045309
     47          6           0        4.190575   -0.334208   -0.413943
     48          6           0        5.130703    0.519232   -0.803937
     49          6           0        4.999781    1.372301   -2.087727
     50          6           0        6.423543    0.632931   -0.012810
     51          6           0        7.572128    0.006578   -0.857616
     52          6           0        8.933434   -0.096129   -0.103317
     53          6           0       10.073326   -0.398876   -0.976447
     54          6           0       10.058186   -1.853092   -1.425542
     55          6           0       11.406120   -0.156786   -0.057262
     56          6           0       12.867062   -0.460169   -0.639875
     57          6           0       14.004851   -0.209401    0.165498
     58          6           0       15.330351   -0.321228   -0.620825
     59          6           0       15.714405   -1.690642   -1.094077
     60          6           0       16.477191    0.273986    0.376539
     61          6           0       17.785687    0.513142   -0.295039
     62          6           0       18.865545    1.162997    0.748382
     63          6           0       20.248762    1.327891    0.239199
     64          6           0       20.327872    2.078102   -1.099667
     65          6           0       21.174251    1.823585    1.278642
     66          1           0       -4.022325    3.502435    1.617839
     67          1           0      -10.150216    3.923381   -0.645544
     68          1           0      -10.338764   -2.473277   -1.329628
     69          1           0       -2.639177   -1.036499    1.900829
     70          1           0       -2.251481    1.655142    1.170093
     71          1           0       -1.956018    1.096804    3.460854
     72          1           0       -3.154945    2.421092    3.368688
     73          1           0       -3.577318    0.638394    3.641252
     74          1           0       -2.130095   -1.656183   -0.382584
     75          1           0       -2.231833    0.118689   -0.399911
     76          1           0       -0.381128    0.407520    1.003839
     77          1           0       -0.425688   -1.180454    1.362732
     78          1           0       -5.571067    6.706021    0.297029
     79          1           0       -5.597481    6.174939    2.277463
     80          1           0       -4.320611    5.683536    0.999160
     81          1           0       -9.636905    6.034839   -0.254316
     82          1           0       -9.396713    7.945433    0.824458
     83          1           0       -7.394363    7.480398    1.245670
     84          1           0      -12.039242    2.887006   -2.497695
     85          1           0      -13.283195    1.916440   -1.399318
     86          1           0      -12.323569    3.245924   -0.716056
     87          1           0      -12.381617   -1.870544   -1.076604
     88          1           0      -13.301246   -0.432312   -1.535290
     89          1           0      -13.301176   -1.386608   -3.640385
     90          1           0      -12.190743   -0.213328   -4.033784
     91          1           0      -11.454027   -1.749707   -3.375369
     92          1           0       -8.612713   -4.906482   -2.029512
     93          1           0       -8.143116   -5.668414   -0.568762
     94          1           0       -9.855987   -4.779722   -0.710206
     95          1           0       -3.334007   -3.388838   -0.506499
     96          1           0       -1.658461   -4.664212    3.257335
     97          1           0       -3.123793   -5.528814    3.314113
     98          1           0       -1.661964   -6.117011    2.695764
     99          1           0        2.880801   -1.756714   -1.287314
    100          1           0        2.630162   -0.278963   -1.996783
    101          1           0        4.433894   -0.690721    0.389015
    102          1           0        3.949346    1.392499   -2.488264
    103          1           0        5.282176    2.352884   -1.708145
    104          1           0        5.771330    0.983150   -2.880678
    105          1           0        6.736104    1.784697    0.197597
    106          1           0        6.499113    0.093840    0.960047
    107          1           0        7.287157   -0.892423   -1.384403
    108          1           0        7.732148    0.556401   -1.749568
    109          1           0        9.108575    0.941447    0.438185
    110          1           0        8.824410   -0.900932    0.766811
    111          1           0       10.014358    0.371003   -1.909331
    112          1           0        9.135566   -2.095862   -1.933449
    113          1           0       10.890809   -1.950048   -2.255947
    114          1           0       10.340464   -2.481366   -0.388781
    115          1           0       11.415546    0.771344    0.258146
    116          1           0       11.533480   -0.880651    0.865069
    117          1           0       13.056522   -1.515145   -0.880479
    118          1           0       13.059479    0.108567   -1.593871
    119          1           0       14.140009    0.809994    0.703304
    120          1           0       14.017688   -0.879913    1.127576
    121          1           0       15.237400    0.305382   -1.299094
    122          1           0       15.921033   -2.527332   -0.215790
    123          1           0       15.085993   -2.269473   -1.788576
    124          1           0       16.634544   -1.907333   -1.571706
    125          1           0       16.191230    1.252368    0.739564
    126          1           0       16.641374   -0.399211    1.362997
    127          1           0       18.654503   -0.294582   -0.592547
    128          1           0       17.845657    1.174185   -1.168424
    129          1           0       18.431187    2.271766    1.048386
    130          1           0       18.929517    0.628294    1.561599
    131          1           0       20.503871    0.312599    0.029803
    132          1           0       20.019947    3.140436   -1.144573
    133          1           0       21.450074    1.990168   -1.254159
    134          1           0       19.741216    1.663110   -1.905668
    135          1           0       21.178069    0.889884    1.959144
    136          1           0       22.110611    1.821397    0.723974
    137          1           0       21.064119    2.919291    1.867846
 ---------------------------------------------------------------------

 SCF Done:  E(RCAM-B3LYP) =  -2932.54316616     A.U. after   18 cycles

 Excitation energies and oscillator strengths:

 Excited State   1:      Singlet-A      2.0727 eV  598.18 nm  f=0.2697  <S**2>=0.000
     240 -> 242       -0.12959
     240 -> 243       -0.19147
     241 -> 242        0.64601
     241 -> 243       -0.14594
 This state for optimization and/or second-order correction.
 Total Energy, E(TD-HF/TD-KS) =  -2932.46699648
 Copying the excited state density for this state as the 1-particle RhoCI density.

 The electronic state is 1-A.
 Alpha  occ. eigenvalues --  -46.84380 -19.26119 -19.25433 -19.21486 -19.20312
 Alpha  occ. eigenvalues --  -19.20293 -14.41222 -14.39799 -14.39591 -14.38378
 Alpha  occ. eigenvalues --  -10.39403 -10.38860 -10.36834 -10.32139 -10.31241
 Alpha  occ. eigenvalues --  -10.30615 -10.30516 -10.30329 -10.30203 -10.30057
 Alpha  occ. eigenvalues --  -10.29518 -10.28600 -10.28393 -10.28305 -10.28221
 Alpha  occ. eigenvalues --  -10.28087 -10.28086 -10.27841 -10.27774 -10.27690
 Alpha  occ. eigenvalues --  -10.27687 -10.27598 -10.27317 -10.27256 -10.27239
 Alpha  occ. eigenvalues --  -10.27022 -10.27010 -10.26954 -10.26832 -10.26804
 Alpha  occ. eigenvalues --  -10.26709 -10.26598 -10.26559 -10.26542 -10.26531
 Alpha  occ. eigenvalues --  -10.26207 -10.26174 -10.26133 -10.25904 -10.25849
 Alpha  occ. eigenvalues --  -10.25825 -10.25823 -10.25700 -10.25662 -10.25561
 Alpha  occ. eigenvalues --  -10.25289 -10.25288 -10.25208 -10.25101 -10.25009
 Alpha  occ. eigenvalues --  -10.24859 -10.24726 -10.24473 -10.24100 -10.23711
 Alpha  occ. eigenvalues --   -3.13348  -1.88064  -1.87600  -1.87506  -1.19953
 Alpha  occ. eigenvalues --   -1.16760  -1.09375  -1.07584  -1.07511  -1.05683
 Alpha  occ. eigenvalues --   -1.04136  -1.03098  -1.02032  -0.92765  -0.91643
 Alpha  occ. eigenvalues --   -0.91231  -0.91017  -0.90254  -0.89183  -0.89141
 Alpha  occ. eigenvalues --   -0.88863  -0.88443  -0.87937  -0.87466  -0.86349
 Alpha  occ. eigenvalues --   -0.85179  -0.84853  -0.83981  -0.83450  -0.82464
 Alpha  occ. eigenvalues --   -0.81976  -0.81473  -0.81075  -0.80272  -0.79350
 Alpha  occ. eigenvalues --   -0.77747  -0.77088  -0.76214  -0.76083  -0.75854
 Alpha  occ. eigenvalues --   -0.75401  -0.75009  -0.74687  -0.73476  -0.72957
 Alpha  occ. eigenvalues --   -0.72010  -0.70731  -0.70349  -0.69667  -0.68520
 Alpha  occ. eigenvalues --   -0.67249  -0.66396  -0.65664  -0.65126  -0.64774
 Alpha  occ. eigenvalues --   -0.64158  -0.63768  -0.63444  -0.61966  -0.61911
 Alpha  occ. eigenvalues --   -0.61817  -0.60739  -0.60569  -0.60167  -0.59657
 Alpha  occ. eigenvalues --   -0.59218  -0.58665  -0.58361  -0.57782  -0.57107
 Alpha  occ. eigenvalues --   -0.57012  -0.56252  -0.55574  -0.55418  -0.55130
 Alpha  occ. eigenvalues --   -0.54704  -0.54310  -0.54002  -0.53820  -0.53431
 Alpha  occ. eigenvalues --   -0.53212  -0.52945  -0.52370  -0.51948  -0.51912
 Alpha  occ. eigenvalues --   -0.51844  -0.51622  -0.50934  -0.50810  -0.50697
 Alpha  occ. eigenvalues --   -0.50510  -0.49892  -0.49802  -0.49651  -0.49234
 Alpha  occ. eigenvalues --   -0.49117  -0.48991  -0.48642  -0.48620  -0.48272
 Alpha  occ. eigenvalues --   -0.47870  -0.47800  -0.47767  -0.47530  -0.47341
 Alpha  occ. eigenvalues --   -0.47013  -0.46814  -0.46658  -0.45978  -0.45931
 Alpha  occ. eigenvalues --   -0.45663  -0.45614  -0.45474  -0.45237  -0.44637
 Alpha  occ. eigenvalues --   -0.44485  -0.44100  -0.44042  -0.43941  -0.43820
 Alpha  occ. eigenvalues --   -0.43733  -0.43715  -0.43376  -0.43072  -0.43027
 Alpha  occ. eigenvalues --   -0.42848  -0.42611  -0.42517  -0.42464  -0.42380
 Alpha  occ. eigenvalues --   -0.42147  -0.42057  -0.41859  -0.41717  -0.41421
 Alpha  occ. eigenvalues --   -0.41296  -0.41020  -0.40819  -0.40322  -0.40124
 Alpha  occ. eigenvalues --   -0.39593  -0.39551  -0.39376  -0.39249  -0.39170
 Alpha  occ. eigenvalues --   -0.38608  -0.38573  -0.38389  -0.38322  -0.38186
 Alpha  occ. eigenvalues --   -0.37629  -0.37324  -0.37184  -0.37164  -0.36986
 Alpha  occ. eigenvalues --   -0.36500  -0.36113  -0.35952  -0.35771  -0.35573
 Alpha  occ. eigenvalues --   -0.35440  -0.35386  -0.34546  -0.33713  -0.33414
 Alpha  occ. eigenvalues --   -0.33318  -0.32933  -0.32494  -0.31104  -0.30581
 Alpha  occ. eigenvalues --   -0.30065  -0.29957  -0.28698  -0.26727  -0.23960
 Alpha  occ. eigenvalues --   -0.20884
 Alpha virt. eigenvalues --   -0.06708  -0.03290   0.00738   0.03786   0.05329
 Alpha virt. eigenvalues --    0.06095   0.06149   0.06751   0.06872   0.07476
 Alpha virt. eigenvalues --    0.08477   0.10257   0.10925   0.11456   0.11725

 Mulliken charges:
               1
     1  Mg   0.815702
     2  C    0.073240
     3  C   -0.227343
     4  C   -0.190231
     5  C   -0.199727
     6  N   -0.645948
     7  C    0.338855
     8  C   -0.138615
     9  C   -0.147910
    10  C    0.308115
    11  C   -0.296456
    12  C   -0.193235
    13  C   -0.249490
    14  C    0.612517
    15  O   -0.484568
    16  O   -0.492965
    17  N   -0.724207
    18  C    0.375235
    19  C   -0.004347
    20  C    0.044831
    21  C    0.274775
    22  C   -0.371290
    23  C   -0.054050
    24  C   -0.257557
    25  N   -0.663599
    26  C    0.278118
    27  C    0.025099
    28  C    0.030859
    29  C    0.292787
    30  C   -0.361252
    31  C   -0.249976
    32  C   -0.308033
    33  N   -0.745561
    34  C    0.316089
    35  C    0.033636
    36  C    0.070303
    37  C    0.295799
    38  C   -0.371800
    39  C    0.327009
    40  O   -0.472003
    41  C   -0.341981
    42  C    0.631295
    43  O   -0.508235
    44  O   -0.422049
    45  C   -0.035345
    46  C    0.003623
    47  C   -0.073241
    48  C    0.100487
    49  C   -0.352673
    50  C   -0.226924
    51  C   -0.189746
    52  C   -0.142920
    53  C   -0.063283
    54  C   -0.280822
    55  C   -0.165558
    56  C   -0.193163
    57  C   -0.166142
    58  C   -0.021345
    59  C   -0.322137
    60  C   -0.183428
    61  C   -0.178620
    62  C   -0.145782
    63  C   -0.081435
    64  C   -0.305797
    65  C   -0.280233
    66  H    0.062559
    67  H    0.087910
    68  H    0.097196
    69  H    0.108111
    70  H    0.108642
    71  H    0.108354
    72  H    0.118931
    73  H    0.116719
    74  H    0.094069
    75  H    0.122284
    76  H    0.139278
    77  H    0.142371
    78  H    0.128889
    79  H    0.096594
    80  H    0.103917
    81  H    0.095277
    82  H    0.083451
    83  H    0.104547
    84  H    0.094960
    85  H    0.115130
    86  H    0.128687
    87  H    0.093136
    88  H    0.114245
    89  H    0.117434
    90  H    0.105839
    91  H    0.097052
    92  H    0.126566
    93  H    0.157860
    94  H    0.119181
    95  H    0.153018
    96  H    0.115291
    97  H    0.124811
    98  H    0.100229
    99  H    0.122798
   100  H    0.141798
   101  H    0.057372
   102  H    0.115581
   103  H    0.121197
   104  H    0.110341
   105  H    0.082876
   106  H    0.108919
   107  H    0.101560
   108  H    0.096572
   109  H    0.075397
   110  H    0.075841
   111  H    0.070222
   112  H    0.105851
   113  H    0.095207
   114  H    0.086338
   115  H    0.102906
   116  H    0.077953
   117  H    0.105611
   118  H    0.073319
   119  H    0.067276
   120  H    0.068149
   121  H    0.097183
   122  H    0.068699
   123  H    0.101984
   124  H    0.118188
   125  H    0.106120
   126  H    0.081871
   127  H    0.063101
   128  H    0.098237
   129  H    0.042310
   130  H    0.092713
   131  H    0.096022
   132  H    0.101121
   133  H    0.085170
   134  H    0.103928
   135  H    0.091661
   136  H    0.099162
   137  H    0.089552
 Sum of Mulliken charges =   0.00000

 Dipole moment (field-independent basis, Debye):
    X=              0.6383    Y=              2.2038    Z=             -0.9902  Tot=              2.4989
 Quadrupole moment (field-independent basis, Debye-Ang):
   XX=           -320.6189   YY=           -399.0943   ZZ=           -400.5540
   XY=             -6.4537   XZ=             12.3475   YZ=              0.7518

 Normal termination of Gaussian 09 at Fri Jul  5 12:57:50 2019.
