 Gaussian 16, Revision A.03,
 Gaussian 16:  ES64L-G16RevA.03 25-Dec-2016

 ----------------------------------------------------------------------
 # td=(NStates=1) iop(3/107=0140000000,3/108=0140000000) CAM-B3LYP/6-31
 G(d,p)
 ----------------------------------------------------------------------

 --
 TD
 --
 Symbolic Z-matrix:
 Charge =  0 Multiplicity = 1

                         Standard orientation:
 ---------------------------------------------------------------------
 Center     Atomic      Atomic             Coordinates (Angstroms)
 Number     Number       Type             X           Y           Z
 ---------------------------------------------------------------------
      1         12           0       -7.115627    0.697025    0.035448
      2          6           0       -4.898881   -2.005699    0.486432
      3          6           0       -4.866216    2.715050    1.323882
      4          6           0       -9.383548    3.174225   -0.355629
      5          6           0       -9.562847   -1.695494   -1.000761
      6          7           0       -5.123694    0.389343    0.728425
      7          6           0       -4.367680   -0.781530    0.837376
      8          6           0       -2.952773   -0.504810    1.232418
      9          6           0       -3.029358    0.906944    1.758790
     10          6           0       -4.399594    1.417211    1.246355
     11          6           0       -3.053129    1.022139    3.301831
     12          6           0       -1.987468   -0.621847    0.101945
     13          6           0       -0.526305   -0.441672    0.595009
     14          6           0        0.489485   -0.737430   -0.542553
     15          8           0        0.276635   -1.114409   -1.596540
     16          8           0        1.771057   -0.444868   -0.039485
     17          7           0       -7.101213    2.649876    0.434072
     18          6           0       -6.062176    3.323306    0.911621
     19          6           0       -6.342928    4.692107    0.958481
     20          6           0       -7.650160    4.855813    0.394734
     21          6           0       -8.060638    3.564503    0.020319
     22          6           0       -5.388024    5.785390    1.337284
     23          6           0       -8.576839    5.976067    0.269549
     24          6           0       -8.311872    7.300336    0.784410
     25          7           0       -9.117368    0.766264   -0.625563
     26          6           0       -9.801652    1.900676   -0.808293
     27          6           0      -11.154827    1.564860   -1.286236
     28          6           0      -11.134382    0.197362   -1.545097
     29          6           0       -9.891718   -0.284790   -1.024220
     30          6           0      -12.142077    2.582326   -1.616383
     31          6           0      -12.219766   -0.703940   -1.996758
     32          6           0      -11.924357   -1.203087   -3.394474
     33          7           0       -7.364414   -1.346022   -0.043391
     34          6           0       -8.282614   -2.219919   -0.499169
     35          6           0       -7.824094   -3.583741   -0.525938
     36          6           0       -6.483562   -3.527486   -0.213366
     37          6           0       -6.175157   -2.212731    0.049507
     38          6           0       -8.825394   -4.665930   -0.909187
     39          6           0       -5.418642   -4.311400    0.190920
     40          8           0       -5.304269   -5.565223    0.442578
     41          6           0       -4.217224   -3.351705    0.533583
     42          6           0       -3.592622   -3.753161    1.828939
     43          8           0       -3.776872   -3.147055    2.912932
     44          8           0       -2.797636   -4.815852    1.796333
     45          6           0       -2.284374   -5.213409    3.076122
     46          6           0        2.791309   -0.559515   -1.093864
     47          6           0        4.119316   -0.496074   -0.516410
     48          6           0        5.074490    0.351399   -0.923345
     49          6           0        5.017154    1.304969   -2.007750
     50          6           0        6.450164    0.295593   -0.207249
     51          6           0        7.628098   -0.262109   -0.922815
     52          6           0        8.919065   -0.199413   -0.085061
     53          6           0       10.176352   -0.546856   -0.899808
     54          6           0       10.148736   -1.965148   -1.482001
     55          6           0       11.491515   -0.144766   -0.088292
     56          6           0       12.808019   -0.422423   -0.727147
     57          6           0       14.047128    0.076348    0.084991
     58          6           0       15.257292   -0.087869   -0.648225
     59          6           0       15.602971   -1.561256   -1.086963
     60          6           0       16.437731    0.418839    0.242528
     61          6           0       17.851319    0.441593   -0.343513
     62          6           0       18.724461    1.217862    0.690767
     63          6           0       20.262709    1.331193    0.285565
     64          6           0       20.402658    2.118662   -1.049586
     65          6           0       21.215624    1.700203    1.480563
     66          1           0       -4.057836    3.516475    1.888848
     67          1           0      -10.083026    3.966192   -0.557243
     68          1           0      -10.353163   -2.469342   -1.525271
     69          1           0       -2.789024   -1.204751    1.903618
     70          1           0       -2.325181    1.637856    1.437405
     71          1           0       -1.988270    0.623214    3.641808
     72          1           0       -3.256810    2.139121    3.665349
     73          1           0       -3.750473    0.297159    3.883199
     74          1           0       -2.114680   -1.520436   -0.390759
     75          1           0       -2.298171    0.183798   -0.588253
     76          1           0       -0.422167    0.702294    0.857010
     77          1           0       -0.149308   -0.977092    1.635997
     78          1           0       -5.670674    6.656104    0.679812
     79          1           0       -5.443275    6.040281    2.443359
     80          1           0       -4.378692    5.449283    1.330481
     81          1           0       -9.589401    5.820920   -0.265780
     82          1           0       -9.227684    7.980686    0.396857
     83          1           0       -7.243836    7.637596    1.085737
     84          1           0      -11.877577    3.395808   -2.423011
     85          1           0      -13.088778    2.052617   -2.020657
     86          1           0      -12.443749    3.231291   -0.691149
     87          1           0      -12.424316   -1.601863   -1.263219
     88          1           0      -13.238970   -0.260811   -1.664535
     89          1           0      -12.558786   -1.958365   -3.632981
     90          1           0      -12.084907   -0.392692   -3.992813
     91          1           0      -10.917617   -1.661043   -3.426537
     92          1           0       -9.433551   -4.582631   -1.980718
     93          1           0       -8.420894   -5.683868   -0.745782
     94          1           0       -9.605677   -4.819226   -0.261050
     95          1           0       -3.322819   -3.446281   -0.217470
     96          1           0       -1.628054   -4.696046    3.475045
     97          1           0       -2.936835   -5.421898    3.775395
     98          1           0       -1.710021   -6.274560    2.968808
     99          1           0        2.681062   -1.630085   -1.381438
    100          1           0        2.453044    0.099882   -1.871779
    101          1           0        4.301995   -1.175707    0.442512
    102          1           0        4.048842    1.481041   -2.618897
    103          1           0        5.345138    2.251638   -1.706497
    104          1           0        5.779472    1.042794   -2.694370
    105          1           0        6.615405    1.234988    0.307622
    106          1           0        6.187974   -0.284675    0.765947
    107          1           0        7.209494   -1.322280   -1.121895
    108          1           0        7.786987    0.270858   -1.894874
    109          1           0        8.953129    0.819979    0.476254
    110          1           0        8.647867   -0.832490    0.547689
    111          1           0       10.314522    0.116297   -1.791773
    112          1           0        9.181741   -1.995520   -1.948536
    113          1           0       10.955161   -1.962613   -2.218803
    114          1           0       10.286932   -2.692177   -0.672987
    115          1           0       11.607922    0.971665    0.155566
    116          1           0       11.289880   -0.734019    0.748715
    117          1           0       12.974559   -1.480046   -1.255687
    118          1           0       12.730442    0.282249   -1.585999
    119          1           0       14.123308    1.198379    0.441215
    120          1           0       14.157885   -0.506211    0.938711
    121          1           0       15.222675    0.564132   -1.643611
    122          1           0       15.522092   -2.310672   -0.081765
    123          1           0       14.803588   -1.936451   -1.578729
    124          1           0       16.493874   -1.504924   -1.546841
    125          1           0       16.383132    1.505991    0.556169
    126          1           0       16.582467   -0.234078    1.135741
    127          1           0       18.045712   -0.599237   -0.534934
    128          1           0       17.922480    0.982248   -1.430592
    129          1           0       18.282274    2.230899    0.751645
    130          1           0       18.721091    0.806653    1.804934
    131          1           0       20.404756    0.204738    0.066289
    132          1           0       19.960537    3.260936   -0.671721
    133          1           0       21.302816    2.195885   -1.372727
    134          1           0       19.621354    1.745291   -1.750947
    135          1           0       20.966520    1.178257    2.542951
    136          1           0       22.289718    1.617492    1.206449
    137          1           0       20.923194    2.879219    1.715777
 ---------------------------------------------------------------------

 SCF Done:  E(RCAM-B3LYP) =  -2933.46586814     A.U. after   16 cycles

 Excitation energies and oscillator strengths:

 Excited State   1:      Singlet-A      1.9231 eV  644.71 nm  f=0.2849  <S**2>=0.000
     240 -> 243        0.22947
     241 -> 242        0.66595
 This state for optimization and/or second-order correction.
 Total Energy, E(TD-HF/TD-DFT) =  -2933.39519596
 Copying the excited state density for this state as the 1-particle RhoCI density.

 The electronic state is 1-A.
 Alpha  occ. eigenvalues --  -46.80277 -19.22895 -19.19925 -19.18097 -19.15697
 Alpha  occ. eigenvalues --  -19.15512 -14.37977 -14.35782 -14.35155 -14.34912
 Alpha  occ. eigenvalues --  -10.34681 -10.34193 -10.30412 -10.26479 -10.26239
 Alpha  occ. eigenvalues --  -10.26227 -10.25395 -10.25329 -10.25156 -10.25141
 Alpha  occ. eigenvalues --  -10.25048 -10.25032 -10.25003 -10.24910 -10.24879
 Alpha  occ. eigenvalues --  -10.24729 -10.24604 -10.24384 -10.24098 -10.23598
 Alpha  occ. eigenvalues --  -10.23440 -10.23440 -10.23390 -10.23291 -10.23111
 Alpha  occ. eigenvalues --  -10.23005 -10.22759 -10.22724 -10.22648 -10.22580
 Alpha  occ. eigenvalues --  -10.22504 -10.22488 -10.22308 -10.22241 -10.22239
 Alpha  occ. eigenvalues --  -10.22083 -10.21991 -10.21891 -10.21886 -10.21775
 Alpha  occ. eigenvalues --  -10.21733 -10.21721 -10.21699 -10.21668 -10.21517
 Alpha  occ. eigenvalues --  -10.21477 -10.21009 -10.20997 -10.20720 -10.20350
 Alpha  occ. eigenvalues --  -10.20332 -10.20237 -10.20221 -10.20079 -10.19732
 Alpha  occ. eigenvalues --   -3.08817  -1.83758  -1.83274  -1.83235  -1.14396
 Alpha  occ. eigenvalues --   -1.13583  -1.04964  -1.02499  -1.02048  -0.99779
 Alpha  occ. eigenvalues --   -0.98835  -0.98729  -0.97637  -0.89254  -0.86629
 Alpha  occ. eigenvalues --   -0.86309  -0.85956  -0.84416  -0.84380  -0.83772
 Alpha  occ. eigenvalues --   -0.82997  -0.82750  -0.82585  -0.81249  -0.80766
 Alpha  occ. eigenvalues --   -0.80357  -0.79526  -0.79249  -0.78241  -0.77898
 Alpha  occ. eigenvalues --   -0.77000  -0.76651  -0.76016  -0.75584  -0.73871
 Alpha  occ. eigenvalues --   -0.73560  -0.72673  -0.72054  -0.71972  -0.71657
 Alpha  occ. eigenvalues --   -0.70418  -0.70395  -0.69037  -0.68857  -0.68311
 Alpha  occ. eigenvalues --   -0.66950  -0.66022  -0.65828  -0.65190  -0.64389
 Alpha  occ. eigenvalues --   -0.62638  -0.62068  -0.61726  -0.61538  -0.60830
 Alpha  occ. eigenvalues --   -0.60172  -0.58406  -0.58176  -0.57957  -0.57789
 Alpha  occ. eigenvalues --   -0.56770  -0.56653  -0.56424  -0.55590  -0.55352
 Alpha  occ. eigenvalues --   -0.54505  -0.54406  -0.53651  -0.53091  -0.52852
 Alpha  occ. eigenvalues --   -0.52193  -0.52077  -0.51712  -0.51463  -0.51314
 Alpha  occ. eigenvalues --   -0.50712  -0.50507  -0.50159  -0.49989  -0.49447
 Alpha  occ. eigenvalues --   -0.49262  -0.48972  -0.48652  -0.48499  -0.48121
 Alpha  occ. eigenvalues --   -0.48050  -0.47909  -0.47531  -0.47193  -0.46907
 Alpha  occ. eigenvalues --   -0.46531  -0.46469  -0.46254  -0.46059  -0.45965
 Alpha  occ. eigenvalues --   -0.45630  -0.45405  -0.45260  -0.44993  -0.44653
 Alpha  occ. eigenvalues --   -0.44475  -0.44398  -0.44137  -0.44108  -0.43495
 Alpha  occ. eigenvalues --   -0.43401  -0.43295  -0.42854  -0.42600  -0.42425
 Alpha  occ. eigenvalues --   -0.42278  -0.42119  -0.41850  -0.41783  -0.41432
 Alpha  occ. eigenvalues --   -0.41221  -0.41029  -0.40693  -0.40612  -0.40538
 Alpha  occ. eigenvalues --   -0.40388  -0.40302  -0.40100  -0.39996  -0.39880
 Alpha  occ. eigenvalues --   -0.39793  -0.39603  -0.39508  -0.39346  -0.39131
 Alpha  occ. eigenvalues --   -0.38908  -0.38690  -0.38426  -0.38016  -0.37816
 Alpha  occ. eigenvalues --   -0.37725  -0.37594  -0.37559  -0.37453  -0.37446
 Alpha  occ. eigenvalues --   -0.37058  -0.36960  -0.36869  -0.36616  -0.36566
 Alpha  occ. eigenvalues --   -0.36175  -0.35645  -0.35529  -0.34927  -0.34573
 Alpha  occ. eigenvalues --   -0.34366  -0.34314  -0.34163  -0.34031  -0.33682
 Alpha  occ. eigenvalues --   -0.33372  -0.33129  -0.32885  -0.32805  -0.32479
 Alpha  occ. eigenvalues --   -0.32421  -0.32067  -0.31465  -0.31170  -0.30472
 Alpha  occ. eigenvalues --   -0.30235  -0.30126  -0.29306  -0.28744  -0.27082
 Alpha  occ. eigenvalues --   -0.26736  -0.26696  -0.25836  -0.24063  -0.21676
 Alpha  occ. eigenvalues --   -0.20455
 Alpha virt. eigenvalues --   -0.08102  -0.04423  -0.01416   0.01106   0.03308
 Alpha virt. eigenvalues --    0.03749   0.04307   0.04730   0.04945   0.05896
 Alpha virt. eigenvalues --    0.06298   0.07776   0.08605   0.09023   0.10144

 Mulliken charges:
               1
     1  Mg   0.819474
     2  C    0.080176
     3  C   -0.219391
     4  C   -0.132716
     5  C   -0.177215
     6  N   -0.641617
     7  C    0.272130
     8  C   -0.104805
     9  C   -0.142509
    10  C    0.363464
    11  C   -0.302096
    12  C   -0.161667
    13  C   -0.270032
    14  C    0.604440
    15  O   -0.408741
    16  O   -0.515904
    17  N   -0.729782
    18  C    0.382096
    19  C    0.010356
    20  C    0.039975
    21  C    0.246447
    22  C   -0.380368
    23  C   -0.101330
    24  C   -0.248786
    25  N   -0.674837
    26  C    0.288487
    27  C    0.037423
    28  C    0.049110
    29  C    0.314437
    30  C   -0.392682
    31  C   -0.274506
    32  C   -0.302352
    33  N   -0.682674
    34  C    0.291569
    35  C    0.036301
    36  C    0.110552
    37  C    0.218495
    38  C   -0.389939
    39  C    0.316459
    40  O   -0.500720
    41  C   -0.331343
    42  C    0.638133
    43  O   -0.510957
    44  O   -0.424697
    45  C   -0.068651
    46  C    0.028604
    47  C   -0.136777
    48  C    0.137878
    49  C   -0.372717
    50  C   -0.250683
    51  C   -0.179850
    52  C   -0.143721
    53  C   -0.085002
    54  C   -0.310287
    55  C   -0.163906
    56  C   -0.193880
    57  C   -0.139633
    58  C   -0.054672
    59  C   -0.295044
    60  C   -0.169792
    61  C   -0.183344
    62  C   -0.173285
    63  C   -0.047317
    64  C   -0.276615
    65  C   -0.299732
    66  H    0.054475
    67  H    0.076566
    68  H    0.093488
    69  H    0.117851
    70  H    0.107445
    71  H    0.089436
    72  H    0.098246
    73  H    0.130031
    74  H    0.118027
    75  H    0.111986
    76  H    0.125733
    77  H    0.123560
    78  H    0.119464
    79  H    0.118786
    80  H    0.118677
    81  H    0.096581
    82  H    0.091402
    83  H    0.105604
    84  H    0.114291
    85  H    0.103998
    86  H    0.110386
    87  H    0.092441
    88  H    0.095339
    89  H    0.110928
    90  H    0.126424
    91  H    0.111369
    92  H    0.099949
    93  H    0.133450
    94  H    0.144616
    95  H    0.152419
    96  H    0.132380
    97  H    0.144342
    98  H    0.088591
    99  H    0.116394
   100  H    0.116820
   101  H    0.086613
   102  H    0.100689
   103  H    0.126584
   104  H    0.128168
   105  H    0.098401
   106  H    0.079712
   107  H    0.095788
   108  H    0.090147
   109  H    0.080650
   110  H    0.109105
   111  H    0.072148
   112  H    0.115305
   113  H    0.106834
   114  H    0.101865
   115  H    0.083687
   116  H    0.090635
   117  H    0.080291
   118  H    0.088122
   119  H    0.078430
   120  H    0.098475
   121  H    0.060189
   122  H    0.058071
   123  H    0.110912
   124  H    0.116160
   125  H    0.076942
   126  H    0.091960
   127  H    0.102270
   128  H    0.068435
   129  H    0.091683
   130  H    0.076235
   131  H    0.075142
   132  H    0.053455
   133  H    0.114861
   134  H    0.108238
   135  H    0.091920
   136  H    0.109965
   137  H    0.070995
 Sum of Mulliken charges =  -0.00000

 Dipole moment (field-independent basis, Debye):
    X=              1.5519    Y=              3.7152    Z=             -1.3262  Tot=              4.2391
 Quadrupole moment (field-independent basis, Debye-Ang):
   XX=           -351.3180   YY=           -405.2544   ZZ=           -397.4128
   XY=            -18.2500   XZ=             19.5741   YZ=             -4.5845

 Normal termination of Gaussian 16 at Fri Sep  6 14:34:43 2019.
