 Gaussian 16, Revision A.03,
 Gaussian 16:  ES64L-G16RevA.03 25-Dec-2016

 ----------------------------------------------------------------------
 # td=(NStates=1) iop(3/107=0140000000,3/108=0140000000) CAM-B3LYP/6-31
 G(d,p)
 ----------------------------------------------------------------------

 --
 TD
 --
 Symbolic Z-matrix:
 Charge =  0 Multiplicity = 1

                         Standard orientation:
 ---------------------------------------------------------------------
 Center     Atomic      Atomic             Coordinates (Angstroms)
 Number     Number       Type             X           Y           Z
 ---------------------------------------------------------------------
      1         12           0       -7.136895    0.549126    0.084974
      2          6           0       -4.910773   -1.990019    0.619843
      3          6           0       -4.737343    2.770925    1.311640
      4          6           0       -9.334135    3.104202   -0.266507
      5          6           0       -9.492848   -1.763225   -0.977825
      6          7           0       -4.972865    0.385877    0.700824
      7          6           0       -4.330100   -0.783261    0.833713
      8          6           0       -2.911309   -0.472380    1.204166
      9          6           0       -2.976023    0.988626    1.618917
     10          6           0       -4.215101    1.431428    1.064990
     11          6           0       -2.929747    1.048759    3.213155
     12          6           0       -1.855136   -0.476973   -0.040858
     13          6           0       -0.435502   -0.407612    0.521977
     14          6           0        0.467823   -0.607703   -0.653605
     15          8           0        0.129985   -0.797042   -1.805795
     16          8           0        1.730964   -0.435840   -0.304132
     17          7           0       -6.989673    2.565919    0.449184
     18          6           0       -5.958444    3.335934    0.818040
     19          6           0       -6.318191    4.664430    0.898144
     20          6           0       -7.625123    4.800063    0.328933
     21          6           0       -7.979187    3.424969    0.064704
     22          6           0       -5.499098    5.817561    1.308995
     23          6           0       -8.418047    5.956947    0.141069
     24          6           0       -8.267073    7.244126    0.614466
     25          7           0       -9.138165    0.700414   -0.643379
     26          6           0       -9.707771    1.882714   -0.651231
     27          6           0      -11.173660    1.532792   -1.043695
     28          6           0      -11.254749    0.150155   -1.244959
     29          6           0       -9.934397   -0.296518   -0.980492
     30          6           0      -12.217470    2.482993   -1.347198
     31          6           0      -12.393735   -0.731358   -1.682129
     32          6           0      -12.403121   -1.079673   -3.137733
     33          7           0       -7.267120   -1.311834   -0.128091
     34          6           0       -8.205279   -2.147032   -0.606425
     35          6           0       -7.940058   -3.560765   -0.453995
     36          6           0       -6.591483   -3.512544   -0.052623
     37          6           0       -6.233118   -2.187360    0.186743
     38          6           0       -8.785559   -4.754455   -0.829371
     39          6           0       -5.369566   -4.368508    0.176285
     40          8           0       -5.238732   -5.538415    0.039074
     41          6           0       -4.214251   -3.310786    0.540161
     42          6           0       -3.677793   -3.726561    1.958684
     43          8           0       -3.842504   -3.120075    3.026918
     44          8           0       -2.751342   -4.709001    1.798354
     45          6           0       -2.250095   -5.134884    3.049324
     46          6           0        2.813294   -0.512176   -1.304833
     47          6           0        4.070047   -0.288831   -0.567384
     48          6           0        5.083661    0.421857   -1.086585
     49          6           0        5.090251    1.131283   -2.319303
     50          6           0        6.446437    0.445589   -0.311609
     51          6           0        7.689524   -0.192298   -1.009823
     52          6           0        8.900047   -0.204398   -0.133472
     53          6           0       10.229014   -0.682858   -0.901771
     54          6           0       10.055522   -2.090719   -1.451709
     55          6           0       11.500277   -0.462981    0.005292
     56          6           0       12.814437   -0.707946   -0.780505
     57          6           0       13.880437   -0.179365    0.170595
     58          6           0       15.290033   -0.182334   -0.480082
     59          6           0       15.698222   -1.576194   -0.997130
     60          6           0       16.361453    0.313200    0.464677
     61          6           0       17.797061    0.540864   -0.105573
     62          6           0       18.698916    1.187509    0.891401
     63          6           0       20.227324    1.403215    0.309625
     64          6           0       20.293656    2.241579   -0.923406
     65          6           0       21.038462    1.958199    1.349700
     66          1           0       -3.733188    3.460567    1.455492
     67          1           0      -10.055048    4.028193   -0.499780
     68          1           0      -10.292634   -2.425882   -1.147109
     69          1           0       -2.587355   -1.065251    2.040055
     70          1           0       -2.285265    1.603299    1.199286
     71          1           0       -1.912915    0.779875    3.599962
     72          1           0       -3.047566    2.163019    3.526581
     73          1           0       -3.627930    0.398471    3.681538
     74          1           0       -2.056086   -1.404047   -0.504167
     75          1           0       -2.141221    0.315642   -0.766234
     76          1           0       -0.356857    0.610787    1.043441
     77          1           0       -0.275854   -1.291495    1.212369
     78          1           0       -5.466444    6.757677    0.571141
     79          1           0       -5.668747    6.197646    2.295374
     80          1           0       -4.449843    5.487287    1.499030
     81          1           0       -9.478878    5.906610   -0.594938
     82          1           0       -9.065571    7.931840    0.367348
     83          1           0       -7.318290    7.683083    1.164949
     84          1           0      -11.922166    3.113892   -2.246871
     85          1           0      -13.145911    1.993531   -1.454765
     86          1           0      -12.274904    3.237525   -0.503392
     87          1           0      -12.648789   -1.450025   -1.097170
     88          1           0      -13.439120   -0.147603   -1.596884
     89          1           0      -13.128230   -1.836953   -3.377537
     90          1           0      -12.581664   -0.186801   -3.880326
     91          1           0      -11.531934   -1.502856   -3.460707
     92          1           0       -9.149755   -4.627053   -1.974066
     93          1           0       -8.134957   -5.669669   -0.556776
     94          1           0       -9.526804   -4.862512   -0.075020
     95          1           0       -3.511996   -3.528884   -0.159159
     96          1           0       -1.433637   -4.344518    3.288343
     97          1           0       -2.915761   -5.221876    3.893439
     98          1           0       -1.600953   -6.044561    2.837646
     99          1           0        2.512054   -1.579316   -1.736150
    100          1           0        2.579627    0.326823   -2.186892
    101          1           0        4.100826   -0.798165    0.425151
    102          1           0        4.105607    1.530625   -2.865286
    103          1           0        5.667060    2.233883   -2.214933
    104          1           0        5.702010    0.722637   -3.098174
    105          1           0        6.784508    1.503880   -0.029884
    106          1           0        6.124860   -0.018555    0.623300
    107          1           0        7.489622   -1.270141   -1.361563
    108          1           0        8.110798    0.493431   -1.777839
    109          1           0        9.319095    0.946644    0.109847
    110          1           0        8.867616   -0.733428    0.815810
    111          1           0       10.360392   -0.209822   -1.740612
    112          1           0        9.204408   -2.309343   -2.117239
    113          1           0       10.992962   -2.409345   -1.920575
    114          1           0        9.986207   -2.876831   -0.486343
    115          1           0       11.538541    0.570903    0.506792
    116          1           0       11.200753   -1.035918    0.953697
    117          1           0       12.988641   -1.758164   -1.029052
    118          1           0       12.733989   -0.061222   -1.588529
    119          1           0       13.709370    0.932047    0.551544
    120          1           0       13.889758   -0.972135    0.891062
    121          1           0       15.316758    0.393669   -1.268098
    122          1           0       15.664247   -2.426985   -0.203743
    123          1           0       15.168726   -2.025441   -1.817200
    124          1           0       16.744371   -1.741789   -1.282509
    125          1           0       16.159347    1.368812    0.632397
    126          1           0       16.374107   -0.241799    1.367764
    127          1           0       18.112857   -0.466155   -0.399344
    128          1           0       17.563274    0.887419   -1.039194
    129          1           0       18.338701    2.213904    0.733670
    130          1           0       18.706159    0.804240    1.846883
    131          1           0       20.609167    0.313516    0.226414
    132          1           0       19.990216    3.246201   -0.717732
    133          1           0       21.327042    2.485891   -1.164649
    134          1           0       19.653925    1.736008   -1.789833
    135          1           0       21.115384    1.352287    2.192888
    136          1           0       21.981091    2.258452    0.972999
    137          1           0       20.559059    3.055976    1.558808
 ---------------------------------------------------------------------

 SCF Done:  E(RCAM-B3LYP) =  -2933.52003096     A.U. after   16 cycles

 Excitation energies and oscillator strengths:

 Excited State   1:      Singlet-A      1.9509 eV  635.52 nm  f=0.2413  <S**2>=0.000
     240 -> 243        0.23080
     241 -> 242        0.65783
 This state for optimization and/or second-order correction.
 Total Energy, E(TD-HF/TD-DFT) =  -2933.44833689
 Copying the excited state density for this state as the 1-particle RhoCI density.

 The electronic state is 1-A.
 Alpha  occ. eigenvalues --  -46.80006 -19.23007 -19.20980 -19.17367 -19.17367
 Alpha  occ. eigenvalues --  -19.15726 -14.36648 -14.35397 -14.34990 -14.34550
 Alpha  occ. eigenvalues --  -10.35226 -10.33591 -10.31177 -10.29249 -10.27434
 Alpha  occ. eigenvalues --  -10.25249 -10.25151 -10.24951 -10.24817 -10.24775
 Alpha  occ. eigenvalues --  -10.24443 -10.24307 -10.24281 -10.24101 -10.23935
 Alpha  occ. eigenvalues --  -10.23900 -10.23865 -10.23748 -10.23651 -10.23335
 Alpha  occ. eigenvalues --  -10.23045 -10.23001 -10.22790 -10.22728 -10.22669
 Alpha  occ. eigenvalues --  -10.22466 -10.22261 -10.22226 -10.22204 -10.21935
 Alpha  occ. eigenvalues --  -10.21913 -10.21861 -10.21715 -10.21661 -10.21660
 Alpha  occ. eigenvalues --  -10.21656 -10.21420 -10.21412 -10.21403 -10.21388
 Alpha  occ. eigenvalues --  -10.21339 -10.21225 -10.21209 -10.20950 -10.20921
 Alpha  occ. eigenvalues --  -10.20746 -10.20711 -10.20603 -10.20365 -10.20186
 Alpha  occ. eigenvalues --  -10.20141 -10.20102 -10.19467 -10.19261 -10.19229
 Alpha  occ. eigenvalues --   -3.08687  -1.83612  -1.83204  -1.83070  -1.13596
 Alpha  occ. eigenvalues --   -1.12755  -1.08696  -1.03971  -1.03385  -1.00350
 Alpha  occ. eigenvalues --   -0.99574  -0.99259  -0.98521  -0.88119  -0.86491
 Alpha  occ. eigenvalues --   -0.85962  -0.84872  -0.84546  -0.84043  -0.83793
 Alpha  occ. eigenvalues --   -0.83323  -0.82925  -0.82647  -0.81786  -0.81086
 Alpha  occ. eigenvalues --   -0.80415  -0.79275  -0.79012  -0.78502  -0.77825
 Alpha  occ. eigenvalues --   -0.76908  -0.75973  -0.75688  -0.75474  -0.73295
 Alpha  occ. eigenvalues --   -0.72548  -0.72046  -0.71611  -0.71342  -0.71097
 Alpha  occ. eigenvalues --   -0.70387  -0.70144  -0.69561  -0.68573  -0.67859
 Alpha  occ. eigenvalues --   -0.67126  -0.66101  -0.65748  -0.64578  -0.63672
 Alpha  occ. eigenvalues --   -0.62468  -0.62014  -0.61510  -0.60418  -0.60382
 Alpha  occ. eigenvalues --   -0.60145  -0.59940  -0.59166  -0.58798  -0.58086
 Alpha  occ. eigenvalues --   -0.57401  -0.56638  -0.56558  -0.55293  -0.55110
 Alpha  occ. eigenvalues --   -0.54721  -0.54191  -0.53780  -0.53267  -0.52511
 Alpha  occ. eigenvalues --   -0.51829  -0.51763  -0.51492  -0.51248  -0.51006
 Alpha  occ. eigenvalues --   -0.50928  -0.50627  -0.50261  -0.49844  -0.49406
 Alpha  occ. eigenvalues --   -0.48853  -0.48784  -0.48338  -0.48111  -0.48097
 Alpha  occ. eigenvalues --   -0.47685  -0.47606  -0.47280  -0.47250  -0.47157
 Alpha  occ. eigenvalues --   -0.46791  -0.46631  -0.46171  -0.45825  -0.45758
 Alpha  occ. eigenvalues --   -0.45607  -0.45416  -0.45133  -0.45083  -0.44935
 Alpha  occ. eigenvalues --   -0.44564  -0.44234  -0.44125  -0.43805  -0.43681
 Alpha  occ. eigenvalues --   -0.43453  -0.43129  -0.43078  -0.42317  -0.42191
 Alpha  occ. eigenvalues --   -0.41965  -0.41879  -0.41726  -0.41607  -0.41490
 Alpha  occ. eigenvalues --   -0.41375  -0.41238  -0.41135  -0.40983  -0.40744
 Alpha  occ. eigenvalues --   -0.40611  -0.40475  -0.40383  -0.40157  -0.40034
 Alpha  occ. eigenvalues --   -0.39821  -0.39554  -0.39482  -0.39386  -0.38859
 Alpha  occ. eigenvalues --   -0.38818  -0.38545  -0.38488  -0.38327  -0.38188
 Alpha  occ. eigenvalues --   -0.37996  -0.37759  -0.37598  -0.37502  -0.37400
 Alpha  occ. eigenvalues --   -0.37153  -0.37002  -0.36723  -0.36658  -0.36199
 Alpha  occ. eigenvalues --   -0.35558  -0.35526  -0.34921  -0.34806  -0.34569
 Alpha  occ. eigenvalues --   -0.34504  -0.34430  -0.34098  -0.33783  -0.33543
 Alpha  occ. eigenvalues --   -0.32877  -0.32794  -0.32587  -0.32466  -0.32277
 Alpha  occ. eigenvalues --   -0.32083  -0.31647  -0.31095  -0.30899  -0.29989
 Alpha  occ. eigenvalues --   -0.29869  -0.29395  -0.29323  -0.27948  -0.27527
 Alpha  occ. eigenvalues --   -0.27325  -0.27236  -0.25082  -0.23920  -0.21423
 Alpha  occ. eigenvalues --   -0.19411
 Alpha virt. eigenvalues --   -0.07028  -0.03786  -0.00305   0.02158   0.02730
 Alpha virt. eigenvalues --    0.03191   0.04647   0.04812   0.05095   0.05375
 Alpha virt. eigenvalues --    0.07213   0.08451   0.09106   0.09572   0.09920

 Mulliken charges:
               1
     1  Mg   0.840373
     2  C    0.084705
     3  C   -0.183358
     4  C   -0.150141
     5  C   -0.170510
     6  N   -0.598590
     7  C    0.340224
     8  C   -0.188037
     9  C   -0.128581
    10  C    0.284906
    11  C   -0.309542
    12  C   -0.170147
    13  C   -0.263425
    14  C    0.607094
    15  O   -0.482115
    16  O   -0.474498
    17  N   -0.673977
    18  C    0.300844
    19  C    0.037650
    20  C    0.058059
    21  C    0.267062
    22  C   -0.393644
    23  C   -0.102189
    24  C   -0.245605
    25  N   -0.690895
    26  C    0.355753
    27  C   -0.028957
    28  C    0.053488
    29  C    0.269704
    30  C   -0.385183
    31  C   -0.237452
    32  C   -0.310823
    33  N   -0.760289
    34  C    0.292472
    35  C    0.023763
    36  C   -0.002041
    37  C    0.287077
    38  C   -0.378384
    39  C    0.356262
    40  O   -0.425583
    41  C   -0.333531
    42  C    0.614450
    43  O   -0.477602
    44  O   -0.425242
    45  C   -0.091876
    46  C    0.017313
    47  C   -0.122750
    48  C    0.160784
    49  C   -0.381837
    50  C   -0.223245
    51  C   -0.162378
    52  C   -0.169663
    53  C   -0.054813
    54  C   -0.309978
    55  C   -0.180746
    56  C   -0.177926
    57  C   -0.168477
    58  C   -0.045084
    59  C   -0.339866
    60  C   -0.179726
    61  C   -0.191852
    62  C   -0.158902
    63  C   -0.045504
    64  C   -0.314869
    65  C   -0.284469
    66  H    0.062805
    67  H    0.089148
    68  H    0.085674
    69  H    0.111603
    70  H    0.096703
    71  H    0.099640
    72  H    0.096164
    73  H    0.138999
    74  H    0.116346
    75  H    0.119557
    76  H    0.135336
    77  H    0.135264
    78  H    0.107313
    79  H    0.129774
    80  H    0.096358
    81  H    0.062625
    82  H    0.099966
    83  H    0.096648
    84  H    0.119387
    85  H    0.116536
    86  H    0.108862
    87  H    0.118571
    88  H    0.077443
    89  H    0.102269
    90  H    0.095866
    91  H    0.117922
    92  H    0.123833
    93  H    0.140855
    94  H    0.141379
    95  H    0.162330
    96  H    0.103082
    97  H    0.149904
    98  H    0.117559
    99  H    0.121222
   100  H    0.106488
   101  H    0.102003
   102  H    0.105498
   103  H    0.081849
   104  H    0.142080
   105  H    0.094129
   106  H    0.098583
   107  H    0.098182
   108  H    0.103054
   109  H    0.054318
   110  H    0.093747
   111  H    0.091724
   112  H    0.108672
   113  H    0.100620
   114  H    0.056979
   115  H    0.082135
   116  H    0.082065
   117  H    0.113215
   118  H    0.104420
   119  H    0.079284
   120  H    0.103434
   121  H    0.087318
   122  H    0.078186
   123  H    0.100814
   124  H    0.102537
   125  H    0.078947
   126  H    0.086692
   127  H    0.080057
   128  H    0.097657
   129  H    0.093733
   130  H    0.098214
   131  H    0.070005
   132  H    0.105976
   133  H    0.104179
   134  H    0.094699
   135  H    0.103981
   136  H    0.100445
   137  H    0.059458
 Sum of Mulliken charges =  -0.00000

 Dipole moment (field-independent basis, Debye):
    X=              3.2486    Y=              1.5298    Z=             -0.2027  Tot=              3.5965
 Quadrupole moment (field-independent basis, Debye-Ang):
   XX=           -336.5969   YY=           -395.8708   ZZ=           -398.4244
   XY=              2.3574   XZ=              5.4740   YZ=             -6.8812

 Normal termination of Gaussian 16 at Fri Sep  6 04:59:25 2019.
