 Gaussian 16, Revision A.03,
 Gaussian 16:  ES64L-G16RevA.03 25-Dec-2016

 ----------------------------------------------------------------------
 # td=(NStates=1) iop(3/107=0140000000,3/108=0140000000) CAM-B3LYP/6-31
 G(d,p)
 ----------------------------------------------------------------------

 --
 TD
 --
 Symbolic Z-matrix:
 Charge =  0 Multiplicity = 1

                         Standard orientation:
 ---------------------------------------------------------------------
 Center     Atomic      Atomic             Coordinates (Angstroms)
 Number     Number       Type             X           Y           Z
 ---------------------------------------------------------------------
      1         12           0       -7.140322    0.641211   -0.030139
      2          6           0       -4.894731   -1.931057    0.557701
      3          6           0       -4.759559    2.784333    1.101034
      4          6           0       -9.371058    3.059647   -0.465719
      5          6           0       -9.553883   -1.781977   -0.784632
      6          7           0       -5.129409    0.398347    0.657974
      7          6           0       -4.373975   -0.739990    0.784658
      8          6           0       -2.959996   -0.376901    1.259011
      9          6           0       -3.001178    1.054461    1.653583
     10          6           0       -4.423590    1.527282    1.127449
     11          6           0       -2.878096    1.407052    3.098217
     12          6           0       -1.937210   -0.611546    0.100900
     13          6           0       -0.505688   -0.528590    0.544475
     14          6           0        0.472595   -0.652990   -0.592016
     15          8           0        0.176730   -0.884879   -1.724565
     16          8           0        1.727697   -0.330134   -0.317211
     17          7           0       -7.089507    2.717184    0.231922
     18          6           0       -6.070275    3.366428    0.810896
     19          6           0       -6.448162    4.760354    0.832901
     20          6           0       -7.641189    4.912198    0.306873
     21          6           0       -8.124113    3.542864   -0.067211
     22          6           0       -5.518771    5.935276    1.282005
     23          6           0       -8.556888    5.990736    0.153525
     24          6           0       -8.524506    7.199161    0.875927
     25          7           0       -9.109801    0.663878   -0.473181
     26          6           0       -9.917316    1.768852   -0.644936
     27          6           0      -11.242526    1.477506   -1.154692
     28          6           0      -11.278588    0.118405   -1.211051
     29          6           0       -9.929597   -0.383962   -0.841997
     30          6           0      -12.358071    2.464795   -1.399143
     31          6           0      -12.350120   -0.726520   -1.653200
     32          6           0      -12.190676   -1.251080   -3.133718
     33          7           0       -7.197229   -1.386037   -0.339535
     34          6           0       -8.274783   -2.295554   -0.536847
     35          6           0       -7.925541   -3.673082   -0.392503
     36          6           0       -6.592258   -3.588639    0.024435
     37          6           0       -6.160808   -2.250655    0.148853
     38          6           0       -8.716574   -4.847894   -0.659366
     39          6           0       -5.388961   -4.397527    0.283881
     40          8           0       -5.297441   -5.630357    0.297459
     41          6           0       -4.224865   -3.260594    0.572990
     42          6           0       -3.641781   -3.706456    1.947522
     43          8           0       -3.683882   -3.028010    3.016172
     44          8           0       -2.875887   -4.868672    1.777168
     45          6           0       -2.167119   -5.345222    2.932076
     46          6           0        2.719724   -0.518053   -1.315777
     47          6           0        4.111551   -0.364035   -0.708720
     48          6           0        5.175009    0.429976   -1.050759
     49          6           0        5.116305    1.251890   -2.354696
     50          6           0        6.397581    0.343467   -0.305965
     51          6           0        7.641076   -0.125193   -1.111045
     52          6           0        8.975309   -0.067680   -0.329611
     53          6           0       10.206807   -0.610334   -1.010064
     54          6           0       10.104872   -1.983528   -1.392437
     55          6           0       11.475226   -0.222071   -0.181802
     56          6           0       12.772416   -0.420881   -0.973948
     57          6           0       14.001092   -0.031651   -0.015894
     58          6           0       15.442147   -0.154126   -0.602180
     59          6           0       15.776625   -1.690148   -0.873484
     60          6           0       16.483397    0.421599    0.352527
     61          6           0       18.034876    0.357404   -0.059152
     62          6           0       18.876654    1.141553    0.915640
     63          6           0       20.289385    1.218087    0.456978
     64          6           0       20.509541    2.020495   -0.783070
     65          6           0       21.118382    1.874165    1.597604
     66          1           0       -4.160865    3.366110    1.445487
     67          1           0      -10.134009    3.894865   -0.511612
     68          1           0      -10.531511   -2.429267   -0.717745
     69          1           0       -2.706811   -1.003115    2.241871
     70          1           0       -2.232759    1.774102    1.158907
     71          1           0       -1.792048    1.031019    3.557058
     72          1           0       -2.800409    2.597646    3.349003
     73          1           0       -3.794659    1.062325    3.964875
     74          1           0       -2.091982   -1.588353   -0.396122
     75          1           0       -2.075378    0.063587   -0.793002
     76          1           0       -0.481594    0.434869    1.148828
     77          1           0       -0.313765   -1.341333    1.454541
     78          1           0       -5.811035    6.665934    0.665332
     79          1           0       -5.572532    6.181000    2.506434
     80          1           0       -4.692939    5.607497    1.014633
     81          1           0       -9.201433    5.731253   -0.572888
     82          1           0       -9.250153    7.975917    0.524235
     83          1           0       -7.815000    7.364702    1.652771
     84          1           0      -12.083628    3.289628   -2.131536
     85          1           0      -13.396247    1.989789   -1.812183
     86          1           0      -12.492494    3.125158   -0.346910
     87          1           0      -12.431350   -1.770679   -1.204123
     88          1           0      -13.335129   -0.400003   -1.387910
     89          1           0      -12.797876   -2.118210   -3.393930
     90          1           0      -12.344115   -0.399942   -3.846357
     91          1           0      -11.239236   -1.764840   -3.308999
     92          1           0       -9.223889   -4.648762   -1.596995
     93          1           0       -8.187137   -5.810937   -0.484354
     94          1           0       -9.578761   -4.915138   -0.131452
     95          1           0       -3.509628   -3.601535   -0.288723
     96          1           0       -1.647918   -4.451510    3.188493
     97          1           0       -2.643853   -5.747036    3.811103
     98          1           0       -1.411285   -5.953809    2.473436
     99          1           0        2.632431   -1.442596   -1.770007
    100          1           0        2.573985    0.297460   -2.044986
    101          1           0        4.467800   -1.011368    0.199975
    102          1           0        4.134490    1.348643   -2.685555
    103          1           0        5.398011    2.353506   -2.118899
    104          1           0        5.848434    0.815793   -3.025862
    105          1           0        6.644670    1.439933    0.063432
    106          1           0        6.129249   -0.301591    0.443816
    107          1           0        7.504111   -1.140536   -1.598529
    108          1           0        7.584612    0.690024   -1.812175
    109          1           0        9.212806    0.974135    0.111389
    110          1           0        8.530926   -0.475722    0.752304
    111          1           0       10.278679   -0.031438   -2.046828
    112          1           0        9.235789   -2.224528   -1.959928
    113          1           0       10.867373   -2.354905   -1.952332
    114          1           0       10.041847   -2.677473   -0.524979
    115          1           0       11.245891    0.843769    0.077163
    116          1           0       11.562726   -0.789801    0.811594
    117          1           0       12.884345   -1.327828   -1.226718
    118          1           0       13.019387    0.233268   -1.787014
    119          1           0       14.123047    1.186226    0.197305
    120          1           0       13.881350   -0.552434    0.892830
    121          1           0       15.704625    0.528299   -1.642197
    122          1           0       15.459292   -2.413660    0.134645
    123          1           0       15.011625   -1.975043   -1.438806
    124          1           0       16.789113   -1.929579   -1.058368
    125          1           0       16.040424    1.371501    0.898700
    126          1           0       16.455077   -0.162690    1.324741
    127          1           0       18.507533   -0.610170   -0.088015
    128          1           0       18.242807    1.046687   -0.991418
    129          1           0       18.463100    2.298176    0.815643
    130          1           0       18.795019    0.802775    1.966718
    131          1           0       20.682324    0.210799    0.259565
    132          1           0       20.701751    3.245383   -0.613154
    133          1           0       21.663737    1.777953   -1.175541
    134          1           0       19.807218    1.767092   -1.642883
    135          1           0       21.111492    1.249068    2.507714
    136          1           0       22.122909    1.956866    1.517181
    137          1           0       20.620463    2.921065    1.730370
 ---------------------------------------------------------------------

 SCF Done:  E(RCAM-B3LYP) =  -2933.42716464     A.U. after   15 cycles

 Excitation energies and oscillator strengths:

 Excited State   1:      Singlet-A      2.0461 eV  605.96 nm  f=0.3031  <S**2>=0.000
     240 -> 243       -0.22960
     241 -> 242        0.66480
 This state for optimization and/or second-order correction.
 Total Energy, E(TD-HF/TD-DFT) =  -2933.35197241
 Copying the excited state density for this state as the 1-particle RhoCI density.

 The electronic state is 1-A.
 Alpha  occ. eigenvalues --  -46.80098 -19.21590 -19.21281 -19.16918 -19.16332
 Alpha  occ. eigenvalues --  -19.15941 -14.36917 -14.35978 -14.35333 -14.35082
 Alpha  occ. eigenvalues --  -10.35090 -10.34155 -10.30714 -10.27379 -10.25939
 Alpha  occ. eigenvalues --  -10.25589 -10.25555 -10.25530 -10.25312 -10.25292
 Alpha  occ. eigenvalues --  -10.25246 -10.25201 -10.25155 -10.25122 -10.24830
 Alpha  occ. eigenvalues --  -10.24580 -10.24504 -10.24359 -10.24142 -10.23962
 Alpha  occ. eigenvalues --  -10.23775 -10.23589 -10.23497 -10.23004 -10.22729
 Alpha  occ. eigenvalues --  -10.22681 -10.22610 -10.22501 -10.22397 -10.22363
 Alpha  occ. eigenvalues --  -10.22356 -10.22189 -10.22099 -10.22095 -10.22027
 Alpha  occ. eigenvalues --  -10.21920 -10.21806 -10.21750 -10.21747 -10.21586
 Alpha  occ. eigenvalues --  -10.21497 -10.21442 -10.21394 -10.21345 -10.21341
 Alpha  occ. eigenvalues --  -10.21336 -10.21188 -10.21179 -10.21114 -10.20642
 Alpha  occ. eigenvalues --  -10.20468 -10.19949 -10.19829 -10.19512 -10.18773
 Alpha  occ. eigenvalues --   -3.08600  -1.83550  -1.83069  -1.83001  -1.14457
 Alpha  occ. eigenvalues --   -1.10187  -1.04787  -1.04566  -1.02115  -0.99395
 Alpha  occ. eigenvalues --   -0.97965  -0.97605  -0.96052  -0.87852  -0.86730
 Alpha  occ. eigenvalues --   -0.85509  -0.85268  -0.84876  -0.84514  -0.84460
 Alpha  occ. eigenvalues --   -0.83823  -0.83112  -0.82922  -0.82418  -0.80999
 Alpha  occ. eigenvalues --   -0.79964  -0.79284  -0.78392  -0.78265  -0.77622
 Alpha  occ. eigenvalues --   -0.76810  -0.76468  -0.75993  -0.75775  -0.73716
 Alpha  occ. eigenvalues --   -0.73051  -0.72628  -0.72309  -0.71337  -0.70732
 Alpha  occ. eigenvalues --   -0.70506  -0.70403  -0.69825  -0.69177  -0.68205
 Alpha  occ. eigenvalues --   -0.67038  -0.65956  -0.65807  -0.64770  -0.64267
 Alpha  occ. eigenvalues --   -0.63405  -0.62141  -0.61650  -0.61071  -0.60159
 Alpha  occ. eigenvalues --   -0.59575  -0.58841  -0.58464  -0.57826  -0.57521
 Alpha  occ. eigenvalues --   -0.56672  -0.56613  -0.56416  -0.55435  -0.54775
 Alpha  occ. eigenvalues --   -0.54502  -0.54069  -0.53784  -0.53315  -0.53067
 Alpha  occ. eigenvalues --   -0.52310  -0.52234  -0.51652  -0.50960  -0.50839
 Alpha  occ. eigenvalues --   -0.50496  -0.50245  -0.49801  -0.49593  -0.49300
 Alpha  occ. eigenvalues --   -0.49136  -0.49016  -0.48384  -0.48062  -0.47866
 Alpha  occ. eigenvalues --   -0.47801  -0.47582  -0.47402  -0.47259  -0.47087
 Alpha  occ. eigenvalues --   -0.47029  -0.46721  -0.46098  -0.46061  -0.45915
 Alpha  occ. eigenvalues --   -0.45677  -0.45385  -0.45305  -0.45167  -0.44944
 Alpha  occ. eigenvalues --   -0.44721  -0.44643  -0.44428  -0.44029  -0.43992
 Alpha  occ. eigenvalues --   -0.43822  -0.43247  -0.43219  -0.42832  -0.42399
 Alpha  occ. eigenvalues --   -0.42233  -0.41887  -0.41690  -0.41584  -0.41346
 Alpha  occ. eigenvalues --   -0.41089  -0.40966  -0.40866  -0.40698  -0.40606
 Alpha  occ. eigenvalues --   -0.40515  -0.40294  -0.40039  -0.39820  -0.39643
 Alpha  occ. eigenvalues --   -0.39330  -0.39304  -0.38968  -0.38857  -0.38667
 Alpha  occ. eigenvalues --   -0.38630  -0.38489  -0.38107  -0.37959  -0.37869
 Alpha  occ. eigenvalues --   -0.37603  -0.37432  -0.37239  -0.36878  -0.36733
 Alpha  occ. eigenvalues --   -0.36722  -0.36429  -0.36206  -0.36126  -0.35923
 Alpha  occ. eigenvalues --   -0.35521  -0.35421  -0.35363  -0.34897  -0.34813
 Alpha  occ. eigenvalues --   -0.34627  -0.34199  -0.33909  -0.33714  -0.33546
 Alpha  occ. eigenvalues --   -0.33233  -0.33001  -0.32482  -0.32361  -0.31957
 Alpha  occ. eigenvalues --   -0.31902  -0.31818  -0.31633  -0.31081  -0.30652
 Alpha  occ. eigenvalues --   -0.30162  -0.30125  -0.29414  -0.28994  -0.26644
 Alpha  occ. eigenvalues --   -0.26457  -0.26419  -0.26116  -0.24978  -0.21982
 Alpha  occ. eigenvalues --   -0.20348
 Alpha virt. eigenvalues --   -0.07422  -0.04070  -0.00115   0.01709   0.02732
 Alpha virt. eigenvalues --    0.03916   0.04217   0.04872   0.05489   0.05578
 Alpha virt. eigenvalues --    0.06437   0.08519   0.09080   0.09617   0.09848

 Mulliken charges:
               1
     1  Mg   0.808240
     2  C    0.125529
     3  C   -0.090908
     4  C   -0.179903
     5  C   -0.185478
     6  N   -0.666641
     7  C    0.318603
     8  C   -0.152747
     9  C   -0.121132
    10  C    0.340697
    11  C   -0.284837
    12  C   -0.174729
    13  C   -0.266480
    14  C    0.605926
    15  O   -0.464132
    16  O   -0.454779
    17  N   -0.694306
    18  C    0.297911
    19  C   -0.083408
    20  C    0.077932
    21  C    0.268816
    22  C   -0.326007
    23  C   -0.062896
    24  C   -0.250912
    25  N   -0.675657
    26  C    0.278197
    27  C    0.095061
    28  C    0.063363
    29  C    0.275036
    30  C   -0.378934
    31  C   -0.285597
    32  C   -0.316891
    33  N   -0.698048
    34  C    0.258337
    35  C    0.086548
    36  C    0.023888
    37  C    0.242453
    38  C   -0.391698
    39  C    0.336653
    40  O   -0.464090
    41  C   -0.363075
    42  C    0.623888
    43  O   -0.490410
    44  O   -0.455394
    45  C   -0.080581
    46  C    0.027491
    47  C   -0.149947
    48  C    0.137214
    49  C   -0.361634
    50  C   -0.229169
    51  C   -0.173247
    52  C   -0.161844
    53  C   -0.042305
    54  C   -0.307813
    55  C   -0.173827
    56  C   -0.172752
    57  C   -0.184993
    58  C   -0.043022
    59  C   -0.293171
    60  C   -0.166397
    61  C   -0.170308
    62  C   -0.150528
    63  C   -0.043993
    64  C   -0.290939
    65  C   -0.302204
    66  H    0.018071
    67  H    0.072445
    68  H    0.089649
    69  H    0.134321
    70  H    0.107761
    71  H    0.081989
    72  H    0.091172
    73  H    0.091611
    74  H    0.116122
    75  H    0.120277
    76  H    0.128776
    77  H    0.111421
    78  H    0.128441
    79  H    0.091990
    80  H    0.121022
    81  H    0.081408
    82  H    0.100786
    83  H    0.111893
    84  H    0.124641
    85  H    0.107944
    86  H    0.103328
    87  H    0.095611
    88  H    0.108225
    89  H    0.101887
    90  H    0.107879
    91  H    0.114524
    92  H    0.128111
    93  H    0.152409
    94  H    0.139695
    95  H    0.165975
    96  H    0.121749
    97  H    0.136743
    98  H    0.124680
    99  H    0.137560
   100  H    0.113254
   101  H    0.065033
   102  H    0.114052
   103  H    0.093711
   104  H    0.132110
   105  H    0.088961
   106  H    0.096209
   107  H    0.096652
   108  H    0.101795
   109  H    0.078262
   110  H    0.059117
   111  H    0.071850
   112  H    0.101476
   113  H    0.108717
   114  H    0.093141
   115  H    0.092776
   116  H    0.086933
   117  H    0.111327
   118  H    0.106366
   119  H    0.061369
   120  H    0.102042
   121  H    0.049995
   122  H    0.044207
   123  H    0.115674
   124  H    0.114529
   125  H    0.071921
   126  H    0.079069
   127  H    0.101672
   128  H    0.080357
   129  H    0.061888
   130  H    0.089516
   131  H    0.087816
   132  H    0.080537
   133  H    0.072108
   134  H    0.104998
   135  H    0.089369
   136  H    0.106068
   137  H    0.090985
 Sum of Mulliken charges =  -0.00000

 Dipole moment (field-independent basis, Debye):
    X=              0.6081    Y=              2.8205    Z=             -0.4100  Tot=              2.9143
 Quadrupole moment (field-independent basis, Debye-Ang):
   XX=           -323.3709   YY=           -394.9793   ZZ=           -401.0252
   XY=            -23.0789   XZ=             12.2643   YZ=             -1.0067

 Normal termination of Gaussian 16 at Mon Sep 16 17:24:36 2019.
