 Gaussian 09, Revision D.01,
 Gaussian 09:  ES64L-G09RevD.01 24-Apr-2013

 -------------------------------------
 # td=(NStates=1) CAM-B3LYP/6-31G(d,p)
 -------------------------------------

 --
 TD
 --
 Symbolic Z-matrix:
 Charge =  0 Multiplicity = 1

                         Standard orientation:
 ---------------------------------------------------------------------
 Center     Atomic      Atomic             Coordinates (Angstroms)
 Number     Number       Type             X           Y           Z
 ---------------------------------------------------------------------
      1         12           0       -7.222564    0.576220    0.102446
      2          6           0       -4.900378   -1.904790    0.515233
      3          6           0       -4.878698    2.779061    1.090492
      4          6           0       -9.457210    3.017206   -0.266286
      5          6           0       -9.569984   -1.789316   -0.807660
      6          7           0       -5.117684    0.489319    0.753402
      7          6           0       -4.329953   -0.645976    0.786969
      8          6           0       -2.924868   -0.405477    1.077203
      9          6           0       -3.066658    1.149948    1.528806
     10          6           0       -4.427353    1.519927    1.100878
     11          6           0       -2.933148    1.338840    3.109519
     12          6           0       -1.957908   -0.560148   -0.044526
     13          6           0       -0.525850   -0.425889    0.455504
     14          6           0        0.548314   -0.642401   -0.658210
     15          8           0        0.288415   -0.973732   -1.838943
     16          8           0        1.746071   -0.295162   -0.285448
     17          7           0       -7.137049    2.615560    0.228579
     18          6           0       -6.033367    3.382002    0.606725
     19          6           0       -6.426574    4.704217    0.651587
     20          6           0       -7.717842    4.872154    0.309968
     21          6           0       -8.177397    3.476649    0.022954
     22          6           0       -5.571580    5.817480    1.110226
     23          6           0       -8.550531    6.035587    0.074105
     24          6           0       -8.630552    7.036133    0.935738
     25          7           0       -9.151163    0.683078   -0.393000
     26          6           0       -9.864649    1.754951   -0.561658
     27          6           0      -11.160672    1.409886   -1.088843
     28          6           0      -11.260897    0.057916   -1.238916
     29          6           0       -9.896231   -0.455431   -0.809080
     30          6           0      -12.280443    2.385766   -1.237541
     31          6           0      -12.323991   -0.797211   -1.696244
     32          6           0      -12.290968   -1.085709   -3.233504
     33          7           0       -7.277670   -1.348397   -0.157343
     34          6           0       -8.259846   -2.315168   -0.405377
     35          6           0       -7.883012   -3.638910   -0.348291
     36          6           0       -6.438266   -3.590873   -0.076763
     37          6           0       -6.147242   -2.203931    0.094431
     38          6           0       -8.677902   -4.953861   -0.650903
     39          6           0       -5.289466   -4.404339    0.141868
     40          8           0       -5.112829   -5.591120    0.114848
     41          6           0       -4.219934   -3.369379    0.591256
     42          6           0       -3.595530   -3.696705    1.899994
     43          8           0       -3.662358   -3.113712    2.972726
     44          8           0       -2.759895   -4.717855    1.813550
     45          6           0       -2.136706   -5.203877    2.901231
     46          6           0        2.823866   -0.448349   -1.246045
     47          6           0        4.113490   -0.167882   -0.499931
     48          6           0        5.187903    0.502173   -0.949360
     49          6           0        5.146497    1.264934   -2.360125
     50          6           0        6.490811    0.602157   -0.249274
     51          6           0        7.590828   -0.117149   -0.994897
     52          6           0        8.977772   -0.125334   -0.182896
     53          6           0       10.265554   -0.522839   -0.925171
     54          6           0       10.063894   -1.934312   -1.270552
     55          6           0       11.539019   -0.294338   -0.042036
     56          6           0       12.824457   -0.570974   -0.812064
     57          6           0       13.921966   -0.121762    0.019722
     58          6           0       15.369511   -0.176827   -0.513383
     59          6           0       15.663826   -1.597066   -0.968133
     60          6           0       16.399258    0.368783    0.503453
     61          6           0       17.808243    0.488926   -0.083849
     62          6           0       18.814513    1.209432    0.840617
     63          6           0       20.283950    1.192809    0.450629
     64          6           0       20.378914    2.031523   -0.963410
     65          6           0       21.122232    1.849762    1.542870
     66          1           0       -4.117172    3.570083    1.536783
     67          1           0      -10.114092    3.957699   -0.330309
     68          1           0      -10.255606   -2.624097   -1.312711
     69          1           0       -2.470549   -1.050952    1.964585
     70          1           0       -2.185196    1.605097    0.897261
     71          1           0       -1.807468    1.337839    3.241442
     72          1           0       -3.161169    2.351704    3.374743
     73          1           0       -3.369986    0.410998    3.601921
     74          1           0       -2.190428   -1.397346   -0.557503
     75          1           0       -2.377455   -0.017722   -0.790839
     76          1           0       -0.472006    0.572255    0.704006
     77          1           0       -0.215174   -1.242090    1.242003
     78          1           0       -5.983112    6.726819    0.721990
     79          1           0       -5.428187    5.941948    2.320284
     80          1           0       -4.394758    5.797357    0.793488
     81          1           0       -9.092500    6.046589   -0.747780
     82          1           0       -9.345153    7.975789    0.663446
     83          1           0       -7.993994    7.176677    1.851453
     84          1           0      -11.884794    3.309378   -1.706056
     85          1           0      -13.007719    1.779627   -1.820196
     86          1           0      -12.484801    2.846950   -0.177137
     87          1           0      -12.437490   -1.841059   -1.142381
     88          1           0      -13.459841   -0.410291   -1.256530
     89          1           0      -13.045792   -1.955623   -3.607676
     90          1           0      -12.429236   -0.234825   -3.856266
     91          1           0      -11.407774   -1.701584   -3.534753
     92          1           0       -8.922899   -4.893282   -1.547818
     93          1           0       -7.955156   -5.751402   -0.549307
     94          1           0       -9.428323   -4.976409   -0.099541
     95          1           0       -3.235195   -3.346195    0.015406
     96          1           0       -1.661163   -4.436589    3.479431
     97          1           0       -2.823221   -5.527446    3.610663
     98          1           0       -1.389802   -6.058136    2.711206
     99          1           0        2.765145   -1.525170   -1.656174
    100          1           0        2.597202    0.223653   -2.092952
    101          1           0        4.444113   -0.712838    0.397733
    102          1           0        4.154856    1.462936   -2.713731
    103          1           0        5.699379    2.213458   -2.175183
    104          1           0        5.793727    0.951058   -3.152957
    105          1           0        6.690043    1.756375   -0.200222
    106          1           0        6.297144    0.101876    0.631167
    107          1           0        7.058456   -1.188384   -1.558601
    108          1           0        7.791904    0.565845   -1.918876
    109          1           0        8.878166    0.926999    0.475822
    110          1           0        8.800339   -0.830509    0.555623
    111          1           0       10.289898    0.134799   -1.726185
    112          1           0        9.152840   -2.174126   -1.918744
    113          1           0       10.950361   -2.590159   -1.634648
    114          1           0       10.080950   -2.376268   -0.308298
    115          1           0       11.620574    0.705356    0.331463
    116          1           0       11.467290   -1.006545    0.781419
    117          1           0       12.968667   -1.731808   -1.179196
    118          1           0       12.906016   -0.033969   -1.861205
    119          1           0       13.716963    0.891367    0.318443
    120          1           0       14.172483   -0.557532    0.961679
    121          1           0       15.476312    0.379639   -1.531449
    122          1           0       15.709196   -2.252836   -0.038403
    123          1           0       14.892115   -1.959433   -1.461567
    124          1           0       16.583866   -1.673583   -1.568060
    125          1           0       15.975982    1.361619    0.990215
    126          1           0       16.507830   -0.296528    1.297740
    127          1           0       18.219820   -0.448117   -0.308268
    128          1           0       17.978598    0.988329   -1.117153
    129          1           0       18.530337    2.310060    0.992886
    130          1           0       18.808337    0.543648    1.818093
    131          1           0       20.739538    0.354497    0.032531
    132          1           0       20.049383    3.026528   -0.616804
    133          1           0       21.360106    1.976292   -1.428995
    134          1           0       19.683922    1.729500   -1.795868
    135          1           0       20.877418    1.226103    2.320968
    136          1           0       22.093648    1.656650    1.119082
    137          1           0       21.049533    2.978556    1.718364
 ---------------------------------------------------------------------

 SCF Done:  E(RCAM-B3LYP) =  -2932.64091740     A.U. after   17 cycles

 Excitation energies and oscillator strengths:

 Excited State   1:      Singlet-A      2.0872 eV  594.02 nm  f=0.3003  <S**2>=0.000
     240 -> 242       -0.10147
     240 -> 243        0.22527
     241 -> 242        0.65788
 This state for optimization and/or second-order correction.
 Total Energy, E(TD-HF/TD-KS) =  -2932.56421355
 Copying the excited state density for this state as the 1-particle RhoCI density.

 The electronic state is 1-A.
 Alpha  occ. eigenvalues --  -46.83477 -19.26958 -19.25342 -19.19714 -19.19572
 Alpha  occ. eigenvalues --  -19.19467 -14.41911 -14.39539 -14.39077 -14.39009
 Alpha  occ. eigenvalues --  -10.39080 -10.38544 -10.34254 -10.33485 -10.30217
 Alpha  occ. eigenvalues --  -10.29975 -10.29866 -10.29741 -10.29580 -10.29567
 Alpha  occ. eigenvalues --  -10.29292 -10.29155 -10.28818 -10.28604 -10.28565
 Alpha  occ. eigenvalues --  -10.28506 -10.28459 -10.28394 -10.28243 -10.28187
 Alpha  occ. eigenvalues --  -10.28036 -10.27887 -10.27563 -10.27414 -10.27354
 Alpha  occ. eigenvalues --  -10.27180 -10.27019 -10.26919 -10.26908 -10.26905
 Alpha  occ. eigenvalues --  -10.26781 -10.26716 -10.26630 -10.26628 -10.26604
 Alpha  occ. eigenvalues --  -10.26447 -10.26402 -10.26384 -10.26018 -10.25937
 Alpha  occ. eigenvalues --  -10.25807 -10.25765 -10.25663 -10.25574 -10.25567
 Alpha  occ. eigenvalues --  -10.25546 -10.24988 -10.24885 -10.24868 -10.24535
 Alpha  occ. eigenvalues --  -10.24417 -10.24058 -10.23869 -10.23233 -10.22578
 Alpha  occ. eigenvalues --   -3.12751  -1.87432  -1.87002  -1.86947  -1.19953
 Alpha  occ. eigenvalues --   -1.19250  -1.11231  -1.08057  -1.06832  -1.06164
 Alpha  occ. eigenvalues --   -1.04425  -1.03305  -1.01133  -0.92503  -0.91995
 Alpha  occ. eigenvalues --   -0.91287  -0.91009  -0.90459  -0.89919  -0.89672
 Alpha  occ. eigenvalues --   -0.88701  -0.88661  -0.87455  -0.86414  -0.86025
 Alpha  occ. eigenvalues --   -0.85596  -0.84946  -0.84219  -0.83816  -0.82891
 Alpha  occ. eigenvalues --   -0.81865  -0.81544  -0.81112  -0.80332  -0.78765
 Alpha  occ. eigenvalues --   -0.77670  -0.76855  -0.76662  -0.76220  -0.75936
 Alpha  occ. eigenvalues --   -0.75493  -0.75359  -0.74465  -0.74026  -0.73398
 Alpha  occ. eigenvalues --   -0.71979  -0.71654  -0.70226  -0.69257  -0.68696
 Alpha  occ. eigenvalues --   -0.67490  -0.66637  -0.66066  -0.65362  -0.64820
 Alpha  occ. eigenvalues --   -0.64470  -0.64153  -0.63602  -0.62799  -0.62057
 Alpha  occ. eigenvalues --   -0.61814  -0.61665  -0.60477  -0.60186  -0.58976
 Alpha  occ. eigenvalues --   -0.58883  -0.58197  -0.57330  -0.57002  -0.56516
 Alpha  occ. eigenvalues --   -0.56259  -0.55773  -0.55573  -0.55397  -0.55169
 Alpha  occ. eigenvalues --   -0.54331  -0.53880  -0.53748  -0.53446  -0.53253
 Alpha  occ. eigenvalues --   -0.53081  -0.52899  -0.52547  -0.52388  -0.51818
 Alpha  occ. eigenvalues --   -0.51581  -0.51543  -0.51414  -0.50956  -0.50785
 Alpha  occ. eigenvalues --   -0.50608  -0.50524  -0.50395  -0.50126  -0.49785
 Alpha  occ. eigenvalues --   -0.49636  -0.49439  -0.49204  -0.48795  -0.48547
 Alpha  occ. eigenvalues --   -0.48314  -0.47955  -0.47500  -0.47139  -0.46878
 Alpha  occ. eigenvalues --   -0.46793  -0.46562  -0.46557  -0.46261  -0.45878
 Alpha  occ. eigenvalues --   -0.45733  -0.45642  -0.45495  -0.45339  -0.45206
 Alpha  occ. eigenvalues --   -0.44974  -0.44866  -0.44667  -0.44349  -0.44025
 Alpha  occ. eigenvalues --   -0.43914  -0.43855  -0.43411  -0.43349  -0.43319
 Alpha  occ. eigenvalues --   -0.43102  -0.42872  -0.42673  -0.42600  -0.42373
 Alpha  occ. eigenvalues --   -0.42203  -0.41850  -0.41711  -0.41484  -0.41414
 Alpha  occ. eigenvalues --   -0.41119  -0.40892  -0.40851  -0.40366  -0.40263
 Alpha  occ. eigenvalues --   -0.40250  -0.40124  -0.39908  -0.39571  -0.39284
 Alpha  occ. eigenvalues --   -0.39089  -0.38548  -0.38011  -0.37883  -0.37791
 Alpha  occ. eigenvalues --   -0.37440  -0.37164  -0.36882  -0.36833  -0.36697
 Alpha  occ. eigenvalues --   -0.36408  -0.36053  -0.35999  -0.35712  -0.35543
 Alpha  occ. eigenvalues --   -0.35247  -0.34540  -0.34072  -0.33664  -0.33580
 Alpha  occ. eigenvalues --   -0.32936  -0.32739  -0.32248  -0.31317  -0.30187
 Alpha  occ. eigenvalues --   -0.29838  -0.29099  -0.28709  -0.28104  -0.23228
 Alpha  occ. eigenvalues --   -0.21355
 Alpha virt. eigenvalues --   -0.06944  -0.02601   0.01047   0.04384   0.05898
 Alpha virt. eigenvalues --    0.06255   0.06598   0.06838   0.06883   0.07452
 Alpha virt. eigenvalues --    0.08326   0.10230   0.10638   0.11334   0.11675

 Mulliken charges:
               1
     1  Mg   0.821244
     2  C    0.063652
     3  C   -0.221659
     4  C   -0.206677
     5  C   -0.194825
     6  N   -0.618855
     7  C    0.273379
     8  C   -0.169140
     9  C   -0.184389
    10  C    0.421839
    11  C   -0.312139
    12  C   -0.163249
    13  C   -0.244506
    14  C    0.573011
    15  O   -0.507566
    16  O   -0.440770
    17  N   -0.713046
    18  C    0.332597
    19  C    0.046558
    20  C    0.021452
    21  C    0.281418
    22  C   -0.378860
    23  C   -0.064299
    24  C   -0.235624
    25  N   -0.719311
    26  C    0.402396
    27  C   -0.013096
    28  C    0.101958
    29  C    0.286669
    30  C   -0.355094
    31  C   -0.279785
    32  C   -0.304413
    33  N   -0.721756
    34  C    0.260785
    35  C   -0.024957
    36  C   -0.004539
    37  C    0.250726
    38  C   -0.321629
    39  C    0.368744
    40  O   -0.456525
    41  C   -0.344996
    42  C    0.608939
    43  O   -0.495623
    44  O   -0.401069
    45  C   -0.084331
    46  C    0.011143
    47  C   -0.132732
    48  C    0.105068
    49  C   -0.369315
    50  C   -0.210754
    51  C   -0.163595
    52  C   -0.175031
    53  C   -0.063072
    54  C   -0.306410
    55  C   -0.177489
    56  C   -0.167978
    57  C   -0.163311
    58  C   -0.075288
    59  C   -0.299194
    60  C   -0.164650
    61  C   -0.184700
    62  C   -0.150631
    63  C   -0.089033
    64  C   -0.334249
    65  C   -0.290933
    66  H    0.073921
    67  H    0.077079
    68  H    0.100157
    69  H    0.113666
    70  H    0.093704
    71  H    0.102052
    72  H    0.121016
    73  H    0.145921
    74  H    0.119860
    75  H    0.115556
    76  H    0.143753
    77  H    0.135634
    78  H    0.123762
    79  H    0.100480
    80  H    0.094622
    81  H    0.107586
    82  H    0.089771
    83  H    0.117159
    84  H    0.114307
    85  H    0.116634
    86  H    0.117026
    87  H    0.106465
    88  H    0.076810
    89  H    0.081061
    90  H    0.125162
    91  H    0.117197
    92  H    0.132199
    93  H    0.144163
    94  H    0.125839
    95  H    0.160663
    96  H    0.112406
    97  H    0.122924
    98  H    0.111026
    99  H    0.136079
   100  H    0.135420
   101  H    0.084185
   102  H    0.113557
   103  H    0.097969
   104  H    0.128451
   105  H    0.103105
   106  H    0.103628
   107  H    0.065403
   108  H    0.081757
   109  H    0.066503
   110  H    0.106444
   111  H    0.091738
   112  H    0.109517
   113  H    0.088120
   114  H    0.106346
   115  H    0.103068
   116  H    0.098258
   117  H    0.074407
   118  H    0.085589
   119  H    0.089863
   120  H    0.093848
   121  H    0.063585
   122  H    0.076687
   123  H    0.110122
   124  H    0.100073
   125  H    0.074505
   126  H    0.102298
   127  H    0.105268
   128  H    0.077713
   129  H    0.087537
   130  H    0.063073
   131  H    0.104287
   132  H    0.097220
   133  H    0.095452
   134  H    0.095408
   135  H    0.112840
   136  H    0.101531
   137  H    0.099079
 Sum of Mulliken charges =   0.00000

 Dipole moment (field-independent basis, Debye):
    X=              2.1694    Y=              5.5266    Z=              0.0712  Tot=              5.9375
 Quadrupole moment (field-independent basis, Debye-Ang):
   XX=           -335.0209   YY=           -392.8595   ZZ=           -400.0898
   XY=            -34.2207   XZ=             13.6113   YZ=              0.7877

 Normal termination of Gaussian 09 at Fri Jul  5 09:15:44 2019.
