 Gaussian 09, Revision D.01,
 Gaussian 09:  ES64L-G09RevD.01 24-Apr-2013

 -------------------------------------
 # td=(NStates=1) CAM-B3LYP/6-31G(d,p)
 -------------------------------------

 --
 TD
 --
 Symbolic Z-matrix:
 Charge =  0 Multiplicity = 1

                         Standard orientation:
 ---------------------------------------------------------------------
 Center     Atomic      Atomic             Coordinates (Angstroms)
 Number     Number       Type             X           Y           Z
 ---------------------------------------------------------------------
      1         12           0       -7.166279    0.586991    0.004368
      2          6           0       -4.858771   -1.890986    0.428741
      3          6           0       -4.799090    2.853312    1.033439
      4          6           0       -9.451079    2.987687   -0.253089
      5          6           0       -9.540892   -1.825615   -0.782273
      6          7           0       -5.079773    0.525838    0.697874
      7          6           0       -4.387278   -0.689965    0.775181
      8          6           0       -2.916554   -0.325377    1.055926
      9          6           0       -2.979633    1.126598    1.584482
     10          6           0       -4.386861    1.558463    1.063354
     11          6           0       -3.023670    1.212049    3.164415
     12          6           0       -1.863410   -0.402357   -0.105710
     13          6           0       -0.468846   -0.301747    0.402767
     14          6           0        0.550275   -0.655383   -0.516975
     15          8           0        0.328574   -1.022567   -1.702802
     16          8           0        1.792554   -0.487406   -0.133754
     17          7           0       -7.129625    2.518101    0.373296
     18          6           0       -6.071352    3.393576    0.764682
     19          6           0       -6.517832    4.702397    0.700621
     20          6           0       -7.772705    4.796782    0.300340
     21          6           0       -8.153775    3.407081    0.078729
     22          6           0       -5.468542    5.845146    0.912252
     23          6           0       -8.642046    6.011161    0.123554
     24          6           0       -8.539882    7.182143    0.665916
     25          7           0       -9.163329    0.678999   -0.505956
     26          6           0       -9.953529    1.766661   -0.628988
     27          6           0      -11.226362    1.390379   -0.969769
     28          6           0      -11.273033    0.011451   -1.204640
     29          6           0       -9.998351   -0.475612   -0.908391
     30          6           0      -12.263176    2.460217   -1.154149
     31          6           0      -12.574876   -0.792948   -1.731601
     32          6           0      -12.302915   -1.232009   -3.181037
     33          7           0       -7.243801   -1.431328   -0.088912
     34          6           0       -8.279317   -2.268507   -0.497483
     35          6           0       -7.810145   -3.725925   -0.479506
     36          6           0       -6.375974   -3.585201   -0.081126
     37          6           0       -6.236586   -2.200940    0.207662
     38          6           0       -8.748837   -4.838537   -0.781330
     39          6           0       -5.328371   -4.275234    0.308161
     40          8           0       -5.109552   -5.539949    0.178096
     41          6           0       -4.131399   -3.255807    0.527257
     42          6           0       -3.613340   -3.572630    1.805034
     43          8           0       -3.858933   -3.096053    2.960141
     44          8           0       -2.613086   -4.497651    1.825767
     45          6           0       -2.259631   -5.104147    3.021577
     46          6           0        2.742318   -0.716752   -1.248374
     47          6           0        4.150879   -0.529327   -0.599833
     48          6           0        5.141461    0.270496   -1.003570
     49          6           0        5.078234    1.173278   -2.269919
     50          6           0        6.482086    0.433953   -0.176331
     51          6           0        7.644520   -0.248334   -0.956083
     52          6           0        8.926616   -0.179162   -0.133567
     53          6           0       10.224985   -0.557341   -0.809275
     54          6           0       10.181002   -1.994465   -1.290244
     55          6           0       11.443046   -0.172519    0.099354
     56          6           0       12.846546   -0.684783   -0.532403
     57          6           0       14.029205   -0.107453    0.153893
     58          6           0       15.390263   -0.218401   -0.506191
     59          6           0       15.805793   -1.577478   -1.014251
     60          6           0       16.494027    0.477182    0.377192
     61          6           0       17.830837    0.663829   -0.265857
     62          6           0       18.882563    1.158962    0.806803
     63          6           0       20.373241    1.243932    0.256309
     64          6           0       20.397832    2.081099   -1.024486
     65          6           0       21.250029    1.972428    1.406726
     66          1           0       -4.183587    3.608721    1.250576
     67          1           0      -10.109071    3.853849   -0.408084
     68          1           0      -10.432489   -2.524748   -1.188238
     69          1           0       -2.780662   -0.941021    1.832847
     70          1           0       -2.276768    1.679005    1.187778
     71          1           0       -2.066612    0.883943    3.638883
     72          1           0       -2.866222    2.467834    3.382523
     73          1           0       -3.858631    0.673820    3.384443
     74          1           0       -2.021676   -1.436198   -0.428556
     75          1           0       -2.026323    0.243474   -0.896858
     76          1           0       -0.260790    0.664494    0.970581
     77          1           0       -0.287646   -0.900055    1.307119
     78          1           0       -5.801786    6.767382    0.542512
     79          1           0       -5.345930    6.319636    1.951067
     80          1           0       -4.536216    5.711593    0.621914
     81          1           0       -9.459925    5.916843   -0.539793
     82          1           0       -9.307954    7.928323    0.526141
     83          1           0       -7.632716    7.405775    1.414042
     84          1           0      -11.882102    3.170024   -1.777270
     85          1           0      -13.335265    2.102718   -1.346226
     86          1           0      -12.541511    3.011141   -0.291053
     87          1           0      -12.537282   -1.503614   -1.046221
     88          1           0      -13.564829   -0.185646   -1.505446
     89          1           0      -13.068096   -1.696927   -3.571768
     90          1           0      -12.249686   -0.411804   -3.956698
     91          1           0      -11.310043   -1.752705   -3.504447
     92          1           0       -9.031749   -4.756114   -1.855523
     93          1           0       -8.152930   -5.715888   -0.889176
     94          1           0       -9.559404   -4.880993   -0.206384
     95          1           0       -3.220089   -3.163859   -0.246413
     96          1           0       -1.566782   -4.388896    3.586853
     97          1           0       -3.259234   -5.260053    3.691419
     98          1           0       -1.650093   -6.067577    2.635048
     99          1           0        2.759703   -1.670520   -1.450662
    100          1           0        2.486777   -0.011679   -2.082146
    101          1           0        4.167430   -1.056613    0.372423
    102          1           0        3.944220    1.206606   -2.857308
    103          1           0        5.083439    2.368719   -2.116866
    104          1           0        6.086013    1.168487   -3.039144
    105          1           0        6.655771    1.582202   -0.258488
    106          1           0        6.333752    0.015505    0.862843
    107          1           0        7.238563   -1.354773   -1.138721
    108          1           0        7.816229    0.116403   -1.944720
    109          1           0        8.880441    0.758777    0.474625
    110          1           0        8.811294   -1.125936    0.692199
    111          1           0       10.388527    0.154701   -1.733428
    112          1           0        9.269542   -2.275071   -1.945489
    113          1           0       11.161283   -2.279073   -1.723791
    114          1           0       10.122130   -2.723520   -0.507316
    115          1           0       11.462764    0.793783    0.435767
    116          1           0       11.285532   -0.685124    1.085824
    117          1           0       12.851548   -1.872070   -0.569842
    118          1           0       12.812651   -0.239890   -1.595250
    119          1           0       13.812411    0.969862    0.438749
    120          1           0       13.930733   -0.458951    1.078875
    121          1           0       15.220477    0.533624   -1.225465
    122          1           0       16.002845   -2.512081   -0.265427
    123          1           0       15.033621   -2.067777   -1.702943
    124          1           0       16.721293   -1.213369   -1.718356
    125          1           0       15.860418    1.316463    0.610298
    126          1           0       16.293488   -0.107952    1.244708
    127          1           0       18.383715   -0.266355   -0.550608
    128          1           0       17.914289    1.290530   -1.137082
    129          1           0       18.425109    2.179600    1.178834
    130          1           0       18.909394    0.615969    1.826721
    131          1           0       20.683282    0.243331    0.172743
    132          1           0       20.138406    3.013504   -1.003397
    133          1           0       21.523741    2.117480   -1.335604
    134          1           0       19.635686    1.801189   -1.792625
    135          1           0       21.138400    1.288957    2.333280
    136          1           0       22.225423    2.012990    1.055951
    137          1           0       20.822166    2.961546    1.651631
 ---------------------------------------------------------------------

 SCF Done:  E(RCAM-B3LYP) =  -2932.56378306     A.U. after   18 cycles

 Excitation energies and oscillator strengths:

 Excited State   1:      Singlet-A      2.0606 eV  601.69 nm  f=0.2261  <S**2>=0.000
     240 -> 243       -0.24517
     241 -> 242        0.64876
 This state for optimization and/or second-order correction.
 Total Energy, E(TD-HF/TD-KS) =  -2932.48805741
 Copying the excited state density for this state as the 1-particle RhoCI density.

 The electronic state is 1-A.
 Alpha  occ. eigenvalues --  -46.84089 -19.26498 -19.24524 -19.19221 -19.19010
 Alpha  occ. eigenvalues --  -19.18716 -14.41190 -14.40685 -14.39210 -14.38675
 Alpha  occ. eigenvalues --  -10.38566 -10.38338 -10.34009 -10.31988 -10.31405
 Alpha  occ. eigenvalues --  -10.31320 -10.30564 -10.30429 -10.30291 -10.30252
 Alpha  occ. eigenvalues --  -10.30059 -10.29975 -10.29898 -10.29803 -10.29572
 Alpha  occ. eigenvalues --  -10.29203 -10.28425 -10.28000 -10.27949 -10.27735
 Alpha  occ. eigenvalues --  -10.27714 -10.27699 -10.27602 -10.27388 -10.27298
 Alpha  occ. eigenvalues --  -10.27139 -10.26978 -10.26925 -10.26864 -10.26687
 Alpha  occ. eigenvalues --  -10.26683 -10.26560 -10.26555 -10.26479 -10.26418
 Alpha  occ. eigenvalues --  -10.26289 -10.26284 -10.26185 -10.26118 -10.25947
 Alpha  occ. eigenvalues --  -10.25849 -10.25830 -10.25612 -10.25606 -10.25536
 Alpha  occ. eigenvalues --  -10.25457 -10.25163 -10.24978 -10.24879 -10.24823
 Alpha  occ. eigenvalues --  -10.24810 -10.24448 -10.24202 -10.24087 -10.23463
 Alpha  occ. eigenvalues --   -3.13206  -1.87901  -1.87462  -1.87376  -1.18688
 Alpha  occ. eigenvalues --   -1.16996  -1.06825  -1.06027  -1.05206  -1.05003
 Alpha  occ. eigenvalues --   -1.04235  -1.03190  -1.01720  -0.93898  -0.91248
 Alpha  occ. eigenvalues --   -0.90871  -0.90043  -0.89854  -0.89480  -0.88708
 Alpha  occ. eigenvalues --   -0.88097  -0.87850  -0.87715  -0.87157  -0.86599
 Alpha  occ. eigenvalues --   -0.85559  -0.84710  -0.84610  -0.83625  -0.83166
 Alpha  occ. eigenvalues --   -0.82807  -0.81573  -0.80887  -0.79826  -0.79450
 Alpha  occ. eigenvalues --   -0.78466  -0.77886  -0.76068  -0.76007  -0.75364
 Alpha  occ. eigenvalues --   -0.75289  -0.74500  -0.73822  -0.73586  -0.73010
 Alpha  occ. eigenvalues --   -0.72316  -0.71430  -0.71179  -0.69905  -0.69280
 Alpha  occ. eigenvalues --   -0.67734  -0.66840  -0.66660  -0.65745  -0.64533
 Alpha  occ. eigenvalues --   -0.64060  -0.63366  -0.63231  -0.63017  -0.62141
 Alpha  occ. eigenvalues --   -0.61582  -0.61200  -0.60459  -0.60108  -0.59726
 Alpha  occ. eigenvalues --   -0.59158  -0.58513  -0.58116  -0.57551  -0.56919
 Alpha  occ. eigenvalues --   -0.56227  -0.55866  -0.55754  -0.55353  -0.54123
 Alpha  occ. eigenvalues --   -0.54051  -0.53770  -0.53414  -0.53240  -0.52763
 Alpha  occ. eigenvalues --   -0.52673  -0.52544  -0.52286  -0.51966  -0.51788
 Alpha  occ. eigenvalues --   -0.51496  -0.51472  -0.51203  -0.51181  -0.50638
 Alpha  occ. eigenvalues --   -0.50570  -0.50285  -0.50240  -0.49776  -0.49579
 Alpha  occ. eigenvalues --   -0.49339  -0.49080  -0.48971  -0.48650  -0.48535
 Alpha  occ. eigenvalues --   -0.48398  -0.48093  -0.47855  -0.47262  -0.47070
 Alpha  occ. eigenvalues --   -0.46831  -0.46575  -0.46388  -0.46118  -0.46040
 Alpha  occ. eigenvalues --   -0.45756  -0.45649  -0.45071  -0.45043  -0.44660
 Alpha  occ. eigenvalues --   -0.44558  -0.44307  -0.44249  -0.44149  -0.44004
 Alpha  occ. eigenvalues --   -0.43711  -0.43426  -0.43362  -0.43172  -0.43110
 Alpha  occ. eigenvalues --   -0.42832  -0.42795  -0.42602  -0.42433  -0.42085
 Alpha  occ. eigenvalues --   -0.41956  -0.41816  -0.41596  -0.41397  -0.41186
 Alpha  occ. eigenvalues --   -0.41135  -0.40937  -0.40649  -0.40545  -0.40240
 Alpha  occ. eigenvalues --   -0.40055  -0.39849  -0.39426  -0.39115  -0.39032
 Alpha  occ. eigenvalues --   -0.38775  -0.38616  -0.38229  -0.37994  -0.37531
 Alpha  occ. eigenvalues --   -0.37114  -0.37078  -0.36942  -0.36426  -0.36396
 Alpha  occ. eigenvalues --   -0.36073  -0.35915  -0.35674  -0.35545  -0.35479
 Alpha  occ. eigenvalues --   -0.34983  -0.34455  -0.33845  -0.33479  -0.32812
 Alpha  occ. eigenvalues --   -0.32493  -0.32377  -0.31762  -0.31679  -0.30059
 Alpha  occ. eigenvalues --   -0.29563  -0.29350  -0.29215  -0.27609  -0.23819
 Alpha  occ. eigenvalues --   -0.21999
 Alpha virt. eigenvalues --   -0.07249  -0.04029   0.00004   0.04487   0.05039
 Alpha virt. eigenvalues --    0.05506   0.05789   0.06260   0.07086   0.07733
 Alpha virt. eigenvalues --    0.08176   0.10366   0.10632   0.10769   0.11406

 Mulliken charges:
               1
     1  Mg   0.825084
     2  C    0.027390
     3  C   -0.186665
     4  C   -0.178404
     5  C   -0.170551
     6  N   -0.620413
     7  C    0.264777
     8  C   -0.155850
     9  C   -0.145286
    10  C    0.367144
    11  C   -0.280722
    12  C   -0.153138
    13  C   -0.288128
    14  C    0.631554
    15  O   -0.527934
    16  O   -0.479604
    17  N   -0.725858
    18  C    0.300325
    19  C    0.009417
    20  C    0.051088
    21  C    0.279662
    22  C   -0.380992
    23  C   -0.037553
    24  C   -0.244888
    25  N   -0.696489
    26  C    0.348969
    27  C    0.022096
    28  C   -0.022372
    29  C    0.232244
    30  C   -0.382794
    31  C   -0.203556
    32  C   -0.318972
    33  N   -0.686869
    34  C    0.256664
    35  C    0.036695
    36  C    0.042858
    37  C    0.326819
    38  C   -0.378228
    39  C    0.308610
    40  O   -0.512294
    41  C   -0.303186
    42  C    0.626313
    43  O   -0.523975
    44  O   -0.436349
    45  C   -0.059324
    46  C    0.049890
    47  C   -0.177863
    48  C    0.141239
    49  C   -0.351988
    50  C   -0.226363
    51  C   -0.163349
    52  C   -0.156328
    53  C   -0.043938
    54  C   -0.318917
    55  C   -0.185362
    56  C   -0.175658
    57  C   -0.194887
    58  C   -0.074911
    59  C   -0.292645
    60  C   -0.163915
    61  C   -0.188812
    62  C   -0.174923
    63  C   -0.066834
    64  C   -0.302307
    65  C   -0.308719
    66  H    0.053080
    67  H    0.067784
    68  H    0.102073
    69  H    0.121598
    70  H    0.091478
    71  H    0.111679
    72  H    0.073243
    73  H    0.141709
    74  H    0.115787
    75  H    0.129499
    76  H    0.136741
    77  H    0.148470
    78  H    0.121988
    79  H    0.103460
    80  H    0.130394
    81  H    0.096624
    82  H    0.112228
    83  H    0.092278
    84  H    0.129707
    85  H    0.095936
    86  H    0.122549
    87  H    0.128364
    88  H    0.102887
    89  H    0.119518
    90  H    0.106605
    91  H    0.106950
    92  H    0.130425
    93  H    0.156427
    94  H    0.147092
    95  H    0.169461
    96  H    0.107137
    97  H    0.122781
    98  H    0.110655
    99  H    0.144556
   100  H    0.130242
   101  H    0.100109
   102  H    0.086402
   103  H    0.102686
   104  H    0.100156
   105  H    0.096610
   106  H    0.109074
   107  H    0.085432
   108  H    0.103040
   109  H    0.091824
   110  H    0.053763
   111  H    0.066113
   112  H    0.101433
   113  H    0.105339
   114  H    0.106290
   115  H    0.102109
   116  H    0.079811
   117  H    0.086025
   118  H    0.079489
   119  H    0.073031
   120  H    0.097650
   121  H    0.098130
   122  H    0.087477
   123  H    0.095319
   124  H    0.090629
   125  H    0.089632
   126  H    0.102254
   127  H    0.102868
   128  H    0.102271
   129  H    0.065168
   130  H    0.078893
   131  H    0.101912
   132  H    0.121830
   133  H    0.081623
   134  H    0.088970
   135  H    0.088523
   136  H    0.107182
   137  H    0.108799
 Sum of Mulliken charges =   0.00000

 Dipole moment (field-independent basis, Debye):
    X=             -0.6863    Y=              6.4994    Z=             -0.8901  Tot=              6.5959
 Quadrupole moment (field-independent basis, Debye-Ang):
   XX=           -319.1645   YY=           -392.0634   ZZ=           -403.7300
   XY=            -19.0738   XZ=             21.5846   YZ=              0.8237

 Normal termination of Gaussian 09 at Wed Jul  3 20:52:16 2019.
