 Gaussian 16, Revision A.03,
 Gaussian 16:  ES64L-G16RevA.03 25-Dec-2016

 ----------------------------------------------------------------------
 # td=(NStates=1) iop(3/107=0140000000,3/108=0140000000) CAM-B3LYP/6-31
 G(d,p)
 ----------------------------------------------------------------------

 --
 TD
 --
 Symbolic Z-matrix:
 Charge =  0 Multiplicity = 1

                         Standard orientation:
 ---------------------------------------------------------------------
 Center     Atomic      Atomic             Coordinates (Angstroms)
 Number     Number       Type             X           Y           Z
 ---------------------------------------------------------------------
      1         12           0       -7.217181    0.655909    0.084490
      2          6           0       -4.851743   -1.930590    0.568480
      3          6           0       -4.879290    2.898917    1.251626
      4          6           0       -9.544020    3.058229   -0.423801
      5          6           0       -9.535349   -1.844242   -0.798791
      6          7           0       -5.127630    0.477534    0.666803
      7          6           0       -4.402139   -0.732182    0.717688
      8          6           0       -3.009189   -0.284275    1.209859
      9          6           0       -3.078416    1.165275    1.692857
     10          6           0       -4.473587    1.496134    1.181564
     11          6           0       -3.029170    1.329253    3.179575
     12          6           0       -1.983987   -0.464052    0.100285
     13          6           0       -0.521701   -0.408429    0.524238
     14          6           0        0.484898   -0.662110   -0.695220
     15          8           0        0.299749   -1.030096   -1.756236
     16          8           0        1.655810   -0.359022   -0.206772
     17          7           0       -7.222814    2.637998    0.265534
     18          6           0       -6.115719    3.429386    0.748756
     19          6           0       -6.435853    4.809188    0.654306
     20          6           0       -7.799884    4.908005    0.307701
     21          6           0       -8.235427    3.492676    0.109177
     22          6           0       -5.549315    5.760676    1.144696
     23          6           0       -8.517274    6.004558    0.099220
     24          6           0       -8.314522    7.266878    0.614092
     25          7           0       -9.154595    0.690906   -0.442468
     26          6           0       -9.963215    1.787497   -0.552060
     27          6           0      -11.237398    1.425450   -1.044650
     28          6           0      -11.281734    0.012400   -1.265221
     29          6           0      -10.001552   -0.530839   -0.901886
     30          6           0      -12.317907    2.395918   -1.509428
     31          6           0      -12.423798   -0.896430   -1.795713
     32          6           0      -12.200955   -1.397178   -3.220490
     33          7           0       -7.202443   -1.391935   -0.324602
     34          6           0       -8.282819   -2.190330   -0.621964
     35          6           0       -7.829147   -3.609815   -0.536426
     36          6           0       -6.504221   -3.581722   -0.165721
     37          6           0       -6.154071   -2.210202    0.000054
     38          6           0       -8.643945   -4.820554   -0.776636
     39          6           0       -5.307903   -4.335708    0.204771
     40          8           0       -5.159636   -5.482681    0.270159
     41          6           0       -4.155913   -3.276630    0.574411
     42          6           0       -3.459003   -3.658777    1.839415
     43          8           0       -3.611114   -3.067556    2.900176
     44          8           0       -2.772577   -4.729213    1.755297
     45          6           0       -2.076736   -5.206129    2.920628
     46          6           0        2.824949   -0.640903   -1.062334
     47          6           0        4.138822   -0.396172   -0.435181
     48          6           0        5.122057    0.447772   -0.745588
     49          6           0        5.200208    1.137142   -2.020229
     50          6           0        6.398862    0.332102   -0.002144
     51          6           0        7.733688   -0.099773   -0.871873
     52          6           0        8.934620    0.002285   -0.066251
     53          6           0       10.235845   -0.651949   -0.718729
     54          6           0       10.114850   -2.096766   -1.116803
     55          6           0       11.538107   -0.208900   -0.068529
     56          6           0       12.816916   -0.495985   -0.713640
     57          6           0       14.039722   -0.106128    0.106449
     58          6           0       15.498712   -0.349345   -0.598290
     59          6           0       15.723112   -1.850126   -0.607547
     60          6           0       16.471501    0.414910    0.352277
     61          6           0       17.821671    0.505045   -0.306443
     62          6           0       18.882639    1.165066    0.601609
     63          6           0       20.380523    1.351211    0.112407
     64          6           0       20.301011    2.213093   -1.182203
     65          6           0       21.187445    1.992584    1.186041
     66          1           0       -4.213405    3.536077    1.471669
     67          1           0      -10.139894    3.837794   -0.628381
     68          1           0      -10.450111   -2.456658   -1.067309
     69          1           0       -2.705602   -0.803984    2.075605
     70          1           0       -2.428114    1.850668    1.101613
     71          1           0       -2.266515    0.831510    3.532227
     72          1           0       -3.076350    2.478564    3.321398
     73          1           0       -3.777920    0.843852    3.848484
     74          1           0       -2.614287   -1.391108   -0.232256
     75          1           0       -2.296554    0.344174   -0.724880
     76          1           0       -0.330116    0.623386    0.940741
     77          1           0       -0.135304   -1.197818    1.250282
     78          1           0       -5.407508    6.739340    0.512158
     79          1           0       -5.386004    6.307907    2.110763
     80          1           0       -4.562733    5.138695    1.183812
     81          1           0       -9.488344    5.899995   -0.383393
     82          1           0       -8.835964    8.138232    0.340008
     83          1           0       -7.546266    7.519374    1.460286
     84          1           0      -11.555172    3.117789   -2.434620
     85          1           0      -13.227594    2.138376   -1.629697
     86          1           0      -12.432963    3.070524   -0.643501
     87          1           0      -12.564951   -1.654441   -0.959529
     88          1           0      -13.349771   -0.211083   -1.841228
     89          1           0      -13.000612   -1.974777   -3.588762
     90          1           0      -12.220309   -0.589034   -3.764531
     91          1           0      -11.310865   -2.091213   -3.274303
     92          1           0       -9.143840   -4.766613   -1.807882
     93          1           0       -8.166325   -5.780785   -0.590778
     94          1           0       -9.509710   -4.987219   -0.243270
     95          1           0       -3.436440   -3.615886   -0.196088
     96          1           0       -1.553796   -4.331428    3.305718
     97          1           0       -2.838621   -5.420421    3.838432
     98          1           0       -1.589963   -6.130945    2.511391
     99          1           0        2.605587   -1.698618   -1.325603
    100          1           0        2.657420    0.049340   -1.952372
    101          1           0        4.318689   -1.205177    0.350099
    102          1           0        4.161204    1.505158   -2.454068
    103          1           0        5.680838    2.275311   -1.927712
    104          1           0        5.657058    0.742689   -2.958656
    105          1           0        6.810504    1.298288    0.516526
    106          1           0        6.382922   -0.527039    0.838557
    107          1           0        7.530191   -1.108613   -1.390735
    108          1           0        7.759581    0.790537   -1.744250
    109          1           0        9.171964    1.013668    0.168019
    110          1           0        8.853421   -0.447888    1.030795
    111          1           0       10.355540   -0.083110   -1.624475
    112          1           0        9.227799   -2.422535   -1.630828
    113          1           0       11.057515   -2.542974   -1.744054
    114          1           0       10.087833   -2.703812   -0.157406
    115          1           0       11.526151    0.939437    0.199868
    116          1           0       11.678163   -0.794338    0.925339
    117          1           0       12.998211   -1.594883   -0.947641
    118          1           0       12.830042   -0.092494   -1.845595
    119          1           0       13.800389    1.080789    0.115011
    120          1           0       13.764064   -0.470889    1.167456
    121          1           0       15.354717   -0.015456   -1.598750
    122          1           0       15.618152   -2.222821    0.348251
    123          1           0       14.603831   -2.346683   -1.063043
    124          1           0       16.676245   -2.147077   -1.265730
    125          1           0       15.940462    1.403823    0.742717
    126          1           0       16.536255   -0.327388    1.225791
    127          1           0       18.415537   -0.291062   -0.705609
    128          1           0       17.732846    1.154864   -1.175888
    129          1           0       18.502648    2.116618    1.031600
    130          1           0       18.992543    0.638475    1.623491
    131          1           0       20.787461    0.395753   -0.206898
    132          1           0       20.065931    3.282171   -1.025636
    133          1           0       21.423165    2.337359   -1.599606
    134          1           0       19.636891    1.687984   -1.897231
    135          1           0       21.050598    1.427324    2.136085
    136          1           0       22.236900    2.090773    0.725216
    137          1           0       20.933818    3.183303    1.360686
 ---------------------------------------------------------------------

 SCF Done:  E(RCAM-B3LYP) =  -2933.39824837     A.U. after   16 cycles

 Excitation energies and oscillator strengths:

 Excited State   1:      Singlet-A      1.8628 eV  665.58 nm  f=0.2882  <S**2>=0.000
     240 -> 243        0.17654
     241 -> 242        0.68016
 This state for optimization and/or second-order correction.
 Total Energy, E(TD-HF/TD-DFT) =  -2933.32979225
 Copying the excited state density for this state as the 1-particle RhoCI density.

 The electronic state is 1-A.
 Alpha  occ. eigenvalues --  -46.78927 -19.22365 -19.20549 -19.16272 -19.16168
 Alpha  occ. eigenvalues --  -19.14725 -14.37420 -14.35331 -14.35122 -14.33884
 Alpha  occ. eigenvalues --  -10.33281 -10.33047 -10.30258 -10.28504 -10.27796
 Alpha  occ. eigenvalues --  -10.26612 -10.25574 -10.25540 -10.25240 -10.24652
 Alpha  occ. eigenvalues --  -10.24275 -10.24229 -10.24215 -10.24000 -10.23997
 Alpha  occ. eigenvalues --  -10.23900 -10.23887 -10.23780 -10.23694 -10.23401
 Alpha  occ. eigenvalues --  -10.23259 -10.22837 -10.22832 -10.22821 -10.22777
 Alpha  occ. eigenvalues --  -10.22720 -10.22585 -10.22483 -10.22422 -10.22411
 Alpha  occ. eigenvalues --  -10.22389 -10.22234 -10.22161 -10.22153 -10.22073
 Alpha  occ. eigenvalues --  -10.22061 -10.22013 -10.21982 -10.21964 -10.21914
 Alpha  occ. eigenvalues --  -10.21890 -10.21853 -10.21689 -10.21687 -10.21397
 Alpha  occ. eigenvalues --  -10.21152 -10.21095 -10.21031 -10.20986 -10.20941
 Alpha  occ. eigenvalues --  -10.20689 -10.20668 -10.20557 -10.20483 -10.19715
 Alpha  occ. eigenvalues --   -3.07568  -1.82509  -1.82009  -1.82000  -1.15384
 Alpha  occ. eigenvalues --   -1.15174  -1.09624  -1.06150  -1.02980  -0.99016
 Alpha  occ. eigenvalues --   -0.97817  -0.97378  -0.93922  -0.87877  -0.86933
 Alpha  occ. eigenvalues --   -0.85663  -0.85351  -0.84712  -0.84530  -0.83821
 Alpha  occ. eigenvalues --   -0.83232  -0.82938  -0.82258  -0.81795  -0.81103
 Alpha  occ. eigenvalues --   -0.80729  -0.79610  -0.79161  -0.78187  -0.77900
 Alpha  occ. eigenvalues --   -0.77297  -0.76851  -0.76222  -0.75561  -0.73499
 Alpha  occ. eigenvalues --   -0.73115  -0.72624  -0.71989  -0.71299  -0.70205
 Alpha  occ. eigenvalues --   -0.70039  -0.69791  -0.69222  -0.68652  -0.68035
 Alpha  occ. eigenvalues --   -0.67306  -0.65706  -0.65079  -0.64358  -0.63730
 Alpha  occ. eigenvalues --   -0.63173  -0.61946  -0.60855  -0.60627  -0.60100
 Alpha  occ. eigenvalues --   -0.59714  -0.58757  -0.58698  -0.58244  -0.57958
 Alpha  occ. eigenvalues --   -0.57801  -0.56664  -0.56288  -0.55934  -0.55181
 Alpha  occ. eigenvalues --   -0.54746  -0.54379  -0.53867  -0.53252  -0.52996
 Alpha  occ. eigenvalues --   -0.52391  -0.51975  -0.51324  -0.51108  -0.50608
 Alpha  occ. eigenvalues --   -0.50433  -0.50118  -0.49802  -0.49462  -0.49135
 Alpha  occ. eigenvalues --   -0.48995  -0.48875  -0.48601  -0.48398  -0.48208
 Alpha  occ. eigenvalues --   -0.47882  -0.47703  -0.47635  -0.47503  -0.47334
 Alpha  occ. eigenvalues --   -0.47167  -0.46764  -0.46668  -0.46216  -0.46011
 Alpha  occ. eigenvalues --   -0.45662  -0.45357  -0.45133  -0.45120  -0.44772
 Alpha  occ. eigenvalues --   -0.44685  -0.44397  -0.44102  -0.43920  -0.43565
 Alpha  occ. eigenvalues --   -0.43485  -0.43248  -0.43029  -0.42660  -0.42527
 Alpha  occ. eigenvalues --   -0.42411  -0.42229  -0.42109  -0.41753  -0.41623
 Alpha  occ. eigenvalues --   -0.41389  -0.41045  -0.40742  -0.40716  -0.40531
 Alpha  occ. eigenvalues --   -0.40091  -0.40018  -0.39864  -0.39706  -0.39543
 Alpha  occ. eigenvalues --   -0.39462  -0.39121  -0.39028  -0.38577  -0.38456
 Alpha  occ. eigenvalues --   -0.38341  -0.38299  -0.38153  -0.38114  -0.37813
 Alpha  occ. eigenvalues --   -0.37790  -0.37496  -0.37381  -0.37299  -0.36652
 Alpha  occ. eigenvalues --   -0.36432  -0.36366  -0.36087  -0.35970  -0.35904
 Alpha  occ. eigenvalues --   -0.35506  -0.35348  -0.34984  -0.34838  -0.34810
 Alpha  occ. eigenvalues --   -0.34155  -0.34066  -0.33844  -0.33674  -0.33326
 Alpha  occ. eigenvalues --   -0.32880  -0.32574  -0.32428  -0.32347  -0.31913
 Alpha  occ. eigenvalues --   -0.31824  -0.31567  -0.31149  -0.30152  -0.30008
 Alpha  occ. eigenvalues --   -0.29564  -0.29347  -0.29252  -0.28757  -0.27460
 Alpha  occ. eigenvalues --   -0.26923  -0.26710  -0.24133  -0.23829  -0.21965
 Alpha  occ. eigenvalues --   -0.19112
 Alpha virt. eigenvalues --   -0.07200  -0.04191   0.00296   0.01273   0.02008
 Alpha virt. eigenvalues --    0.04211   0.05164   0.05494   0.06282   0.06770
 Alpha virt. eigenvalues --    0.07717   0.08345   0.08747   0.09328   0.09615

 Mulliken charges:
               1
     1  Mg   0.809666
     2  C    0.177487
     3  C   -0.139485
     4  C   -0.155595
     5  C   -0.149927
     6  N   -0.633603
     7  C    0.236396
     8  C   -0.163236
     9  C   -0.143338
    10  C    0.336435
    11  C   -0.297989
    12  C   -0.143805
    13  C   -0.268184
    14  C    0.571958
    15  O   -0.426179
    16  O   -0.460303
    17  N   -0.704174
    18  C    0.273908
    19  C    0.089504
    20  C    0.071624
    21  C    0.287781
    22  C   -0.405375
    23  C   -0.128439
    24  C   -0.252922
    25  N   -0.710271
    26  C    0.387604
    27  C   -0.012525
    28  C    0.026326
    29  C    0.213373
    30  C   -0.318796
    31  C   -0.256199
    32  C   -0.294485
    33  N   -0.714683
    34  C    0.315686
    35  C   -0.004284
    36  C    0.064298
    37  C    0.216115
    38  C   -0.398204
    39  C    0.341152
    40  O   -0.412740
    41  C   -0.357284
    42  C    0.621490
    43  O   -0.509461
    44  O   -0.406981
    45  C   -0.087297
    46  C    0.010046
    47  C   -0.115492
    48  C    0.187481
    49  C   -0.383030
    50  C   -0.236206
    51  C   -0.165310
    52  C   -0.162189
    53  C   -0.042974
    54  C   -0.313942
    55  C   -0.160856
    56  C   -0.167056
    57  C   -0.182982
    58  C   -0.053695
    59  C   -0.282107
    60  C   -0.155049
    61  C   -0.182320
    62  C   -0.175216
    63  C   -0.049691
    64  C   -0.298582
    65  C   -0.290539
    66  H    0.046333
    67  H    0.058201
    68  H    0.093527
    69  H    0.116832
    70  H    0.106043
    71  H    0.120290
    72  H    0.095663
    73  H    0.123228
    74  H    0.097245
    75  H    0.087885
    76  H    0.131022
    77  H    0.129409
    78  H    0.105200
    79  H    0.132586
    80  H    0.087886
    81  H    0.091770
    82  H    0.107715
    83  H    0.095533
    84  H    0.071657
    85  H    0.108753
    86  H    0.117081
    87  H    0.105498
    88  H    0.089280
    89  H    0.108909
    90  H    0.128965
    91  H    0.102659
    92  H    0.110367
    93  H    0.140134
    94  H    0.133588
    95  H    0.163293
    96  H    0.139083
    97  H    0.121057
    98  H    0.135742
    99  H    0.124057
   100  H    0.108157
   101  H    0.086072
   102  H    0.101638
   103  H    0.082542
   104  H    0.145178
   105  H    0.094998
   106  H    0.086238
   107  H    0.096675
   108  H    0.071642
   109  H    0.103395
   110  H    0.070335
   111  H    0.091088
   112  H    0.111446
   113  H    0.089618
   114  H    0.091970
   115  H    0.075674
   116  H    0.068213
   117  H    0.081449
   118  H    0.059794
   119  H    0.061159
   120  H    0.087611
   121  H    0.099109
   122  H    0.122424
   123  H    0.054394
   124  H    0.094769
   125  H    0.095497
   126  H    0.088216
   127  H    0.103036
   128  H    0.099497
   129  H    0.082450
   130  H    0.061220
   131  H    0.092307
   132  H    0.105808
   133  H    0.066020
   134  H    0.101795
   135  H    0.105119
   136  H    0.093547
   137  H    0.078077
 Sum of Mulliken charges =  -0.00000

 Dipole moment (field-independent basis, Debye):
    X=              2.3257    Y=              2.5063    Z=              0.3637  Tot=              3.4385
 Quadrupole moment (field-independent basis, Debye-Ang):
   XX=           -345.4312   YY=           -386.8129   ZZ=           -400.2492
   XY=            -14.3708   XZ=              6.8777   YZ=             -1.4253

 Normal termination of Gaussian 16 at Mon Sep 16 07:50:58 2019.
