 Gaussian 16, Revision A.03,
 Gaussian 16:  ES64L-G16RevA.03 25-Dec-2016

 ----------------------------------------------------------------------
 # td=(NStates=1) iop(3/107=0140000000,3/108=0140000000) CAM-B3LYP/6-31
 G(d,p)
 ----------------------------------------------------------------------

 --
 TD
 --
 Symbolic Z-matrix:
 Charge =  0 Multiplicity = 1

                         Standard orientation:
 ---------------------------------------------------------------------
 Center     Atomic      Atomic             Coordinates (Angstroms)
 Number     Number       Type             X           Y           Z
 ---------------------------------------------------------------------
      1         12           0       -7.036972    0.587808    0.034603
      2          6           0       -4.832638   -1.954440    0.521417
      3          6           0       -4.838591    2.859378    1.208335
      4          6           0       -9.421984    3.132535   -0.367248
      5          6           0       -9.571391   -1.694471   -0.903830
      6          7           0       -5.064219    0.502268    0.777617
      7          6           0       -4.303935   -0.632821    0.872795
      8          6           0       -2.918005   -0.376793    1.216070
      9          6           0       -3.060517    1.103427    1.830600
     10          6           0       -4.329462    1.630110    1.234073
     11          6           0       -3.105336    1.212119    3.282198
     12          6           0       -1.980444   -0.482943    0.044482
     13          6           0       -0.472337   -0.369288    0.537322
     14          6           0        0.594694   -0.718342   -0.527102
     15          8           0        0.371970   -1.195184   -1.632519
     16          8           0        1.799130   -0.476666   -0.034501
     17          7           0       -7.079858    2.549587    0.181690
     18          6           0       -6.044931    3.389087    0.729960
     19          6           0       -6.420399    4.811970    0.792120
     20          6           0       -7.769985    4.862260    0.366929
     21          6           0       -8.077010    3.503135   -0.012698
     22          6           0       -5.494965    5.883639    1.252151
     23          6           0       -8.575947    6.001307    0.217110
     24          6           0       -8.460829    7.241530    0.779432
     25          7           0       -9.061456    0.705623   -0.594563
     26          6           0       -9.823102    1.848841   -0.658487
     27          6           0      -11.120025    1.464071   -1.279404
     28          6           0      -11.220917    0.056293   -1.366717
     29          6           0       -9.841093   -0.373592   -1.001956
     30          6           0      -12.249177    2.490883   -1.518832
     31          6           0      -12.320483   -0.751663   -1.866899
     32          6           0      -11.968966   -1.358455   -3.356234
     33          7           0       -7.135415   -1.389419   -0.391057
     34          6           0       -8.253241   -2.217053   -0.635659
     35          6           0       -7.824206   -3.699251   -0.502192
     36          6           0       -6.472730   -3.603200   -0.257399
     37          6           0       -6.100311   -2.201559   -0.016163
     38          6           0       -8.629025   -4.898460   -0.807197
     39          6           0       -5.377405   -4.327742    0.279745
     40          8           0       -5.185250   -5.543638    0.365221
     41          6           0       -4.164812   -3.286925    0.641994
     42          6           0       -3.571432   -3.588938    1.949739
     43          8           0       -3.694232   -2.998709    2.934511
     44          8           0       -2.824334   -4.763288    1.883769
     45          6           0       -2.293470   -5.334016    3.203363
     46          6           0        2.779723   -0.616037   -1.117983
     47          6           0        4.108082   -0.463770   -0.469659
     48          6           0        5.082203    0.450758   -0.855253
     49          6           0        5.089491    1.365409   -2.093567
     50          6           0        6.335974    0.379661   -0.071366
     51          6           0        7.506285   -0.210889   -0.884117
     52          6           0        8.850276   -0.189454   -0.139398
     53          6           0       10.093717   -0.577568   -1.005388
     54          6           0       10.123052   -2.101375   -1.333542
     55          6           0       11.318828   -0.295415   -0.087872
     56          6           0       12.658306   -0.531565   -0.764958
     57          6           0       13.861020   -0.120284    0.037715
     58          6           0       15.326065   -0.155616   -0.576820
     59          6           0       15.736052   -1.549814   -1.127003
     60          6           0       16.397446    0.421897    0.388504
     61          6           0       17.820939    0.559080   -0.168894
     62          6           0       18.756646    1.179473    0.763573
     63          6           0       20.328621    1.346291    0.275209
     64          6           0       20.296606    2.168139   -1.066522
     65          6           0       21.228733    1.949980    1.429263
     66          1           0       -4.217290    3.611090    1.691638
     67          1           0      -10.029527    4.036583   -0.576832
     68          1           0      -10.326083   -2.233458   -1.116239
     69          1           0       -2.645222   -1.253010    1.993207
     70          1           0       -2.135438    1.552286    1.320485
     71          1           0       -2.065782    1.026158    3.663220
     72          1           0       -3.392415    2.131122    3.772011
     73          1           0       -3.896450    0.472524    3.812982
     74          1           0       -2.101901   -1.450681   -0.484350
     75          1           0       -2.081382    0.344469   -0.637079
     76          1           0       -0.166042    0.416927    1.195982
     77          1           0       -0.384589   -1.310887    1.366617
     78          1           0       -5.506397    6.596100    0.288725
     79          1           0       -5.798638    6.327751    2.192354
     80          1           0       -4.479080    5.500257    1.181912
     81          1           0       -9.315313    5.959541   -0.408960
     82          1           0       -9.122701    7.958969    0.593509
     83          1           0       -7.626206    7.575310    1.504894
     84          1           0      -12.232397    3.026293   -2.431061
     85          1           0      -13.258567    1.897878   -1.903203
     86          1           0      -12.386268    3.260394   -0.618277
     87          1           0      -12.846730   -1.574829   -1.239610
     88          1           0      -13.277329   -0.134671   -1.961711
     89          1           0      -12.749473   -1.922985   -3.821514
     90          1           0      -11.728308   -0.493104   -4.120782
     91          1           0      -11.083997   -1.966146   -3.230389
     92          1           0       -9.267506   -4.843424   -1.658048
     93          1           0       -8.052457   -5.709164   -0.519458
     94          1           0       -9.518296   -4.833547    0.113779
     95          1           0       -3.699190   -3.613141   -0.257617
     96          1           0       -1.589409   -4.661517    3.565573
     97          1           0       -3.138766   -5.389856    3.850401
     98          1           0       -1.813280   -6.151645    2.868703
     99          1           0        2.757641   -1.719598   -1.604745
    100          1           0        2.716988    0.016808   -1.795502
    101          1           0        4.436189   -1.174573    0.284144
    102          1           0        4.129784    1.462195   -2.247108
    103          1           0        5.559032    2.369602   -2.128512
    104          1           0        5.451197    0.837432   -3.063353
    105          1           0        6.635804    1.473827    0.141597
    106          1           0        6.265820   -0.043569    0.999466
    107          1           0        7.286451   -1.147174   -1.237024
    108          1           0        7.594679    0.458817   -1.826793
    109          1           0        9.108915    0.797630    0.359994
    110          1           0        8.788614   -0.919062    0.704216
    111          1           0       10.305807   -0.096290   -1.969506
    112          1           0        9.139645   -2.277142   -1.718638
    113          1           0       10.794795   -2.584167   -2.271306
    114          1           0       10.251298   -2.693792   -0.469865
    115          1           0       11.165830    0.891897    0.141857
    116          1           0       11.386515   -0.807151    0.772648
    117          1           0       12.805544   -1.531648   -1.002837
    118          1           0       12.658210   -0.262680   -1.863074
    119          1           0       13.706914    0.916200    0.363209
    120          1           0       13.975264   -0.744321    0.954944
    121          1           0       15.089807    0.578559   -1.424659
    122          1           0       15.959614   -2.288957   -0.361677
    123          1           0       14.894468   -1.778295   -1.881961
    124          1           0       16.672374   -1.730143   -1.762108
    125          1           0       16.068912    1.428706    0.709385
    126          1           0       16.268441   -0.381462    1.147786
    127          1           0       18.197238   -0.442252   -0.436861
    128          1           0       17.811345    1.112560   -1.228054
    129          1           0       18.338145    2.054337    1.063576
    130          1           0       18.814597    0.620367    1.713842
    131          1           0       20.370948    0.200720   -0.099963
    132          1           0       19.830311    3.171150   -0.906145
    133          1           0       21.330254    2.397602   -1.491754
    134          1           0       19.566825    1.880105   -1.823848
    135          1           0       21.176259    1.606192    2.405046
    136          1           0       22.429281    1.664074    1.172396
    137          1           0       20.982753    2.944477    1.245002
 ---------------------------------------------------------------------

 SCF Done:  E(RCAM-B3LYP) =  -2933.50748189     A.U. after   16 cycles

 Excitation energies and oscillator strengths:

 Excited State   1:      Singlet-A      1.9051 eV  650.80 nm  f=0.2970  <S**2>=0.000
     240 -> 243       -0.23068
     241 -> 242        0.66737
 This state for optimization and/or second-order correction.
 Total Energy, E(TD-HF/TD-DFT) =  -2933.43747067
 Copying the excited state density for this state as the 1-particle RhoCI density.

 The electronic state is 1-A.
 Alpha  occ. eigenvalues --  -46.79425 -19.22919 -19.19173 -19.16489 -19.16438
 Alpha  occ. eigenvalues --  -19.15714 -14.37609 -14.35728 -14.35630 -14.34839
 Alpha  occ. eigenvalues --  -10.34600 -10.33295 -10.30343 -10.26827 -10.26727
 Alpha  occ. eigenvalues --  -10.26436 -10.25478 -10.25329 -10.25318 -10.25012
 Alpha  occ. eigenvalues --  -10.24996 -10.24851 -10.24593 -10.24520 -10.24326
 Alpha  occ. eigenvalues --  -10.23971 -10.23815 -10.23728 -10.23710 -10.23545
 Alpha  occ. eigenvalues --  -10.23290 -10.23198 -10.23088 -10.23080 -10.23003
 Alpha  occ. eigenvalues --  -10.22826 -10.22774 -10.22708 -10.22549 -10.22250
 Alpha  occ. eigenvalues --  -10.22196 -10.22135 -10.22104 -10.22094 -10.22093
 Alpha  occ. eigenvalues --  -10.22006 -10.21903 -10.21842 -10.21701 -10.21633
 Alpha  occ. eigenvalues --  -10.21492 -10.21485 -10.21390 -10.21347 -10.21255
 Alpha  occ. eigenvalues --  -10.21182 -10.21090 -10.21008 -10.20926 -10.20820
 Alpha  occ. eigenvalues --  -10.20737 -10.20675 -10.20667 -10.19844 -10.19322
 Alpha  occ. eigenvalues --   -3.08087  -1.83020  -1.82558  -1.82507  -1.14041
 Alpha  occ. eigenvalues --   -1.12659  -1.04902  -1.03932  -1.02572  -0.98240
 Alpha  occ. eigenvalues --   -0.97138  -0.96614  -0.95550  -0.87318  -0.86101
 Alpha  occ. eigenvalues --   -0.85026  -0.84701  -0.84301  -0.83989  -0.83955
 Alpha  occ. eigenvalues --   -0.83257  -0.82629  -0.82086  -0.81750  -0.81010
 Alpha  occ. eigenvalues --   -0.80345  -0.79157  -0.78346  -0.78098  -0.77071
 Alpha  occ. eigenvalues --   -0.76639  -0.76233  -0.75591  -0.75355  -0.73999
 Alpha  occ. eigenvalues --   -0.73523  -0.72313  -0.72076  -0.71132  -0.71000
 Alpha  occ. eigenvalues --   -0.70171  -0.70000  -0.69759  -0.68380  -0.67697
 Alpha  occ. eigenvalues --   -0.66835  -0.66245  -0.65648  -0.64585  -0.64333
 Alpha  occ. eigenvalues --   -0.63451  -0.62070  -0.61776  -0.60498  -0.60483
 Alpha  occ. eigenvalues --   -0.59678  -0.59660  -0.59335  -0.58333  -0.57556
 Alpha  occ. eigenvalues --   -0.57068  -0.56504  -0.55986  -0.55866  -0.55432
 Alpha  occ. eigenvalues --   -0.54603  -0.54451  -0.53456  -0.53112  -0.52469
 Alpha  occ. eigenvalues --   -0.51893  -0.51669  -0.51026  -0.50903  -0.50841
 Alpha  occ. eigenvalues --   -0.50665  -0.50281  -0.49699  -0.49202  -0.49182
 Alpha  occ. eigenvalues --   -0.48951  -0.48716  -0.48237  -0.48034  -0.47896
 Alpha  occ. eigenvalues --   -0.47832  -0.47392  -0.47200  -0.47143  -0.47086
 Alpha  occ. eigenvalues --   -0.47011  -0.46430  -0.46342  -0.45765  -0.45660
 Alpha  occ. eigenvalues --   -0.45302  -0.45086  -0.44767  -0.44608  -0.44519
 Alpha  occ. eigenvalues --   -0.44375  -0.44214  -0.44018  -0.43917  -0.43583
 Alpha  occ. eigenvalues --   -0.43555  -0.43311  -0.43220  -0.42916  -0.42707
 Alpha  occ. eigenvalues --   -0.42348  -0.42214  -0.42053  -0.41669  -0.41427
 Alpha  occ. eigenvalues --   -0.41225  -0.40935  -0.40882  -0.40639  -0.40543
 Alpha  occ. eigenvalues --   -0.40489  -0.40241  -0.40224  -0.39757  -0.39591
 Alpha  occ. eigenvalues --   -0.39496  -0.39389  -0.39356  -0.39021  -0.38827
 Alpha  occ. eigenvalues --   -0.38736  -0.38617  -0.38368  -0.38153  -0.38111
 Alpha  occ. eigenvalues --   -0.37702  -0.37579  -0.37485  -0.37399  -0.37312
 Alpha  occ. eigenvalues --   -0.36744  -0.36626  -0.36509  -0.36357  -0.36309
 Alpha  occ. eigenvalues --   -0.35896  -0.35636  -0.34838  -0.34761  -0.34547
 Alpha  occ. eigenvalues --   -0.34392  -0.34074  -0.33719  -0.33628  -0.33454
 Alpha  occ. eigenvalues --   -0.33428  -0.33224  -0.32879  -0.32558  -0.32443
 Alpha  occ. eigenvalues --   -0.31749  -0.31549  -0.31250  -0.30481  -0.30226
 Alpha  occ. eigenvalues --   -0.30009  -0.29930  -0.29396  -0.28397  -0.27352
 Alpha  occ. eigenvalues --   -0.26266  -0.26101  -0.25133  -0.24494  -0.21482
 Alpha  occ. eigenvalues --   -0.19435
 Alpha virt. eigenvalues --   -0.07315  -0.03761  -0.00408   0.02109   0.02968
 Alpha virt. eigenvalues --    0.03724   0.04476   0.05128   0.05225   0.05753
 Alpha virt. eigenvalues --    0.06007   0.08792   0.09549   0.10094   0.10219

 Mulliken charges:
               1
     1  Mg   0.808488
     2  C    0.086483
     3  C   -0.217114
     4  C   -0.166706
     5  C   -0.111170
     6  N   -0.639210
     7  C    0.344612
     8  C   -0.165534
     9  C   -0.142769
    10  C    0.333923
    11  C   -0.302678
    12  C   -0.164737
    13  C   -0.275186
    14  C    0.621508
    15  O   -0.487564
    16  O   -0.446622
    17  N   -0.697836
    18  C    0.287083
    19  C    0.025553
    20  C    0.054258
    21  C    0.272794
    22  C   -0.374034
    23  C   -0.077470
    24  C   -0.243101
    25  N   -0.689165
    26  C    0.324923
    27  C    0.006763
    28  C    0.080056
    29  C    0.292551
    30  C   -0.379711
    31  C   -0.282932
    32  C   -0.314716
    33  N   -0.715545
    34  C    0.247501
    35  C    0.034601
    36  C    0.034316
    37  C    0.266490
    38  C   -0.361329
    39  C    0.316251
    40  O   -0.466713
    41  C   -0.330190
    42  C    0.629121
    43  O   -0.444022
    44  O   -0.507912
    45  C   -0.083146
    46  C    0.031329
    47  C   -0.133039
    48  C    0.102164
    49  C   -0.364502
    50  C   -0.228799
    51  C   -0.167058
    52  C   -0.171783
    53  C   -0.061573
    54  C   -0.312972
    55  C   -0.147313
    56  C   -0.192427
    57  C   -0.173029
    58  C   -0.074154
    59  C   -0.314675
    60  C   -0.160188
    61  C   -0.165174
    62  C   -0.173879
    63  C   -0.055700
    64  C   -0.321743
    65  C   -0.299561
    66  H    0.070308
    67  H    0.085517
    68  H    0.050490
    69  H    0.118090
    70  H    0.093183
    71  H    0.101879
    72  H    0.119889
    73  H    0.114820
    74  H    0.134474
    75  H    0.121905
    76  H    0.135179
    77  H    0.102067
    78  H    0.116203
    79  H    0.136063
    80  H    0.119209
    81  H    0.078431
    82  H    0.100728
    83  H    0.086538
    84  H    0.131890
    85  H    0.080287
    86  H    0.111272
    87  H    0.103868
    88  H    0.100073
    89  H    0.110309
    90  H    0.100388
    91  H    0.114949
    92  H    0.147063
    93  H    0.159152
    94  H    0.088067
    95  H    0.179325
    96  H    0.129388
    97  H    0.142016
    98  H    0.138881
    99  H    0.119725
   100  H    0.117145
   101  H    0.093026
   102  H    0.125929
   103  H    0.120569
   104  H    0.117015
   105  H    0.084219
   106  H    0.088083
   107  H    0.110620
   108  H    0.083990
   109  H    0.088869
   110  H    0.091828
   111  H    0.092148
   112  H    0.100938
   113  H    0.074127
   114  H    0.111045
   115  H    0.054253
   116  H    0.102721
   117  H    0.109068
   118  H    0.071737
   119  H    0.089451
   120  H    0.076720
   121  H    0.071211
   122  H    0.103114
   123  H    0.093512
   124  H    0.097075
   125  H    0.086270
   126  H    0.087476
   127  H    0.088030
   128  H    0.071576
   129  H    0.090724
   130  H    0.082934
   131  H    0.069309
   132  H    0.089633
   133  H    0.096677
   134  H    0.111937
   135  H    0.123008
   136  H    0.070596
   137  H    0.125701
 Sum of Mulliken charges =  -0.00000

 Dipole moment (field-independent basis, Debye):
    X=              0.7291    Y=              3.6387    Z=              0.5706  Tot=              3.7546
 Quadrupole moment (field-independent basis, Debye-Ang):
   XX=           -368.1427   YY=           -390.9618   ZZ=           -391.9205
   XY=            -13.0085   XZ=             15.2226   YZ=             -2.8270

 Normal termination of Gaussian 16 at Tue Sep  3 23:50:44 2019.
