 Gaussian 09, Revision D.01,
 Gaussian 09:  ES64L-G09RevD.01 24-Apr-2013

 -------------------------------------
 # td=(NStates=1) CAM-B3LYP/6-31G(d,p)
 -------------------------------------

 --
 TD
 --
 Symbolic Z-matrix:
 Charge =  0 Multiplicity = 1

                         Standard orientation:
 ---------------------------------------------------------------------
 Center     Atomic      Atomic             Coordinates (Angstroms)
 Number     Number       Type             X           Y           Z
 ---------------------------------------------------------------------
      1         12           0       -7.115171    0.509816    0.131182
      2          6           0       -4.850196   -1.987705    0.503939
      3          6           0       -4.882966    2.874630    1.257036
      4          6           0       -9.347434    3.039945   -0.450050
      5          6           0       -9.511765   -1.729133   -0.954812
      6          7           0       -5.109925    0.415002    0.779880
      7          6           0       -4.346830   -0.681572    0.858015
      8          6           0       -2.951086   -0.391892    1.306425
      9          6           0       -2.979438    1.120971    1.729196
     10          6           0       -4.418769    1.543767    1.149932
     11          6           0       -2.965297    1.272097    3.251821
     12          6           0       -1.907738   -0.568960    0.107219
     13          6           0       -0.404876   -0.195829    0.465739
     14          6           0        0.513389   -0.474193   -0.670183
     15          8           0        0.148986   -0.912001   -1.779532
     16          8           0        1.724254   -0.298451   -0.169766
     17          7           0       -7.083049    2.609312    0.217544
     18          6           0       -6.067067    3.422525    0.742478
     19          6           0       -6.454861    4.783389    0.727882
     20          6           0       -7.751331    4.877410    0.263099
     21          6           0       -8.135589    3.469436    0.024287
     22          6           0       -5.526911    5.971204    0.977796
     23          6           0       -8.684626    5.996109    0.138455
     24          6           0       -8.679559    7.086740    0.837124
     25          7           0       -8.993121    0.663590   -0.546488
     26          6           0       -9.846055    1.776751   -0.708162
     27          6           0      -11.168409    1.431301   -1.165033
     28          6           0      -11.164124    0.046378   -1.298502
     29          6           0       -9.824709   -0.364690   -0.940515
     30          6           0      -12.275374    2.483150   -1.347297
     31          6           0      -12.374721   -0.928867   -1.687816
     32          6           0      -12.368190   -1.238949   -3.147464
     33          7           0       -7.226014   -1.437069   -0.168494
     34          6           0       -8.264461   -2.240710   -0.540837
     35          6           0       -7.830770   -3.618202   -0.550709
     36          6           0       -6.445597   -3.561999   -0.151737
     37          6           0       -6.108354   -2.192137    0.054187
     38          6           0       -8.577912   -4.760419   -0.930080
     39          6           0       -5.305029   -4.395912    0.161274
     40          8           0       -5.047281   -5.543786    0.086236
     41          6           0       -4.080687   -3.296162    0.566162
     42          6           0       -3.516539   -3.651839    1.948115
     43          8           0       -3.665622   -3.016039    2.963320
     44          8           0       -2.746072   -4.784780    1.965997
     45          6           0       -2.203049   -5.153681    3.211063
     46          6           0        2.753969   -0.697215   -1.083038
     47          6           0        4.089720   -0.436857   -0.547561
     48          6           0        5.139920    0.386477   -0.912179
     49          6           0        5.020436    1.180706   -2.250858
     50          6           0        6.404113    0.394344   -0.184952
     51          6           0        7.632854   -0.219974   -0.927651
     52          6           0        8.903562   -0.183469   -0.167799
     53          6           0       10.150782   -0.695458   -0.809489
     54          6           0       10.119814   -2.206666   -1.257815
     55          6           0       11.446321   -0.454655    0.043047
     56          6           0       12.755510   -0.417462   -0.745624
     57          6           0       13.929288   -0.181238    0.221184
     58          6           0       15.326016   -0.090737   -0.498535
     59          6           0       15.639854   -1.527243   -1.031154
     60          6           0       16.495320    0.312144    0.454777
     61          6           0       17.928532    0.481345   -0.269626
     62          6           0       18.775021    1.348151    0.702016
     63          6           0       20.243059    1.348959    0.217240
     64          6           0       20.228656    2.242332   -1.044361
     65          6           0       21.169224    2.021748    1.223395
     66          1           0       -4.189123    3.539013    1.631543
     67          1           0      -10.226422    3.677956   -0.675156
     68          1           0      -10.231056   -2.381506   -1.476988
     69          1           0       -2.604646   -1.146146    2.152121
     70          1           0       -2.248409    1.842021    1.305967
     71          1           0       -1.901245    0.819841    3.462027
     72          1           0       -3.248327    2.347686    3.761861
     73          1           0       -3.514810    0.500171    3.822206
     74          1           0       -1.998973   -1.572166   -0.339345
     75          1           0       -2.400799    0.129770   -0.609689
     76          1           0       -0.353696    0.888374    0.743773
     77          1           0       -0.218247   -0.756044    1.361622
     78          1           0       -5.890706    7.123067    0.832738
     79          1           0       -5.100581    5.830952    2.194046
     80          1           0       -4.704095    5.841203    0.183641
     81          1           0       -9.406422    5.955745   -0.684081
     82          1           0       -9.332487    7.958833    0.727816
     83          1           0       -7.941042    7.288415    1.816902
     84          1           0      -11.991944    3.060655   -2.252838
     85          1           0      -13.208657    2.063907   -1.594904
     86          1           0      -12.324748    3.119167   -0.403149
     87          1           0      -12.326490   -1.810040   -1.064344
     88          1           0      -13.330388   -0.269968   -1.553240
     89          1           0      -13.152569   -1.927881   -3.563191
     90          1           0      -12.343792   -0.368561   -3.905012
     91          1           0      -11.485254   -1.609580   -3.565061
     92          1           0       -8.747926   -4.935808   -2.130557
     93          1           0       -8.231624   -5.753387   -0.667624
     94          1           0       -9.651792   -4.909194   -0.445640
     95          1           0       -3.249188   -3.511084   -0.198251
     96          1           0       -1.890622   -4.212506    3.867085
     97          1           0       -2.986993   -5.534593    3.709500
     98          1           0       -1.571994   -6.018037    2.917196
     99          1           0        2.592735   -1.754866   -1.375847
    100          1           0        2.719280   -0.151424   -2.030301
    101          1           0        4.320592   -0.824177    0.447593
    102          1           0        4.108503    1.312741   -2.389951
    103          1           0        5.596233    2.175446   -2.089771
    104          1           0        5.787152    0.690310   -3.064867
    105          1           0        6.665911    1.327011    0.046689
    106          1           0        6.259437   -0.134060    0.831885
    107          1           0        7.418397   -1.438885   -1.135200
    108          1           0        7.665180    0.199290   -1.960095
    109          1           0        9.189122    1.115959    0.121963
    110          1           0        8.657408   -0.767988    0.764906
    111          1           0       10.116125   -0.240029   -1.803392
    112          1           0        9.321031   -2.645834   -1.900090
    113          1           0       11.102044   -2.561386   -1.776143
    114          1           0       10.066990   -2.907848   -0.286487
    115          1           0       11.318166    0.542511    0.480015
    116          1           0       11.450717   -1.416947    0.790996
    117          1           0       12.742872   -1.559536   -1.464031
    118          1           0       13.041099    0.520750   -1.502472
    119          1           0       13.794758    0.668742    0.975440
    120          1           0       13.878296   -1.083480    0.834834
    121          1           0       15.121622    0.695403   -1.348405
    122          1           0       15.738403   -2.265814   -0.368404
    123          1           0       14.901061   -1.704815   -1.619294
    124          1           0       16.716237   -1.803404   -1.609034
    125          1           0       16.117053    1.357769    1.015749
    126          1           0       16.754284   -0.259136    1.296064
    127          1           0       18.361891   -0.417106   -0.307715
    128          1           0       17.713783    0.909382   -1.368710
    129          1           0       18.469900    2.377718    0.927131
    130          1           0       18.782999    0.521187    1.658638
    131          1           0       20.791043    0.340760    0.053928
    132          1           0       19.871346    3.360680   -0.922882
    133          1           0       21.089043    2.523597   -1.499955
    134          1           0       19.690632    1.722082   -1.919418
    135          1           0       21.065126    1.444661    2.353327
    136          1           0       22.454193    2.117422    1.065493
    137          1           0       20.836867    3.100756    1.421155
 ---------------------------------------------------------------------

 SCF Done:  E(RCAM-B3LYP) =  -2932.60041776     A.U. after   16 cycles

 Excitation energies and oscillator strengths:

 Excited State   1:      Singlet-A      1.9835 eV  625.09 nm  f=0.2535  <S**2>=0.000
     240 -> 243        0.26982
     241 -> 242        0.65003
 This state for optimization and/or second-order correction.
 Total Energy, E(TD-HF/TD-KS) =  -2932.52752703
 Copying the excited state density for this state as the 1-particle RhoCI density.

 The electronic state is 1-A.
 Alpha  occ. eigenvalues --  -46.83570 -19.27947 -19.24948 -19.21250 -19.20796
 Alpha  occ. eigenvalues --  -19.20438 -14.42270 -14.39237 -14.39036 -14.38937
 Alpha  occ. eigenvalues --  -10.39643 -10.38781 -10.35261 -10.32221 -10.31196
 Alpha  occ. eigenvalues --  -10.31135 -10.30143 -10.29525 -10.29439 -10.29127
 Alpha  occ. eigenvalues --  -10.29065 -10.28937 -10.28751 -10.28613 -10.28580
 Alpha  occ. eigenvalues --  -10.28539 -10.28487 -10.28426 -10.28349 -10.28226
 Alpha  occ. eigenvalues --  -10.28204 -10.28107 -10.27861 -10.27840 -10.27606
 Alpha  occ. eigenvalues --  -10.27449 -10.27435 -10.27348 -10.27278 -10.27224
 Alpha  occ. eigenvalues --  -10.27203 -10.27156 -10.27062 -10.27018 -10.26991
 Alpha  occ. eigenvalues --  -10.26966 -10.26961 -10.26945 -10.26919 -10.26874
 Alpha  occ. eigenvalues --  -10.26861 -10.26813 -10.26771 -10.26624 -10.26137
 Alpha  occ. eigenvalues --  -10.26067 -10.26058 -10.25951 -10.25757 -10.25733
 Alpha  occ. eigenvalues --  -10.25669 -10.25587 -10.25278 -10.24563 -10.23318
 Alpha  occ. eigenvalues --   -3.12757  -1.87450  -1.87003  -1.86945  -1.19768
 Alpha  occ. eigenvalues --   -1.17655  -1.13150  -1.08805  -1.08707  -1.04453
 Alpha  occ. eigenvalues --   -1.03282  -1.02704  -1.01460  -0.92096  -0.91863
 Alpha  occ. eigenvalues --   -0.90268  -0.89463  -0.88989  -0.88851  -0.88616
 Alpha  occ. eigenvalues --   -0.88117  -0.87659  -0.87272  -0.86931  -0.86419
 Alpha  occ. eigenvalues --   -0.84688  -0.84111  -0.83379  -0.82900  -0.82591
 Alpha  occ. eigenvalues --   -0.81631  -0.81002  -0.80515  -0.79949  -0.77913
 Alpha  occ. eigenvalues --   -0.77719  -0.77030  -0.76454  -0.75746  -0.74948
 Alpha  occ. eigenvalues --   -0.74534  -0.74385  -0.73596  -0.73089  -0.71887
 Alpha  occ. eigenvalues --   -0.71317  -0.69952  -0.69820  -0.68569  -0.67985
 Alpha  occ. eigenvalues --   -0.66661  -0.66461  -0.65271  -0.64694  -0.64049
 Alpha  occ. eigenvalues --   -0.63499  -0.63334  -0.62624  -0.62586  -0.62002
 Alpha  occ. eigenvalues --   -0.61538  -0.60341  -0.60250  -0.59335  -0.58921
 Alpha  occ. eigenvalues --   -0.58192  -0.57932  -0.57746  -0.57369  -0.56580
 Alpha  occ. eigenvalues --   -0.56135  -0.55270  -0.55091  -0.54784  -0.54566
 Alpha  occ. eigenvalues --   -0.54458  -0.54235  -0.53870  -0.53263  -0.52973
 Alpha  occ. eigenvalues --   -0.52238  -0.52171  -0.51971  -0.51779  -0.51521
 Alpha  occ. eigenvalues --   -0.51071  -0.50938  -0.50745  -0.50551  -0.50324
 Alpha  occ. eigenvalues --   -0.50269  -0.49958  -0.49613  -0.49205  -0.49130
 Alpha  occ. eigenvalues --   -0.49084  -0.48844  -0.48729  -0.48678  -0.48598
 Alpha  occ. eigenvalues --   -0.48110  -0.47818  -0.47726  -0.46947  -0.46720
 Alpha  occ. eigenvalues --   -0.46659  -0.46486  -0.46150  -0.45745  -0.45626
 Alpha  occ. eigenvalues --   -0.45450  -0.45334  -0.45185  -0.45145  -0.44897
 Alpha  occ. eigenvalues --   -0.44724  -0.44612  -0.44578  -0.44327  -0.44139
 Alpha  occ. eigenvalues --   -0.43963  -0.43545  -0.43392  -0.43316  -0.43077
 Alpha  occ. eigenvalues --   -0.42573  -0.42545  -0.42413  -0.42332  -0.42186
 Alpha  occ. eigenvalues --   -0.41777  -0.41672  -0.41233  -0.41070  -0.41044
 Alpha  occ. eigenvalues --   -0.40880  -0.40706  -0.40132  -0.39841  -0.39551
 Alpha  occ. eigenvalues --   -0.39495  -0.39125  -0.39035  -0.38788  -0.38644
 Alpha  occ. eigenvalues --   -0.38443  -0.38405  -0.38318  -0.38085  -0.37918
 Alpha  occ. eigenvalues --   -0.37862  -0.37633  -0.37084  -0.36846  -0.36708
 Alpha  occ. eigenvalues --   -0.36633  -0.36143  -0.35761  -0.35705  -0.35468
 Alpha  occ. eigenvalues --   -0.35325  -0.34767  -0.34367  -0.34064  -0.33517
 Alpha  occ. eigenvalues --   -0.33313  -0.33222  -0.32463  -0.30690  -0.29554
 Alpha  occ. eigenvalues --   -0.29368  -0.29135  -0.28524  -0.27618  -0.22875
 Alpha  occ. eigenvalues --   -0.20868
 Alpha virt. eigenvalues --   -0.06481  -0.03152   0.01340   0.04684   0.04762
 Alpha virt. eigenvalues --    0.05553   0.05933   0.06462   0.07256   0.07775
 Alpha virt. eigenvalues --    0.08445   0.09682   0.10743   0.10972   0.11272

 Mulliken charges:
               1
     1  Mg   0.816818
     2  C    0.074733
     3  C   -0.188157
     4  C   -0.192820
     5  C   -0.181054
     6  N   -0.629502
     7  C    0.355705
     8  C   -0.195721
     9  C   -0.124872
    10  C    0.291370
    11  C   -0.299697
    12  C   -0.171934
    13  C   -0.276055
    14  C    0.634590
    15  O   -0.493350
    16  O   -0.443320
    17  N   -0.683336
    18  C    0.322087
    19  C   -0.007225
    20  C    0.048677
    21  C    0.298684
    22  C   -0.350216
    23  C   -0.058087
    24  C   -0.244274
    25  N   -0.687245
    26  C    0.268056
    27  C    0.019556
    28  C   -0.006144
    29  C    0.311488
    30  C   -0.368094
    31  C   -0.213011
    32  C   -0.319100
    33  N   -0.777180
    34  C    0.290699
    35  C    0.074741
    36  C   -0.004704
    37  C    0.322446
    38  C   -0.419835
    39  C    0.342820
    40  O   -0.418250
    41  C   -0.357754
    42  C    0.620971
    43  O   -0.476167
    44  O   -0.459566
    45  C   -0.086999
    46  C    0.006364
    47  C   -0.139403
    48  C    0.101185
    49  C   -0.330170
    50  C   -0.214631
    51  C   -0.170844
    52  C   -0.124122
    53  C   -0.049928
    54  C   -0.324393
    55  C   -0.157999
    56  C   -0.146673
    57  C   -0.180297
    58  C   -0.062646
    59  C   -0.292295
    60  C   -0.165041
    61  C   -0.168413
    62  C   -0.140964
    63  C   -0.056466
    64  C   -0.306763
    65  C   -0.270689
    66  H    0.074743
    67  H    0.071020
    68  H    0.105299
    69  H    0.123177
    70  H    0.108924
    71  H    0.088586
    72  H    0.096716
    73  H    0.135649
    74  H    0.118198
    75  H    0.107508
    76  H    0.132628
    77  H    0.143886
    78  H    0.116973
    79  H    0.081071
    80  H    0.121038
    81  H    0.101606
    82  H    0.106951
    83  H    0.084329
    84  H    0.128409
    85  H    0.120755
    86  H    0.126492
    87  H    0.121073
    88  H    0.103215
    89  H    0.101036
    90  H    0.095927
    91  H    0.120015
    92  H    0.110218
    93  H    0.149906
    94  H    0.106108
    95  H    0.157530
    96  H    0.121966
    97  H    0.136770
    98  H    0.124143
    99  H    0.136208
   100  H    0.120305
   101  H    0.075914
   102  H    0.119955
   103  H    0.098643
   104  H    0.108445
   105  H    0.116756
   106  H    0.090649
   107  H    0.072155
   108  H    0.091671
   109  H    0.025695
   110  H    0.092532
   111  H    0.097249
   112  H    0.109271
   113  H    0.096641
   114  H    0.073118
   115  H    0.102137
   116  H    0.088560
   117  H    0.054934
   118  H    0.068972
   119  H    0.092245
   120  H    0.096062
   121  H    0.075894
   122  H    0.117118
   123  H    0.111159
   124  H    0.057052
   125  H    0.043379
   126  H    0.102466
   127  H    0.115283
   128  H    0.084487
   129  H    0.108467
   130  H    0.055004
   131  H    0.092077
   132  H    0.081081
   133  H    0.110000
   134  H    0.092959
   135  H    0.057702
   136  H    0.068384
   137  H    0.091920
 Sum of Mulliken charges =   0.00000

 Dipole moment (field-independent basis, Debye):
    X=              0.7875    Y=              3.7683    Z=              0.0452  Tot=              3.8500
 Quadrupole moment (field-independent basis, Debye-Ang):
   XX=           -345.2321   YY=           -390.5212   ZZ=           -400.1311
   XY=            -21.2781   XZ=              9.8436   YZ=             -3.0406

 Normal termination of Gaussian 09 at Tue Jul  2 14:27:32 2019.
