 Gaussian 09, Revision D.01,
 Gaussian 09:  ES64L-G09RevD.01 24-Apr-2013

 -------------------------------------
 # td=(NStates=1) CAM-B3LYP/6-31G(d,p)
 -------------------------------------

 --
 TD
 --
 Symbolic Z-matrix:
 Charge =  0 Multiplicity = 1

                         Standard orientation:
 ---------------------------------------------------------------------
 Center     Atomic      Atomic             Coordinates (Angstroms)
 Number     Number       Type             X           Y           Z
 ---------------------------------------------------------------------
      1         12           0       -7.147895    0.653866    0.085108
      2          6           0       -4.873406   -1.951203    0.510306
      3          6           0       -4.804334    2.882303    1.031897
      4          6           0       -9.376918    3.114759   -0.349108
      5          6           0       -9.493497   -1.647150   -0.909206
      6          7           0       -5.155348    0.399851    0.671070
      7          6           0       -4.334976   -0.684127    0.790436
      8          6           0       -2.926557   -0.326526    1.158750
      9          6           0       -3.035045    1.044091    1.659908
     10          6           0       -4.428664    1.474906    1.094774
     11          6           0       -2.933534    1.293329    3.156256
     12          6           0       -1.907092   -0.443242   -0.100238
     13          6           0       -0.507485   -0.480309    0.447797
     14          6           0        0.490855   -0.633066   -0.754733
     15          8           0        0.297662   -0.963240   -1.879387
     16          8           0        1.780746   -0.533969   -0.163491
     17          7           0       -7.071160    2.696907    0.190899
     18          6           0       -5.983737    3.422789    0.707416
     19          6           0       -6.392444    4.747957    0.589708
     20          6           0       -7.688805    4.846829    0.368823
     21          6           0       -8.180618    3.572397   -0.002157
     22          6           0       -5.491395    5.803085    1.131119
     23          6           0       -8.652427    5.999616    0.282521
     24          6           0       -8.541934    7.054648    1.022572
     25          7           0       -9.062769    0.651260   -0.555121
     26          6           0       -9.883014    1.778480   -0.639859
     27          6           0      -11.161586    1.427976   -1.126077
     28          6           0      -11.290105    0.031826   -1.219473
     29          6           0       -9.980633   -0.406107   -0.970339
     30          6           0      -12.312151    2.441386   -1.285844
     31          6           0      -12.438921   -0.831805   -1.731393
     32          6           0      -12.213054   -1.099255   -3.287618
     33          7           0       -7.240483   -1.438447   -0.100349
     34          6           0       -8.220272   -2.254998   -0.612500
     35          6           0       -7.834969   -3.600665   -0.466027
     36          6           0       -6.527714   -3.605800   -0.053768
     37          6           0       -6.208583   -2.166150    0.144044
     38          6           0       -8.648090   -4.805784   -0.731924
     39          6           0       -5.386684   -4.427110    0.282106
     40          8           0       -5.163597   -5.636013    0.314592
     41          6           0       -4.179571   -3.266460    0.608850
     42          6           0       -3.609374   -3.605195    1.988217
     43          8           0       -3.739432   -3.072880    3.011673
     44          8           0       -2.696959   -4.658303    1.821567
     45          6           0       -2.267736   -5.180818    3.028466
     46          6           0        2.835023   -0.674295   -1.173143
     47          6           0        4.127578   -0.425078   -0.556152
     48          6           0        5.161614    0.273878   -1.054067
     49          6           0        5.152325    1.115477   -2.239878
     50          6           0        6.445906    0.287434   -0.101104
     51          6           0        7.591545   -0.139342   -1.003425
     52          6           0        8.964082   -0.013334   -0.171858
     53          6           0       10.140504   -0.400555   -0.965103
     54          6           0       10.108038   -1.959825   -1.267723
     55          6           0       11.441671   -0.223623   -0.137693
     56          6           0       12.763432   -0.452082   -0.831802
     57          6           0       14.000335   -0.043991    0.053436
     58          6           0       15.445663   -0.220183   -0.455432
     59          6           0       15.740393   -1.763518   -0.870720
     60          6           0       16.462474    0.215327    0.566855
     61          6           0       17.816368    0.566941   -0.028920
     62          6           0       18.733975    1.284792    0.822389
     63          6           0       20.217677    1.391428    0.307757
     64          6           0       20.369413    2.178499   -1.066091
     65          6           0       21.067052    1.909029    1.327112
     66          1           0       -4.233895    3.754045    1.463016
     67          1           0      -10.234630    3.710438   -0.538651
     68          1           0      -10.180483   -2.515585   -1.273760
     69          1           0       -2.563340   -0.943093    1.875235
     70          1           0       -2.207375    1.782003    1.293036
     71          1           0       -1.897762    0.709978    3.510676
     72          1           0       -3.061464    2.364282    3.426598
     73          1           0       -3.552263    0.864063    3.701647
     74          1           0       -2.056602   -1.336128   -0.518009
     75          1           0       -2.054226    0.296654   -1.017244
     76          1           0       -0.373234    0.516546    1.115634
     77          1           0       -0.457930   -1.290763    0.994235
     78          1           0       -5.545283    6.905667    0.739261
     79          1           0       -5.453760    5.854422    2.120322
     80          1           0       -4.399417    5.586394    0.765977
     81          1           0       -9.268021    5.958485   -0.582557
     82          1           0       -9.022367    7.935313    0.747777
     83          1           0       -7.921821    7.048183    2.034186
     84          1           0      -12.126126    3.235625   -1.996162
     85          1           0      -13.272152    1.911468   -1.608343
     86          1           0      -12.427478    2.891043   -0.321878
     87          1           0      -12.514625   -1.659608   -1.193698
     88          1           0      -13.421447   -0.307153   -1.481178
     89          1           0      -12.895955   -1.910044   -3.788447
     90          1           0      -12.314315   -0.087414   -4.009926
     91          1           0      -11.262489   -1.577945   -3.495201
     92          1           0       -8.909951   -4.881626   -1.902078
     93          1           0       -8.079130   -5.906002   -0.670852
     94          1           0       -9.507565   -4.853161    0.006276
     95          1           0       -3.295634   -3.321528   -0.108568
     96          1           0       -1.566403   -4.539547    3.539686
     97          1           0       -2.977328   -5.447593    3.851901
     98          1           0       -1.651461   -5.996554    2.800908
     99          1           0        2.763445   -1.686258   -1.565541
    100          1           0        2.449769   -0.001952   -2.016885
    101          1           0        4.326628   -0.840221    0.470407
    102          1           0        4.085810    1.296919   -2.434768
    103          1           0        5.816174    2.052536   -2.083776
    104          1           0        5.732197    0.694317   -3.123504
    105          1           0        6.662781    1.319415    0.232256
    106          1           0        6.228762   -0.509135    0.737351
    107          1           0        7.240485   -1.381113   -1.079708
    108          1           0        7.573423    0.294070   -2.115931
    109          1           0        9.214504    1.012146    0.125797
    110          1           0        8.874754   -0.884326    0.725214
    111          1           0       10.281506    0.048673   -1.907589
    112          1           0        9.236515   -2.271094   -1.816074
    113          1           0       10.974945   -2.249368   -1.817508
    114          1           0       10.083620   -2.508641   -0.563757
    115          1           0       11.558302    0.759711    0.398076
    116          1           0       11.182531   -0.804643    0.769845
    117          1           0       12.938026   -1.469689   -1.245194
    118          1           0       12.817853    0.138784   -1.653470
    119          1           0       13.984691    0.981730    0.387443
    120          1           0       14.077561   -0.514711    1.172289
    121          1           0       15.576319    0.391550   -1.469573
    122          1           0       15.507839   -2.524909   -0.117668
    123          1           0       15.126925   -2.025467   -1.833316
    124          1           0       16.789014   -2.025868   -1.112900
    125          1           0       15.791465    1.059984    1.084132
    126          1           0       16.549972   -0.267736    1.450430
    127          1           0       18.199523   -0.551904   -0.048988
    128          1           0       17.538136    1.098128   -0.992499
    129          1           0       18.225427    2.502347    0.976035
    130          1           0       18.793374    0.708398    1.698446
    131          1           0       20.516129    0.335510    0.068786
    132          1           0       20.194744    3.331447   -1.103774
    133          1           0       21.507540    2.201772   -1.390427
    134          1           0       19.833935    1.697486   -1.964675
    135          1           0       21.077605    1.274936    2.143082
    136          1           0       22.077771    1.881334    0.954522
    137          1           0       20.788051    3.021306    1.768340
 ---------------------------------------------------------------------

 SCF Done:  E(RCAM-B3LYP) =  -2932.60109841     A.U. after   18 cycles

 Excitation energies and oscillator strengths:

 Excited State   1:      Singlet-A      2.2450 eV  552.26 nm  f=0.1436  <S**2>=0.000
     240 -> 242       -0.33638
     240 -> 243        0.22986
     241 -> 242        0.51481
     241 -> 243        0.24319
 This state for optimization and/or second-order correction.
 Total Energy, E(TD-HF/TD-KS) =  -2932.51859494
 Copying the excited state density for this state as the 1-particle RhoCI density.

 The electronic state is 1-A.
 Alpha  occ. eigenvalues --  -46.84128 -19.24987 -19.24543 -19.23174 -19.21575
 Alpha  occ. eigenvalues --  -19.20305 -14.42891 -14.39397 -14.39010 -14.38095
 Alpha  occ. eigenvalues --  -10.40090 -10.38518 -10.35549 -10.33131 -10.31291
 Alpha  occ. eigenvalues --  -10.30705 -10.29638 -10.29302 -10.28940 -10.28829
 Alpha  occ. eigenvalues --  -10.28556 -10.28462 -10.28417 -10.28410 -10.28347
 Alpha  occ. eigenvalues --  -10.28230 -10.28226 -10.28042 -10.28033 -10.27981
 Alpha  occ. eigenvalues --  -10.27639 -10.27627 -10.27327 -10.27255 -10.27207
 Alpha  occ. eigenvalues --  -10.27008 -10.26938 -10.26869 -10.26863 -10.26843
 Alpha  occ. eigenvalues --  -10.26834 -10.26816 -10.26781 -10.26592 -10.26554
 Alpha  occ. eigenvalues --  -10.26546 -10.26501 -10.26467 -10.26413 -10.26411
 Alpha  occ. eigenvalues --  -10.26355 -10.26344 -10.26105 -10.25999 -10.25934
 Alpha  occ. eigenvalues --  -10.25638 -10.25475 -10.25151 -10.25032 -10.24994
 Alpha  occ. eigenvalues --  -10.24943 -10.24812 -10.24407 -10.24098 -10.21186
 Alpha  occ. eigenvalues --   -3.13146  -1.87856  -1.87416  -1.87291  -1.18683
 Alpha  occ. eigenvalues --   -1.17587  -1.10393  -1.09657  -1.09544  -1.05596
 Alpha  occ. eigenvalues --   -1.04571  -1.02964  -1.01274  -0.91716  -0.91412
 Alpha  occ. eigenvalues --   -0.91034  -0.90726  -0.89896  -0.89812  -0.89293
 Alpha  occ. eigenvalues --   -0.88265  -0.87911  -0.87791  -0.87472  -0.86758
 Alpha  occ. eigenvalues --   -0.85048  -0.84728  -0.83388  -0.82956  -0.82711
 Alpha  occ. eigenvalues --   -0.81594  -0.80983  -0.80639  -0.79994  -0.78652
 Alpha  occ. eigenvalues --   -0.77793  -0.77394  -0.76752  -0.75455  -0.75160
 Alpha  occ. eigenvalues --   -0.74980  -0.74684  -0.74462  -0.73325  -0.72612
 Alpha  occ. eigenvalues --   -0.71872  -0.70948  -0.70411  -0.68842  -0.68628
 Alpha  occ. eigenvalues --   -0.67155  -0.65935  -0.65573  -0.65272  -0.64576
 Alpha  occ. eigenvalues --   -0.63950  -0.63332  -0.62847  -0.62669  -0.61609
 Alpha  occ. eigenvalues --   -0.61258  -0.61102  -0.61024  -0.59776  -0.59250
 Alpha  occ. eigenvalues --   -0.58487  -0.58220  -0.57269  -0.56791  -0.56630
 Alpha  occ. eigenvalues --   -0.56151  -0.55825  -0.55337  -0.54828  -0.54695
 Alpha  occ. eigenvalues --   -0.54586  -0.54376  -0.53975  -0.53748  -0.53448
 Alpha  occ. eigenvalues --   -0.53041  -0.52465  -0.52390  -0.51780  -0.51481
 Alpha  occ. eigenvalues --   -0.51347  -0.51237  -0.51023  -0.50976  -0.50872
 Alpha  occ. eigenvalues --   -0.50549  -0.50293  -0.50155  -0.49956  -0.49666
 Alpha  occ. eigenvalues --   -0.49338  -0.49252  -0.48967  -0.48845  -0.48670
 Alpha  occ. eigenvalues --   -0.48239  -0.47807  -0.47429  -0.47316  -0.46951
 Alpha  occ. eigenvalues --   -0.46717  -0.46480  -0.46369  -0.45983  -0.45850
 Alpha  occ. eigenvalues --   -0.45533  -0.45507  -0.45416  -0.45115  -0.44961
 Alpha  occ. eigenvalues --   -0.44640  -0.44556  -0.44484  -0.44119  -0.44000
 Alpha  occ. eigenvalues --   -0.43866  -0.43584  -0.43252  -0.43182  -0.42844
 Alpha  occ. eigenvalues --   -0.42732  -0.42676  -0.42553  -0.42221  -0.42120
 Alpha  occ. eigenvalues --   -0.41977  -0.41758  -0.41478  -0.41457  -0.41307
 Alpha  occ. eigenvalues --   -0.41154  -0.40916  -0.40770  -0.40734  -0.40585
 Alpha  occ. eigenvalues --   -0.40255  -0.40043  -0.39957  -0.39885  -0.39708
 Alpha  occ. eigenvalues --   -0.39075  -0.38992  -0.38875  -0.38557  -0.38085
 Alpha  occ. eigenvalues --   -0.37809  -0.37655  -0.37395  -0.37101  -0.36480
 Alpha  occ. eigenvalues --   -0.36213  -0.35947  -0.35771  -0.35348  -0.35010
 Alpha  occ. eigenvalues --   -0.34861  -0.34713  -0.34450  -0.33986  -0.33708
 Alpha  occ. eigenvalues --   -0.33549  -0.33464  -0.32622  -0.31236  -0.29847
 Alpha  occ. eigenvalues --   -0.29375  -0.29225  -0.28419  -0.28160  -0.23468
 Alpha  occ. eigenvalues --   -0.21839
 Alpha virt. eigenvalues --   -0.06095  -0.03600   0.01202   0.04329   0.05492
 Alpha virt. eigenvalues --    0.05910   0.06438   0.06641   0.06907   0.07232
 Alpha virt. eigenvalues --    0.07860   0.10253   0.10302   0.11317   0.11566

 Mulliken charges:
               1
     1  Mg   0.801795
     2  C    0.066844
     3  C   -0.207624
     4  C   -0.187323
     5  C   -0.192808
     6  N   -0.628413
     7  C    0.309578
     8  C   -0.134226
     9  C   -0.138128
    10  C    0.331108
    11  C   -0.287339
    12  C   -0.179866
    13  C   -0.245345
    14  C    0.602180
    15  O   -0.436206
    16  O   -0.514340
    17  N   -0.752282
    18  C    0.360170
    19  C    0.004651
    20  C    0.019492
    21  C    0.348308
    22  C   -0.393943
    23  C   -0.053551
    24  C   -0.233723
    25  N   -0.689919
    26  C    0.315219
    27  C   -0.022385
    28  C    0.047986
    29  C    0.286053
    30  C   -0.378956
    31  C   -0.213041
    32  C   -0.304200
    33  N   -0.694651
    34  C    0.222557
    35  C    0.044598
    36  C    0.025341
    37  C    0.312768
    38  C   -0.388686
    39  C    0.355935
    40  O   -0.461052
    41  C   -0.364133
    42  C    0.612702
    43  O   -0.429843
    44  O   -0.460455
    45  C   -0.080453
    46  C    0.010652
    47  C   -0.141807
    48  C    0.135170
    49  C   -0.367300
    50  C   -0.209044
    51  C   -0.165920
    52  C   -0.149975
    53  C   -0.073117
    54  C   -0.307835
    55  C   -0.169636
    56  C   -0.179840
    57  C   -0.189491
    58  C   -0.036930
    59  C   -0.320272
    60  C   -0.171761
    61  C   -0.160336
    62  C   -0.126022
    63  C   -0.044225
    64  C   -0.313332
    65  C   -0.285815
    66  H    0.076720
    67  H    0.071924
    68  H    0.078636
    69  H    0.118741
    70  H    0.105959
    71  H    0.077971
    72  H    0.109634
    73  H    0.137933
    74  H    0.126927
    75  H    0.108937
    76  H    0.117967
    77  H    0.155254
    78  H    0.109882
    79  H    0.142333
    80  H    0.097544
    81  H    0.107493
    82  H    0.103304
    83  H    0.099180
    84  H    0.122539
    85  H    0.106729
    86  H    0.131675
    87  H    0.124931
    88  H    0.101717
    89  H    0.091435
    90  H    0.092709
    91  H    0.126371
    92  H    0.111131
    93  H    0.126968
    94  H    0.126715
    95  H    0.154126
    96  H    0.099380
    97  H    0.116765
    98  H    0.116973
    99  H    0.131040
   100  H    0.115421
   101  H    0.093796
   102  H    0.117114
   103  H    0.108500
   104  H    0.120063
   105  H    0.100610
   106  H    0.095981
   107  H    0.064348
   108  H    0.088565
   109  H    0.097525
   110  H    0.074797
   111  H    0.087536
   112  H    0.092865
   113  H    0.093552
   114  H    0.106948
   115  H    0.073277
   116  H    0.086323
   117  H    0.101554
   118  H    0.110029
   119  H    0.100397
   120  H    0.063062
   121  H    0.068139
   122  H    0.102503
   123  H    0.080728
   124  H    0.097590
   125  H    0.045623
   126  H    0.102136
   127  H    0.081979
   128  H    0.095261
   129  H    0.042276
   130  H    0.089988
   131  H    0.086907
   132  H    0.095095
   133  H    0.079511
   134  H    0.099809
   135  H    0.106118
   136  H    0.099538
   137  H    0.079437
 Sum of Mulliken charges =   0.00000

 Dipole moment (field-independent basis, Debye):
    X=             -0.3383    Y=              5.6802    Z=              0.3950  Tot=              5.7040
 Quadrupole moment (field-independent basis, Debye-Ang):
   XX=           -330.7482   YY=           -397.7581   ZZ=           -395.6364
   XY=            -32.9021   XZ=              9.9275   YZ=              1.1674

 Normal termination of Gaussian 09 at Tue Jul  2 17:48:01 2019.
