 Gaussian 16, Revision A.03,
 Gaussian 16:  ES64L-G16RevA.03 25-Dec-2016

 ----------------------------------------------------------------------
 # td=(NStates=1) iop(3/107=0140000000,3/108=0140000000) CAM-B3LYP/6-31
 G(d,p)
 ----------------------------------------------------------------------

 --
 TD
 --
 Symbolic Z-matrix:
 Charge =  0 Multiplicity = 1

                         Standard orientation:
 ---------------------------------------------------------------------
 Center     Atomic      Atomic             Coordinates (Angstroms)
 Number     Number       Type             X           Y           Z
 ---------------------------------------------------------------------
      1         12           0       -7.102421    0.637065    0.211742
      2          6           0       -4.889395   -1.980247    0.502109
      3          6           0       -4.850095    2.783952    1.248020
      4          6           0       -9.337027    3.140264   -0.452010
      5          6           0       -9.497261   -1.701191   -0.887612
      6          7           0       -5.117929    0.434401    0.652551
      7          6           0       -4.375739   -0.761773    0.778429
      8          6           0       -2.973663   -0.465022    1.298308
      9          6           0       -3.043577    1.043605    1.722351
     10          6           0       -4.358915    1.483197    1.157168
     11          6           0       -2.973892    1.251165    3.281123
     12          6           0       -1.929125   -0.708019    0.152001
     13          6           0       -0.443214   -0.560624    0.625059
     14          6           0        0.513864   -0.707948   -0.559984
     15          8           0        0.154773   -1.054234   -1.719258
     16          8           0        1.839538   -0.477689   -0.212079
     17          7           0       -7.076751    2.635583    0.289702
     18          6           0       -5.980740    3.351370    0.758092
     19          6           0       -6.382899    4.754853    0.804497
     20          6           0       -7.680478    4.762463    0.430036
     21          6           0       -8.105624    3.468501    0.114326
     22          6           0       -5.406598    5.905534    1.157023
     23          6           0       -8.473806    6.091764    0.154133
     24          6           0       -8.463219    7.201988    1.011469
     25          7           0       -9.054176    0.663103   -0.515407
     26          6           0       -9.825026    1.810537   -0.686636
     27          6           0      -11.096468    1.495781   -1.208229
     28          6           0      -11.195904    0.135637   -1.378186
     29          6           0       -9.863368   -0.363254   -1.019581
     30          6           0      -12.234297    2.450013   -1.418179
     31          6           0      -12.316421   -0.708497   -1.879813
     32          6           0      -12.260755   -0.933096   -3.452331
     33          7           0       -7.207856   -1.448498   -0.158312
     34          6           0       -8.212617   -2.208068   -0.421527
     35          6           0       -7.881625   -3.707055   -0.479382
     36          6           0       -6.543116   -3.660735   -0.059105
     37          6           0       -6.117777   -2.280322    0.029829
     38          6           0       -8.634722   -4.938637   -0.881836
     39          6           0       -5.351972   -4.431110    0.275256
     40          8           0       -5.209820   -5.696976    0.188592
     41          6           0       -4.207382   -3.401394    0.518114
     42          6           0       -3.547405   -3.708717    1.927564
     43          8           0       -3.784474   -3.114873    3.015196
     44          8           0       -2.600199   -4.805676    1.818770
     45          6           0       -2.269270   -5.170809    3.090002
     46          6           0        2.799477   -0.578175   -1.272443
     47          6           0        4.146820   -0.393038   -0.664617
     48          6           0        5.064634    0.543464   -1.015207
     49          6           0        4.932910    1.519167   -2.098186
     50          6           0        6.380406    0.470476   -0.284382
     51          6           0        7.542020   -0.091415   -1.003253
     52          6           0        8.962821   -0.014308   -0.265054
     53          6           0       10.158973   -0.498886   -1.128284
     54          6           0        9.963884   -1.954349   -1.402538
     55          6           0       11.327366   -0.145911   -0.115785
     56          6           0       12.765687   -0.268724   -0.819753
     57          6           0       13.865510    0.056497    0.204886
     58          6           0       15.256836   -0.167085   -0.456931
     59          6           0       15.566435   -1.590719   -0.867256
     60          6           0       16.345269    0.509642    0.376358
     61          6           0       17.833117    0.491929   -0.231008
     62          6           0       18.795845    1.084204    0.714135
     63          6           0       20.318403    1.114797    0.284391
     64          6           0       20.446505    1.975735   -0.966810
     65          6           0       21.142508    1.628053    1.496124
     66          1           0       -3.946776    3.358052    1.737051
     67          1           0      -10.008873    3.929757   -0.398128
     68          1           0      -10.195581   -2.449845   -1.167987
     69          1           0       -2.589089   -1.129779    2.209390
     70          1           0       -2.176169    1.610019    1.423214
     71          1           0       -1.953177    1.094978    3.790450
     72          1           0       -3.207411    2.349709    3.367776
     73          1           0       -3.541534    0.703401    3.908484
     74          1           0       -2.154694   -1.655391   -0.273066
     75          1           0       -1.989506   -0.129027   -0.780238
     76          1           0       -0.336372    0.380299    1.185599
     77          1           0       -0.296355   -1.352779    1.390013
     78          1           0       -5.881247    6.862592    0.743044
     79          1           0       -5.346168    6.199018    2.304440
     80          1           0       -4.465169    5.590843    0.984687
     81          1           0       -9.271850    6.063800   -0.767498
     82          1           0       -8.953724    8.082742    0.695495
     83          1           0       -7.732661    7.124384    1.887943
     84          1           0      -11.855065    3.127595   -2.127370
     85          1           0      -13.157226    2.008153   -1.922262
     86          1           0      -12.556985    2.905152   -0.479517
     87          1           0      -12.482270   -1.746992   -1.340617
     88          1           0      -13.200072    0.199582   -1.775025
     89          1           0      -13.105199   -1.538809   -3.699904
     90          1           0      -12.328560   -0.018548   -4.175968
     91          1           0      -11.264265   -1.481352   -3.585725
     92          1           0       -9.018838   -4.855375   -1.865658
     93          1           0       -7.969752   -5.901488   -0.611922
     94          1           0       -9.447604   -5.035282   -0.147497
     95          1           0       -3.516965   -3.760757   -0.131585
     96          1           0       -1.707495   -4.258064    3.459046
     97          1           0       -2.986819   -5.341566    3.786719
     98          1           0       -1.693795   -5.898833    2.742938
     99          1           0        2.804187   -1.662877   -1.614783
    100          1           0        2.344749    0.172851   -2.009327
    101          1           0        4.260686   -1.253891    0.238979
    102          1           0        4.028161    1.662292   -2.512026
    103          1           0        5.448751    2.331609   -1.846393
    104          1           0        5.508447    1.231621   -2.876352
    105          1           0        6.788239    1.375164   -0.139931
    106          1           0        6.273328    0.030597    0.683771
    107          1           0        7.304166   -1.291922   -1.386162
    108          1           0        7.727724    0.424500   -1.980416
    109          1           0        9.260705    1.139743   -0.051424
    110          1           0        8.817308   -0.367695    0.886698
    111          1           0       10.205788    0.160376   -2.066320
    112          1           0        9.101435   -2.192057   -1.993191
    113          1           0       10.856997   -2.116051   -2.176750
    114          1           0       10.036831   -2.515875   -0.405531
    115          1           0       11.342866    0.736800    0.121131
    116          1           0       11.388595   -0.805254    0.539700
    117          1           0       13.052981   -1.353044   -1.284261
    118          1           0       12.806271    0.471334   -1.707803
    119          1           0       13.696456    1.098867    0.632947
    120          1           0       13.908687   -0.889431    0.880767
    121          1           0       15.275252    0.353690   -1.375970
    122          1           0       15.536330   -2.181751    0.017485
    123          1           0       14.567207   -2.009824   -1.481948
    124          1           0       16.495011   -1.751270   -1.515404
    125          1           0       16.060737    1.566663    0.681231
    126          1           0       16.275922    0.037463    1.431938
    127          1           0       18.181998   -0.478531   -0.429769
    128          1           0       18.002150    1.035103   -1.074009
    129          1           0       18.700311    2.289094    0.870784
    130          1           0       18.852779    0.492243    1.530548
    131          1           0       20.645778    0.129638   -0.033073
    132          1           0       20.096657    2.939922   -0.670391
    133          1           0       21.446290    1.969808   -1.222300
    134          1           0       19.772921    1.702164   -1.695734
    135          1           0       21.094617    0.989966    2.405607
    136          1           0       22.221723    1.761230    1.313657
    137          1           0       20.940317    2.736454    1.387980
 ---------------------------------------------------------------------

 SCF Done:  E(RCAM-B3LYP) =  -2933.44623793     A.U. after   16 cycles

 Excitation energies and oscillator strengths:

 Excited State   1:      Singlet-A      2.0210 eV  613.49 nm  f=0.2548  <S**2>=0.000
     240 -> 243       -0.23217
     241 -> 242        0.66718
 This state for optimization and/or second-order correction.
 Total Energy, E(TD-HF/TD-DFT) =  -2933.37196841
 Copying the excited state density for this state as the 1-particle RhoCI density.

 The electronic state is 1-A.
 Alpha  occ. eigenvalues --  -46.80046 -19.21799 -19.21579 -19.18536 -19.17009
 Alpha  occ. eigenvalues --  -19.15725 -14.38300 -14.35395 -14.35102 -14.34953
 Alpha  occ. eigenvalues --  -10.35813 -10.35311 -10.30592 -10.27593 -10.26874
 Alpha  occ. eigenvalues --  -10.26432 -10.25474 -10.25447 -10.25328 -10.24992
 Alpha  occ. eigenvalues --  -10.24877 -10.24864 -10.24413 -10.24383 -10.24371
 Alpha  occ. eigenvalues --  -10.24369 -10.24017 -10.24000 -10.23970 -10.23699
 Alpha  occ. eigenvalues --  -10.23198 -10.23036 -10.23020 -10.22883 -10.22868
 Alpha  occ. eigenvalues --  -10.22752 -10.22721 -10.22678 -10.22670 -10.22552
 Alpha  occ. eigenvalues --  -10.22550 -10.22527 -10.22384 -10.22236 -10.22133
 Alpha  occ. eigenvalues --  -10.22009 -10.21935 -10.21894 -10.21812 -10.21718
 Alpha  occ. eigenvalues --  -10.21670 -10.21669 -10.21636 -10.21543 -10.21276
 Alpha  occ. eigenvalues --  -10.21223 -10.20874 -10.20703 -10.20609 -10.19904
 Alpha  occ. eigenvalues --  -10.19816 -10.19478 -10.18988 -10.18226 -10.18135
 Alpha  occ. eigenvalues --   -3.08669  -1.83604  -1.83125  -1.83093  -1.11746
 Alpha  occ. eigenvalues --   -1.11094  -1.03937  -1.02607  -1.02557  -0.99814
 Alpha  occ. eigenvalues --   -0.99369  -0.97590  -0.96693  -0.88234  -0.86676
 Alpha  occ. eigenvalues --   -0.85452  -0.84670  -0.84252  -0.84122  -0.83343
 Alpha  occ. eigenvalues --   -0.83276  -0.82807  -0.82437  -0.81705  -0.80864
 Alpha  occ. eigenvalues --   -0.79972  -0.79128  -0.78445  -0.78150  -0.77337
 Alpha  occ. eigenvalues --   -0.76885  -0.76423  -0.76298  -0.75978  -0.73892
 Alpha  occ. eigenvalues --   -0.73251  -0.72496  -0.71845  -0.71705  -0.71503
 Alpha  occ. eigenvalues --   -0.70917  -0.70744  -0.69769  -0.68662  -0.67922
 Alpha  occ. eigenvalues --   -0.67726  -0.65909  -0.64705  -0.64288  -0.64059
 Alpha  occ. eigenvalues --   -0.62060  -0.61835  -0.61249  -0.60631  -0.60071
 Alpha  occ. eigenvalues --   -0.59719  -0.58967  -0.58472  -0.58330  -0.57737
 Alpha  occ. eigenvalues --   -0.57283  -0.56453  -0.56399  -0.55759  -0.55090
 Alpha  occ. eigenvalues --   -0.54635  -0.54525  -0.53798  -0.53225  -0.52868
 Alpha  occ. eigenvalues --   -0.52748  -0.52552  -0.51466  -0.51405  -0.51229
 Alpha  occ. eigenvalues --   -0.50838  -0.50463  -0.50065  -0.49765  -0.49177
 Alpha  occ. eigenvalues --   -0.48878  -0.48525  -0.48215  -0.47902  -0.47863
 Alpha  occ. eigenvalues --   -0.47738  -0.47731  -0.47646  -0.47279  -0.47002
 Alpha  occ. eigenvalues --   -0.46884  -0.46631  -0.46617  -0.46061  -0.45785
 Alpha  occ. eigenvalues --   -0.45621  -0.45494  -0.45371  -0.45088  -0.44794
 Alpha  occ. eigenvalues --   -0.44599  -0.44257  -0.44139  -0.44100  -0.43925
 Alpha  occ. eigenvalues --   -0.43794  -0.43278  -0.43152  -0.43038  -0.42622
 Alpha  occ. eigenvalues --   -0.42332  -0.41909  -0.41849  -0.41685  -0.41412
 Alpha  occ. eigenvalues --   -0.41273  -0.41121  -0.40888  -0.40856  -0.40716
 Alpha  occ. eigenvalues --   -0.40468  -0.40284  -0.40055  -0.39907  -0.39838
 Alpha  occ. eigenvalues --   -0.39629  -0.39441  -0.39320  -0.39062  -0.39032
 Alpha  occ. eigenvalues --   -0.38711  -0.38622  -0.38505  -0.38323  -0.38154
 Alpha  occ. eigenvalues --   -0.37824  -0.37705  -0.37563  -0.37490  -0.37389
 Alpha  occ. eigenvalues --   -0.37277  -0.36773  -0.36656  -0.36567  -0.35987
 Alpha  occ. eigenvalues --   -0.35739  -0.35165  -0.35018  -0.34989  -0.34642
 Alpha  occ. eigenvalues --   -0.34571  -0.34098  -0.33985  -0.33645  -0.33578
 Alpha  occ. eigenvalues --   -0.33333  -0.32832  -0.32299  -0.32253  -0.32200
 Alpha  occ. eigenvalues --   -0.31627  -0.31465  -0.31206  -0.30864  -0.30494
 Alpha  occ. eigenvalues --   -0.30252  -0.29954  -0.29225  -0.29033  -0.27180
 Alpha  occ. eigenvalues --   -0.26564  -0.26450  -0.26012  -0.25453  -0.21931
 Alpha  occ. eigenvalues --   -0.19962
 Alpha virt. eigenvalues --   -0.07115  -0.04135  -0.01185   0.01417   0.01928
 Alpha virt. eigenvalues --    0.02551   0.03763   0.04241   0.04525   0.05670
 Alpha virt. eigenvalues --    0.06704   0.08495   0.08915   0.09186   0.09739

 Mulliken charges:
               1
     1  Mg   0.825772
     2  C    0.122784
     3  C   -0.199327
     4  C   -0.152542
     5  C   -0.168094
     6  N   -0.655747
     7  C    0.288393
     8  C   -0.155769
     9  C   -0.144205
    10  C    0.353517
    11  C   -0.315947
    12  C   -0.183507
    13  C   -0.269259
    14  C    0.607023
    15  O   -0.483112
    16  O   -0.475630
    17  N   -0.733549
    18  C    0.298864
    19  C    0.049912
    20  C   -0.030378
    21  C    0.333475
    22  C   -0.361388
    23  C   -0.092903
    24  C   -0.240951
    25  N   -0.678650
    26  C    0.304122
    27  C    0.009684
    28  C    0.079311
    29  C    0.273543
    30  C   -0.379843
    31  C   -0.249344
    32  C   -0.297540
    33  N   -0.656456
    34  C    0.274171
    35  C    0.003095
    36  C    0.069861
    37  C    0.188268
    38  C   -0.391749
    39  C    0.333177
    40  O   -0.492757
    41  C   -0.287838
    42  C    0.595703
    43  O   -0.471808
    44  O   -0.452162
    45  C   -0.058287
    46  C    0.021248
    47  C   -0.132577
    48  C    0.119590
    49  C   -0.359816
    50  C   -0.214365
    51  C   -0.163806
    52  C   -0.161702
    53  C   -0.072553
    54  C   -0.283669
    55  C   -0.104893
    56  C   -0.206624
    57  C   -0.171064
    58  C   -0.044241
    59  C   -0.310959
    60  C   -0.170908
    61  C   -0.176416
    62  C   -0.137323
    63  C   -0.096306
    64  C   -0.310809
    65  C   -0.306783
    66  H    0.073835
    67  H    0.081526
    68  H    0.072040
    69  H    0.115808
    70  H    0.113181
    71  H    0.094747
    72  H    0.097356
    73  H    0.140409
    74  H    0.122124
    75  H    0.122415
    76  H    0.130939
    77  H    0.138888
    78  H    0.123521
    79  H    0.098299
    80  H    0.123570
    81  H    0.085145
    82  H    0.113457
    83  H    0.106901
    84  H    0.131535
    85  H    0.105055
    86  H    0.130357
    87  H    0.107529
    88  H    0.069446
    89  H    0.115079
    90  H    0.102862
    91  H    0.104660
    92  H    0.137312
    93  H    0.146370
    94  H    0.129977
    95  H    0.167362
    96  H    0.093994
    97  H    0.133869
    98  H    0.118966
    99  H    0.119738
   100  H    0.113336
   101  H    0.080062
   102  H    0.118776
   103  H    0.120331
   104  H    0.135883
   105  H    0.101710
   106  H    0.104590
   107  H    0.048376
   108  H    0.084230
   109  H    0.057379
   110  H    0.073348
   111  H    0.081103
   112  H    0.117933
   113  H    0.079838
   114  H    0.099630
   115  H    0.092818
   116  H    0.099581
   117  H    0.070743
   118  H    0.073426
   119  H    0.092415
   120  H    0.082990
   121  H    0.088587
   122  H    0.107139
   123  H    0.070939
   124  H    0.108417
   125  H    0.082265
   126  H    0.069368
   127  H    0.097654
   128  H    0.096391
   129  H    0.055640
   130  H    0.092782
   131  H    0.076853
   132  H    0.092928
   133  H    0.107414
   134  H    0.109628
   135  H    0.109691
   136  H    0.093020
   137  H    0.096558
 Sum of Mulliken charges =  -0.00000

 Dipole moment (field-independent basis, Debye):
    X=              1.3971    Y=              5.0708    Z=              0.3983  Tot=              5.2748
 Quadrupole moment (field-independent basis, Debye-Ang):
   XX=           -330.4826   YY=           -401.2184   ZZ=           -396.2764
   XY=            -17.6267   XZ=              5.7121   YZ=             -2.6997

 Normal termination of Gaussian 16 at Tue Sep  3 19:26:59 2019.
