 Gaussian 09, Revision D.01,
 Gaussian 09:  ES64L-G09RevD.01 24-Apr-2013

 -------------------------------------
 # td=(NStates=1) CAM-B3LYP/6-31G(d,p)
 -------------------------------------

 --
 TD
 --
 Symbolic Z-matrix:
 Charge =  0 Multiplicity = 1

                         Standard orientation:
 ---------------------------------------------------------------------
 Center     Atomic      Atomic             Coordinates (Angstroms)
 Number     Number       Type             X           Y           Z
 ---------------------------------------------------------------------
      1         12           0       -7.155096    0.572240    0.095450
      2          6           0       -4.835076   -2.025802    0.480560
      3          6           0       -4.777980    2.837200    1.077887
      4          6           0       -9.366479    2.994800   -0.562620
      5          6           0       -9.608275   -1.793985   -0.787640
      6          7           0       -5.134090    0.390124    0.696353
      7          6           0       -4.361597   -0.760295    0.713942
      8          6           0       -2.946835   -0.427730    1.132969
      9          6           0       -3.069831    1.039463    1.655210
     10          6           0       -4.435911    1.494858    1.152136
     11          6           0       -2.833108    1.313633    3.241183
     12          6           0       -1.863122   -0.617069    0.045452
     13          6           0       -0.417897   -0.384809    0.573393
     14          6           0        0.604575   -0.716101   -0.520621
     15          8           0        0.342554   -1.206816   -1.617004
     16          8           0        1.862266   -0.396699   -0.146911
     17          7           0       -7.129508    2.610306    0.268619
     18          6           0       -6.016353    3.388498    0.681945
     19          6           0       -6.414628    4.800297    0.793461
     20          6           0       -7.752975    4.863746    0.363391
     21          6           0       -8.191837    3.458279    0.036834
     22          6           0       -5.642579    5.929383    1.110603
     23          6           0       -8.616173    5.960627    0.157346
     24          6           0       -8.473620    7.141338    0.825312
     25          7           0       -9.084219    0.655460   -0.590275
     26          6           0       -9.898810    1.673329   -0.657458
     27          6           0      -11.163748    1.454608   -1.130721
     28          6           0      -11.213036    0.018559   -1.280429
     29          6           0       -9.981777   -0.434856   -0.902154
     30          6           0      -12.344316    2.385183   -1.369170
     31          6           0      -12.415952   -0.784222   -1.676498
     32          6           0      -12.362896   -1.245630   -3.149035
     33          7           0       -7.301592   -1.393398   -0.148009
     34          6           0       -8.321684   -2.270410   -0.444238
     35          6           0       -7.816484   -3.612904   -0.556501
     36          6           0       -6.439694   -3.502892   -0.188227
     37          6           0       -6.141516   -2.132516    0.013590
     38          6           0       -8.630143   -4.758310   -0.821301
     39          6           0       -5.292957   -4.287160    0.100777
     40          8           0       -5.272120   -5.554029    0.173986
     41          6           0       -4.194060   -3.281903    0.538205
     42          6           0       -3.607008   -3.598092    1.902666
     43          8           0       -3.822190   -2.940606    2.882437
     44          8           0       -2.813930   -4.601209    1.779075
     45          6           0       -2.183803   -5.166213    3.039446
     46          6           0        2.918000   -0.565886   -1.107312
     47          6           0        4.170377   -0.325326   -0.426101
     48          6           0        5.066606    0.464014   -0.854441
     49          6           0        4.993316    1.241229   -2.124444
     50          6           0        6.509920    0.543179   -0.218831
     51          6           0        7.649912   -0.139391   -1.001962
     52          6           0        8.980859   -0.131198   -0.099448
     53          6           0       10.216625   -0.454722   -0.833262
     54          6           0       10.193174   -1.969736   -1.417134
     55          6           0       11.409011   -0.171740    0.059996
     56          6           0       12.769498   -0.511764   -0.612286
     57          6           0       13.946805   -0.113962    0.254199
     58          6           0       15.346696   -0.289748   -0.398177
     59          6           0       15.634797   -1.883222   -0.711772
     60          6           0       16.441084    0.389965    0.453367
     61          6           0       17.792448    0.574875   -0.215438
     62          6           0       18.934587    1.203074    0.664300
     63          6           0       20.257516    1.355127    0.128657
     64          6           0       20.305837    2.018625   -1.253524
     65          6           0       21.217312    2.036177    1.135258
     66          1           0       -3.901787    3.466527    1.344255
     67          1           0      -10.009601    3.825755   -0.500673
     68          1           0      -10.373992   -2.513908   -1.026341
     69          1           0       -2.793679   -1.255539    1.889840
     70          1           0       -2.454459    1.625578    0.981416
     71          1           0       -1.687684    1.065277    3.321945
     72          1           0       -3.399184    2.286365    3.494564
     73          1           0       -3.360647    0.379396    3.710667
     74          1           0       -1.988643   -1.521004   -0.500300
     75          1           0       -2.131295    0.311466   -0.481126
     76          1           0       -0.189842    0.481118    1.005035
     77          1           0       -0.119757   -1.005135    1.362044
     78          1           0       -5.772794    6.724184    0.537071
     79          1           0       -5.364818    6.372105    2.259935
     80          1           0       -4.619427    5.486074    0.770564
     81          1           0       -9.291924    6.242333   -0.689363
     82          1           0       -9.218423    7.875218    0.267161
     83          1           0       -7.760188    7.514930    1.422569
     84          1           0      -12.307797    3.081185   -2.338234
     85          1           0      -13.373557    1.829747   -1.520592
     86          1           0      -12.439432    3.255389   -0.386015
     87          1           0      -12.249009   -1.509261   -0.921057
     88          1           0      -13.361197   -0.087271   -1.512315
     89          1           0      -13.219867   -1.718369   -3.707849
     90          1           0      -12.118022   -0.137777   -3.499749
     91          1           0      -11.433684   -1.786524   -3.231559
     92          1           0       -8.535428   -4.844537   -2.055208
     93          1           0       -8.257227   -5.717898   -0.323531
     94          1           0       -9.891161   -4.535687   -0.618891
     95          1           0       -3.359908   -3.661069   -0.220499
     96          1           0       -1.726298   -4.327710    3.512050
     97          1           0       -2.934992   -5.482405    3.696225
     98          1           0       -1.601756   -5.961500    2.774635
     99          1           0        2.867419   -1.767977   -1.526816
    100          1           0        2.761529    0.180446   -1.942796
    101          1           0        4.447803   -1.097519    0.554689
    102          1           0        3.938511    1.232291   -2.502618
    103          1           0        5.082756    2.125725   -2.014970
    104          1           0        5.760135    0.800079   -2.947998
    105          1           0        6.811787    1.664556   -0.370988
    106          1           0        6.550680    0.047431    0.987478
    107          1           0        7.217092   -1.336116   -1.380247
    108          1           0        7.775033    0.416884   -1.839157
    109          1           0        8.961445    0.844884    0.324833
    110          1           0        8.624134   -0.689825    0.765381
    111          1           0       10.273592    0.198153   -1.830215
    112          1           0        9.338407   -2.254148   -1.993028
    113          1           0       11.155753   -2.421576   -1.899699
    114          1           0        9.914055   -2.611133   -0.510803
    115          1           0       11.737357    0.672369    0.507984
    116          1           0       11.369884   -0.754835    0.898805
    117          1           0       12.869246   -1.517249   -1.112257
    118          1           0       12.867236    0.159540   -1.550637
    119          1           0       13.823771    0.980050    0.409645
    120          1           0       14.041781   -0.688923    1.269736
    121          1           0       15.449798    0.179917   -1.471130
    122          1           0       15.601298   -2.447660    0.345291
    123          1           0       14.799952   -2.183420   -1.111217
    124          1           0       16.615203   -2.142103   -1.037239
    125          1           0       16.066995    1.367182    0.754550
    126          1           0       16.490192   -0.082368    1.433800
    127          1           0       18.280723   -0.429440   -0.341121
    128          1           0       17.761599    1.047129   -1.132891
    129          1           0       18.569801    2.270968    1.029330
    130          1           0       19.060918    0.629207    1.559489
    131          1           0       20.705150    0.363896   -0.040340
    132          1           0       19.945649    2.899695   -1.283591
    133          1           0       21.389601    2.311930   -1.483240
    134          1           0       19.939534    1.351779   -2.122130
    135          1           0       21.076308    1.507737    2.110196
    136          1           0       22.176090    1.994592    0.750145
    137          1           0       20.802878    2.976526    1.554165
 ---------------------------------------------------------------------

 SCF Done:  E(RCAM-B3LYP) =  -2932.53646842     A.U. after   18 cycles

 Excitation energies and oscillator strengths:

 Excited State   1:      Singlet-A      2.0766 eV  597.06 nm  f=0.1872  <S**2>=0.000
     240 -> 242       -0.16308
     240 -> 243        0.26347
     241 -> 242        0.61425
     241 -> 243        0.12713
 This state for optimization and/or second-order correction.
 Total Energy, E(TD-HF/TD-KS) =  -2932.46015493
 Copying the excited state density for this state as the 1-particle RhoCI density.

 The electronic state is 1-A.
 Alpha  occ. eigenvalues --  -46.83209 -19.27040 -19.26160 -19.20513 -19.20423
 Alpha  occ. eigenvalues --  -19.18796 -14.41333 -14.39517 -14.38972 -14.38389
 Alpha  occ. eigenvalues --  -10.39195 -10.38836 -10.33975 -10.33267 -10.31476
 Alpha  occ. eigenvalues --  -10.31455 -10.31370 -10.30432 -10.29573 -10.29362
 Alpha  occ. eigenvalues --  -10.29072 -10.29002 -10.28765 -10.28733 -10.28685
 Alpha  occ. eigenvalues --  -10.28391 -10.28258 -10.28255 -10.28207 -10.28009
 Alpha  occ. eigenvalues --  -10.27913 -10.27840 -10.27802 -10.27728 -10.27499
 Alpha  occ. eigenvalues --  -10.27262 -10.27155 -10.27121 -10.26943 -10.26884
 Alpha  occ. eigenvalues --  -10.26771 -10.26754 -10.26698 -10.26547 -10.26531
 Alpha  occ. eigenvalues --  -10.26470 -10.26218 -10.26213 -10.26025 -10.26016
 Alpha  occ. eigenvalues --  -10.25812 -10.25777 -10.25668 -10.25663 -10.25621
 Alpha  occ. eigenvalues --  -10.25544 -10.25166 -10.24705 -10.24688 -10.24612
 Alpha  occ. eigenvalues --  -10.24245 -10.24210 -10.24092 -10.23816 -10.23587
 Alpha  occ. eigenvalues --   -3.12355  -1.87060  -1.86596  -1.86539  -1.19609
 Alpha  occ. eigenvalues --   -1.17781  -1.09936  -1.08308  -1.07144  -1.03898
 Alpha  occ. eigenvalues --   -1.03184  -1.02280  -1.01344  -0.94153  -0.92229
 Alpha  occ. eigenvalues --   -0.90822  -0.90304  -0.90232  -0.89727  -0.89478
 Alpha  occ. eigenvalues --   -0.88307  -0.88266  -0.87119  -0.86742  -0.85923
 Alpha  occ. eigenvalues --   -0.85539  -0.84796  -0.84165  -0.83095  -0.82430
 Alpha  occ. eigenvalues --   -0.82240  -0.81491  -0.80850  -0.79898  -0.78349
 Alpha  occ. eigenvalues --   -0.78196  -0.77597  -0.76631  -0.76279  -0.76036
 Alpha  occ. eigenvalues --   -0.75675  -0.75305  -0.74184  -0.73826  -0.72114
 Alpha  occ. eigenvalues --   -0.71617  -0.70763  -0.69869  -0.69617  -0.68249
 Alpha  occ. eigenvalues --   -0.66967  -0.66607  -0.65523  -0.65117  -0.65008
 Alpha  occ. eigenvalues --   -0.64633  -0.63842  -0.62755  -0.62460  -0.62362
 Alpha  occ. eigenvalues --   -0.61579  -0.61293  -0.60351  -0.59857  -0.58742
 Alpha  occ. eigenvalues --   -0.58422  -0.58133  -0.57904  -0.57261  -0.56307
 Alpha  occ. eigenvalues --   -0.56123  -0.55779  -0.55205  -0.55139  -0.54882
 Alpha  occ. eigenvalues --   -0.54554  -0.54331  -0.54232  -0.53796  -0.52798
 Alpha  occ. eigenvalues --   -0.52429  -0.52356  -0.52180  -0.52083  -0.52040
 Alpha  occ. eigenvalues --   -0.51834  -0.51154  -0.50920  -0.50815  -0.50647
 Alpha  occ. eigenvalues --   -0.50524  -0.50257  -0.49932  -0.49799  -0.49642
 Alpha  occ. eigenvalues --   -0.49378  -0.49176  -0.48890  -0.48857  -0.48672
 Alpha  occ. eigenvalues --   -0.48461  -0.47843  -0.47684  -0.47562  -0.47013
 Alpha  occ. eigenvalues --   -0.46804  -0.46545  -0.46414  -0.46093  -0.45888
 Alpha  occ. eigenvalues --   -0.45666  -0.45542  -0.45360  -0.45170  -0.44765
 Alpha  occ. eigenvalues --   -0.44631  -0.44284  -0.43973  -0.43951  -0.43764
 Alpha  occ. eigenvalues --   -0.43630  -0.43591  -0.43213  -0.43068  -0.42897
 Alpha  occ. eigenvalues --   -0.42527  -0.42462  -0.42221  -0.42037  -0.41903
 Alpha  occ. eigenvalues --   -0.41723  -0.41637  -0.41573  -0.41514  -0.41216
 Alpha  occ. eigenvalues --   -0.40707  -0.40582  -0.40524  -0.40481  -0.40384
 Alpha  occ. eigenvalues --   -0.39905  -0.39674  -0.39557  -0.39528  -0.38933
 Alpha  occ. eigenvalues --   -0.38797  -0.38751  -0.37858  -0.37792  -0.37705
 Alpha  occ. eigenvalues --   -0.37631  -0.37182  -0.37017  -0.36643  -0.36493
 Alpha  occ. eigenvalues --   -0.36339  -0.36140  -0.35941  -0.35834  -0.35676
 Alpha  occ. eigenvalues --   -0.35456  -0.34921  -0.34641  -0.34248  -0.33757
 Alpha  occ. eigenvalues --   -0.33621  -0.33139  -0.32050  -0.30943  -0.30793
 Alpha  occ. eigenvalues --   -0.29039  -0.28261  -0.27387  -0.27065  -0.23049
 Alpha  occ. eigenvalues --   -0.21524
 Alpha virt. eigenvalues --   -0.06429  -0.04005   0.01141   0.03343   0.05840
 Alpha virt. eigenvalues --    0.06413   0.06819   0.07041   0.07131   0.07356
 Alpha virt. eigenvalues --    0.08394   0.10077   0.10724   0.10754   0.11425

 Mulliken charges:
               1
     1  Mg   0.805177
     2  C    0.119385
     3  C   -0.211892
     4  C   -0.144408
     5  C   -0.169531
     6  N   -0.655455
     7  C    0.318753
     8  C   -0.192675
     9  C   -0.166228
    10  C    0.331700
    11  C   -0.304549
    12  C   -0.156883
    13  C   -0.260484
    14  C    0.599249
    15  O   -0.483966
    16  O   -0.476952
    17  N   -0.689444
    18  C    0.306823
    19  C    0.070587
    20  C    0.031354
    21  C    0.262186
    22  C   -0.386098
    23  C   -0.136537
    24  C   -0.210052
    25  N   -0.654757
    26  C    0.295637
    27  C    0.059459
    28  C   -0.006075
    29  C    0.264693
    30  C   -0.361436
    31  C   -0.223905
    32  C   -0.295085
    33  N   -0.750190
    34  C    0.275335
    35  C    0.070101
    36  C    0.012346
    37  C    0.311131
    38  C   -0.378804
    39  C    0.330684
    40  O   -0.507405
    41  C   -0.363616
    42  C    0.649744
    43  O   -0.485206
    44  O   -0.448614
    45  C   -0.093959
    46  C    0.012495
    47  C   -0.087877
    48  C    0.115669
    49  C   -0.336597
    50  C   -0.213195
    51  C   -0.151547
    52  C   -0.179506
    53  C   -0.051064
    54  C   -0.323724
    55  C   -0.157887
    56  C   -0.197309
    57  C   -0.181222
    58  C   -0.063574
    59  C   -0.308544
    60  C   -0.167081
    61  C   -0.180867
    62  C   -0.162149
    63  C   -0.051769
    64  C   -0.303882
    65  C   -0.311686
    66  H    0.090536
    67  H    0.080207
    68  H    0.094957
    69  H    0.120948
    70  H    0.106203
    71  H    0.110380
    72  H    0.122570
    73  H    0.132785
    74  H    0.134666
    75  H    0.107968
    76  H    0.137426
    77  H    0.137297
    78  H    0.140233
    79  H    0.097653
    80  H    0.097241
    81  H    0.120001
    82  H    0.072636
    83  H    0.107859
    84  H    0.109293
    85  H    0.107259
    86  H    0.080773
    87  H    0.107996
    88  H    0.088657
    89  H    0.111944
    90  H    0.098134
    91  H    0.114554
    92  H    0.115512
    93  H    0.155978
    94  H    0.086747
    95  H    0.163145
    96  H    0.142990
    97  H    0.151190
    98  H    0.144508
    99  H    0.104566
   100  H    0.118730
   101  H    0.073865
   102  H    0.091096
   103  H    0.128798
   104  H    0.112259
   105  H    0.086449
   106  H    0.061674
   107  H    0.044631
   108  H    0.107059
   109  H    0.106598
   110  H    0.102591
   111  H    0.074133
   112  H    0.117647
   113  H    0.101360
   114  H    0.089986
   115  H    0.099859
   116  H    0.103033
   117  H    0.090854
   118  H    0.078277
   119  H    0.095577
   120  H    0.083587
   121  H    0.066992
   122  H    0.062321
   123  H    0.114982
   124  H    0.115428
   125  H    0.085760
   126  H    0.087927
   127  H    0.084060
   128  H    0.104586
   129  H    0.055453
   130  H    0.091103
   131  H    0.082862
   132  H    0.115460
   133  H    0.075276
   134  H    0.093152
   135  H    0.091736
   136  H    0.111361
   137  H    0.099848
 Sum of Mulliken charges =   0.00000

 Dipole moment (field-independent basis, Debye):
    X=              3.2650    Y=              4.3258    Z=              1.1405  Tot=              5.5384
 Quadrupole moment (field-independent basis, Debye-Ang):
   XX=           -371.7322   YY=           -387.9443   ZZ=           -396.5684
   XY=            -17.5991   XZ=             12.4784   YZ=             -9.0521

 Normal termination of Gaussian 09 at Fri Jul  5 07:41:32 2019.
