 Gaussian 16, Revision A.03,
 Gaussian 16:  ES64L-G16RevA.03 25-Dec-2016

 ----------------------------------------------------------------------
 # td=(NStates=1) iop(3/107=0140000000,3/108=0140000000) CAM-B3LYP/6-31
 G(d,p)
 ----------------------------------------------------------------------

 --
 TD
 --
 Symbolic Z-matrix:
 Charge =  0 Multiplicity = 1

                         Standard orientation:
 ---------------------------------------------------------------------
 Center     Atomic      Atomic             Coordinates (Angstroms)
 Number     Number       Type             X           Y           Z
 ---------------------------------------------------------------------
      1         12           0       -7.231099    0.655952   -0.025100
      2          6           0       -4.848760   -2.044657    0.389536
      3          6           0       -4.831497    2.754693    1.261263
      4          6           0       -9.371703    3.155563   -0.347678
      5          6           0       -9.564570   -1.750865   -0.927439
      6          7           0       -5.056664    0.323315    0.694186
      7          6           0       -4.313435   -0.785861    0.810751
      8          6           0       -2.944442   -0.506646    1.297017
      9          6           0       -3.035390    1.022693    1.771153
     10          6           0       -4.407548    1.484437    1.176991
     11          6           0       -2.994890    0.996940    3.326713
     12          6           0       -1.862060   -0.615165    0.184317
     13          6           0       -0.424406   -0.455559    0.652694
     14          6           0        0.564032   -0.623551   -0.533252
     15          8           0        0.243416   -0.888041   -1.620816
     16          8           0        1.783725   -0.311376   -0.171853
     17          7           0       -7.116268    2.617544    0.398644
     18          6           0       -6.086202    3.395464    0.851404
     19          6           0       -6.347992    4.750700    0.811191
     20          6           0       -7.678061    4.906440    0.504550
     21          6           0       -8.133906    3.465401    0.221461
     22          6           0       -5.361009    5.892655    1.179371
     23          6           0       -8.534034    6.060209    0.173741
     24          6           0       -8.378991    7.345017    0.800254
     25          7           0       -9.121351    0.756812   -0.533425
     26          6           0       -9.813417    1.854092   -0.691411
     27          6           0      -11.149521    1.575818   -1.182640
     28          6           0      -11.214082    0.145681   -1.410510
     29          6           0       -9.889888   -0.363537   -0.959623
     30          6           0      -12.196705    2.570377   -1.408312
     31          6           0      -12.357310   -0.608105   -1.924508
     32          6           0      -12.053357   -1.040324   -3.427534
     33          7           0       -7.272730   -1.438394   -0.254846
     34          6           0       -8.261154   -2.255588   -0.642426
     35          6           0       -7.840068   -3.681386   -0.517118
     36          6           0       -6.506638   -3.574082   -0.171403
     37          6           0       -6.222901   -2.286405    0.001010
     38          6           0       -8.749588   -4.895874   -0.869930
     39          6           0       -5.428008   -4.408129    0.211295
     40          8           0       -5.317469   -5.637066    0.273114
     41          6           0       -4.280663   -3.473928    0.494281
     42          6           0       -3.690115   -3.671713    1.823803
     43          8           0       -3.848295   -3.095265    2.823362
     44          8           0       -2.874775   -4.887706    1.751686
     45          6           0       -2.380512   -5.243325    3.022398
     46          6           0        2.837266   -0.521678   -1.079528
     47          6           0        4.174087   -0.487507   -0.436325
     48          6           0        5.163789    0.387898   -0.866763
     49          6           0        5.104962    1.344119   -2.023728
     50          6           0        6.520148    0.355955   -0.139896
     51          6           0        7.751393   -0.015256   -0.943445
     52          6           0        8.945823   -0.001556   -0.107345
     53          6           0       10.279584   -0.502599   -0.755083
     54          6           0        9.936351   -1.963673   -1.244379
     55          6           0       11.475494   -0.192982    0.064288
     56          6           0       12.788904   -0.397353   -0.706671
     57          6           0       14.021539   -0.124248    0.130263
     58          6           0       15.318072   -0.146305   -0.593108
     59          6           0       15.585860   -1.553019   -1.156727
     60          6           0       16.477647    0.372457    0.365992
     61          6           0       17.773948    0.398210   -0.246362
     62          6           0       18.846879    1.044296    0.736761
     63          6           0       20.283527    1.228285    0.141280
     64          6           0       20.376828    2.082370   -1.075592
     65          6           0       21.103568    1.832922    1.314973
     66          1           0       -4.085954    3.446566    1.894341
     67          1           0      -10.101134    3.823542   -0.697557
     68          1           0      -10.398357   -2.276639   -1.001711
     69          1           0       -2.584548   -0.989550    2.234429
     70          1           0       -2.254776    1.649868    1.308471
     71          1           0       -1.983038    0.838990    3.639511
     72          1           0       -3.143023    1.898858    3.500986
     73          1           0       -3.829132    0.408417    3.593642
     74          1           0       -2.160235   -1.607298   -0.375683
     75          1           0       -2.165292    0.070759   -0.634577
     76          1           0       -0.060705    0.551303    1.124706
     77          1           0       -0.151000   -1.255379    1.306914
     78          1           0       -5.764858    6.615477    0.610657
     79          1           0       -5.364157    5.877768    2.310986
     80          1           0       -4.446320    5.636904    0.831836
     81          1           0       -9.322464    5.856170   -0.514550
     82          1           0       -9.127767    7.998421    0.414932
     83          1           0       -7.477112    7.495202    1.525805
     84          1           0      -11.887581    3.278733   -2.287297
     85          1           0      -13.141486    1.967876   -1.790604
     86          1           0      -12.257277    3.146012   -0.609909
     87          1           0      -12.422596   -1.578453   -1.360052
     88          1           0      -13.352936   -0.173038   -1.891551
     89          1           0      -12.584676   -1.826325   -3.905515
     90          1           0      -11.851015   -0.197085   -3.941035
     91          1           0      -10.927906   -1.615943   -3.175344
     92          1           0       -9.166829   -4.685506   -2.127503
     93          1           0       -8.048770   -5.794885   -0.750593
     94          1           0       -9.520475   -4.758559   -0.180575
     95          1           0       -3.509005   -3.673743   -0.281609
     96          1           0       -1.490351   -4.563800    3.296521
     97          1           0       -3.181138   -5.455700    3.730619
     98          1           0       -2.015123   -6.281206    2.900940
     99          1           0        2.553830   -1.486730   -1.675139
    100          1           0        2.817483    0.247740   -1.889035
    101          1           0        4.277440   -0.923691    0.529604
    102          1           0        4.038146    1.543315   -2.608636
    103          1           0        5.462625    2.225288   -1.712653
    104          1           0        5.929563    1.181063   -2.665868
    105          1           0        6.807019    1.316856    0.403466
    106          1           0        6.303741   -0.458013    0.646627
    107          1           0        7.362543   -0.915271   -1.530738
    108          1           0        8.072487    0.649085   -1.873210
    109          1           0        9.036935    1.135638    0.148885
    110          1           0        8.656449   -0.560962    0.828283
    111          1           0       10.546192    0.079363   -1.839926
    112          1           0        9.020139   -2.032107   -1.808377
    113          1           0       10.736146   -2.384865   -1.764479
    114          1           0        9.850120   -2.628239   -0.425964
    115          1           0       11.502751    0.845315    0.409871
    116          1           0       11.563216   -0.818922    1.038551
    117          1           0       12.798486   -1.387402   -1.259766
    118          1           0       12.763651    0.368064   -1.548380
    119          1           0       13.874948    0.836597    0.468102
    120          1           0       13.868675   -0.814400    1.062224
    121          1           0       15.267694    0.438610   -1.529670
    122          1           0       15.730246   -2.328503   -0.515649
    123          1           0       14.768586   -1.820186   -1.896695
    124          1           0       16.449194   -1.598831   -1.733473
    125          1           0       16.129155    1.263517    0.923021
    126          1           0       16.309491   -0.376324    1.190412
    127          1           0       18.184698   -0.648059   -0.408744
    128          1           0       17.534425    1.008150   -1.122746
    129          1           0       18.218754    1.986876    1.174936
    130          1           0       18.955570    0.600926    1.635746
    131          1           0       20.738684    0.222004   -0.046338
    132          1           0       19.947141    2.896773   -0.781950
    133          1           0       21.414115    2.381141   -1.349216
    134          1           0       19.908038    1.675426   -1.837112
    135          1           0       21.134866    1.125437    2.107797
    136          1           0       22.112840    1.881853    0.885634
    137          1           0       20.919158    2.924080    1.416247
 ---------------------------------------------------------------------

 SCF Done:  E(RCAM-B3LYP) =  -2933.50757265     A.U. after   16 cycles

 Excitation energies and oscillator strengths:

 Excited State   1:      Singlet-A      1.9472 eV  636.72 nm  f=0.2849  <S**2>=0.000
     240 -> 243       -0.23476
     241 -> 242        0.65674
 This state for optimization and/or second-order correction.
 Total Energy, E(TD-HF/TD-DFT) =  -2933.43601351
 Copying the excited state density for this state as the 1-particle RhoCI density.

 The electronic state is 1-A.
 Alpha  occ. eigenvalues --  -46.80723 -19.21638 -19.19197 -19.17971 -19.15923
 Alpha  occ. eigenvalues --  -19.15691 -14.37277 -14.35937 -14.35088 -14.35077
 Alpha  occ. eigenvalues --  -10.33890 -10.33350 -10.29779 -10.27441 -10.26382
 Alpha  occ. eigenvalues --  -10.25710 -10.25504 -10.25485 -10.25484 -10.25334
 Alpha  occ. eigenvalues --  -10.24945 -10.24286 -10.24174 -10.24122 -10.24038
 Alpha  occ. eigenvalues --  -10.24029 -10.23942 -10.23651 -10.23593 -10.23583
 Alpha  occ. eigenvalues --  -10.23537 -10.23041 -10.22930 -10.22928 -10.22846
 Alpha  occ. eigenvalues --  -10.22803 -10.22751 -10.22529 -10.22454 -10.22451
 Alpha  occ. eigenvalues --  -10.22441 -10.22240 -10.22207 -10.22185 -10.22104
 Alpha  occ. eigenvalues --  -10.22018 -10.21991 -10.21862 -10.21710 -10.21474
 Alpha  occ. eigenvalues --  -10.21396 -10.21367 -10.21342 -10.20978 -10.20923
 Alpha  occ. eigenvalues --  -10.20836 -10.20812 -10.20259 -10.20047 -10.20041
 Alpha  occ. eigenvalues --  -10.19634 -10.19245 -10.18739 -10.18513 -10.17340
 Alpha  occ. eigenvalues --   -3.09249  -1.84183  -1.83706  -1.83668  -1.15295
 Alpha  occ. eigenvalues --   -1.12601  -1.06265  -1.04985  -1.03880  -0.99864
 Alpha  occ. eigenvalues --   -0.99528  -0.97761  -0.97176  -0.88490  -0.86498
 Alpha  occ. eigenvalues --   -0.85771  -0.84533  -0.84372  -0.83898  -0.83772
 Alpha  occ. eigenvalues --   -0.83515  -0.83293  -0.82663  -0.81449  -0.81279
 Alpha  occ. eigenvalues --   -0.80607  -0.79604  -0.79146  -0.78648  -0.77755
 Alpha  occ. eigenvalues --   -0.77370  -0.76110  -0.75631  -0.74920  -0.73626
 Alpha  occ. eigenvalues --   -0.73474  -0.72561  -0.72070  -0.71919  -0.71691
 Alpha  occ. eigenvalues --   -0.70976  -0.70153  -0.70046  -0.68837  -0.67846
 Alpha  occ. eigenvalues --   -0.66701  -0.65759  -0.65531  -0.64909  -0.64305
 Alpha  occ. eigenvalues --   -0.63311  -0.61678  -0.60942  -0.60215  -0.59828
 Alpha  occ. eigenvalues --   -0.59663  -0.59377  -0.59013  -0.58539  -0.57779
 Alpha  occ. eigenvalues --   -0.57224  -0.56486  -0.56230  -0.55969  -0.55275
 Alpha  occ. eigenvalues --   -0.54612  -0.54329  -0.53699  -0.53256  -0.53150
 Alpha  occ. eigenvalues --   -0.52176  -0.51235  -0.51113  -0.50984  -0.50722
 Alpha  occ. eigenvalues --   -0.50402  -0.50333  -0.49923  -0.49792  -0.49343
 Alpha  occ. eigenvalues --   -0.49035  -0.48873  -0.48753  -0.48265  -0.48048
 Alpha  occ. eigenvalues --   -0.47834  -0.47725  -0.47680  -0.47484  -0.47265
 Alpha  occ. eigenvalues --   -0.47187  -0.46812  -0.46642  -0.46404  -0.46122
 Alpha  occ. eigenvalues --   -0.45784  -0.45612  -0.45507  -0.45371  -0.45114
 Alpha  occ. eigenvalues --   -0.44664  -0.44578  -0.44405  -0.44304  -0.44157
 Alpha  occ. eigenvalues --   -0.43989  -0.43784  -0.43346  -0.43134  -0.42864
 Alpha  occ. eigenvalues --   -0.42545  -0.42357  -0.42049  -0.41839  -0.41674
 Alpha  occ. eigenvalues --   -0.41587  -0.41510  -0.41458  -0.41068  -0.40950
 Alpha  occ. eigenvalues --   -0.40694  -0.40450  -0.40342  -0.40181  -0.39929
 Alpha  occ. eigenvalues --   -0.39788  -0.39534  -0.39193  -0.39051  -0.38931
 Alpha  occ. eigenvalues --   -0.38809  -0.38651  -0.38478  -0.38236  -0.38087
 Alpha  occ. eigenvalues --   -0.38027  -0.37740  -0.37544  -0.37428  -0.37055
 Alpha  occ. eigenvalues --   -0.37003  -0.36654  -0.36564  -0.36409  -0.36184
 Alpha  occ. eigenvalues --   -0.36031  -0.35663  -0.35152  -0.34886  -0.34831
 Alpha  occ. eigenvalues --   -0.34479  -0.34282  -0.33705  -0.33389  -0.33217
 Alpha  occ. eigenvalues --   -0.32990  -0.32913  -0.32587  -0.32517  -0.32070
 Alpha  occ. eigenvalues --   -0.31966  -0.31665  -0.31158  -0.30584  -0.30429
 Alpha  occ. eigenvalues --   -0.30017  -0.29947  -0.29851  -0.28404  -0.27011
 Alpha  occ. eigenvalues --   -0.26865  -0.26526  -0.25379  -0.24987  -0.21521
 Alpha  occ. eigenvalues --   -0.19721
 Alpha virt. eigenvalues --   -0.07405  -0.04416  -0.00173   0.01431   0.03084
 Alpha virt. eigenvalues --    0.03711   0.04215   0.05356   0.05698   0.06215
 Alpha virt. eigenvalues --    0.06781   0.08070   0.09392   0.09600   0.09831

 Mulliken charges:
               1
     1  Mg   0.840804
     2  C    0.015410
     3  C   -0.210528
     4  C   -0.152309
     5  C   -0.146421
     6  N   -0.623552
     7  C    0.332740
     8  C   -0.165156
     9  C   -0.176132
    10  C    0.330272
    11  C   -0.288407
    12  C   -0.165352
    13  C   -0.268021
    14  C    0.583821
    15  O   -0.441564
    16  O   -0.443732
    17  N   -0.694300
    18  C    0.302206
    19  C   -0.019598
    20  C    0.017735
    21  C    0.297605
    22  C   -0.339632
    23  C   -0.101038
    24  C   -0.244819
    25  N   -0.745479
    26  C    0.338497
    27  C    0.003276
    28  C    0.047226
    29  C    0.261628
    30  C   -0.370706
    31  C   -0.277435
    32  C   -0.296390
    33  N   -0.697159
    34  C    0.277926
    35  C   -0.018078
    36  C    0.066040
    37  C    0.292240
    38  C   -0.339971
    39  C    0.350863
    40  O   -0.473352
    41  C   -0.313370
    42  C    0.624133
    43  O   -0.421141
    44  O   -0.484109
    45  C   -0.072917
    46  C    0.011862
    47  C   -0.137470
    48  C    0.122840
    49  C   -0.363450
    50  C   -0.234352
    51  C   -0.159878
    52  C   -0.160945
    53  C   -0.036897
    54  C   -0.324956
    55  C   -0.162617
    56  C   -0.192216
    57  C   -0.148514
    58  C   -0.069056
    59  C   -0.320648
    60  C   -0.175000
    61  C   -0.162620
    62  C   -0.161992
    63  C   -0.075022
    64  C   -0.293822
    65  C   -0.316578
    66  H    0.072583
    67  H    0.070644
    68  H    0.073035
    69  H    0.121395
    70  H    0.094040
    71  H    0.109608
    72  H    0.107743
    73  H    0.132334
    74  H    0.098701
    75  H    0.115922
    76  H    0.124731
    77  H    0.139180
    78  H    0.128558
    79  H    0.126001
    80  H    0.124842
    81  H    0.100588
    82  H    0.110914
    83  H    0.116399
    84  H    0.106061
    85  H    0.102231
    86  H    0.137130
    87  H    0.104610
    88  H    0.108797
    89  H    0.114610
    90  H    0.128195
    91  H    0.059912
    92  H    0.089121
    93  H    0.150580
    94  H    0.144071
    95  H    0.173470
    96  H    0.099152
    97  H    0.121781
    98  H    0.112389
    99  H    0.111440
   100  H    0.102294
   101  H    0.092005
   102  H    0.101038
   103  H    0.133191
   104  H    0.127918
   105  H    0.091432
   106  H    0.095206
   107  H    0.094326
   108  H    0.074152
   109  H    0.078577
   110  H    0.091360
   111  H    0.044539
   112  H    0.114735
   113  H    0.104129
   114  H    0.105137
   115  H    0.096751
   116  H    0.074403
   117  H    0.090593
   118  H    0.077493
   119  H    0.094009
   120  H    0.074656
   121  H    0.077725
   122  H    0.107805
   123  H    0.089933
   124  H    0.101673
   125  H    0.084945
   126  H    0.080461
   127  H    0.095166
   128  H    0.098452
   129  H    0.051490
   130  H    0.101307
   131  H    0.077829
   132  H    0.114836
   133  H    0.087605
   134  H    0.109921
   135  H    0.107858
   136  H    0.090044
   137  H    0.103818
 Sum of Mulliken charges =  -0.00000

 Dipole moment (field-independent basis, Debye):
    X=              1.7790    Y=              5.5296    Z=              0.0957  Tot=              5.8095
 Quadrupole moment (field-independent basis, Debye-Ang):
   XX=           -326.7537   YY=           -400.1558   ZZ=           -397.6186
   XY=            -23.6851   XZ=             12.9805   YZ=             -2.9070

 Normal termination of Gaussian 16 at Sun Sep 15 17:18:33 2019.
