 Gaussian 16, Revision A.03,
 Gaussian 16:  ES64L-G16RevA.03 25-Dec-2016

 ----------------------------------------------------------------------
 # td=(NStates=1) iop(3/107=0140000000,3/108=0140000000) CAM-B3LYP/6-31
 G(d,p)
 ----------------------------------------------------------------------

 --
 TD
 --
 Symbolic Z-matrix:
 Charge =  0 Multiplicity = 1

                         Standard orientation:
 ---------------------------------------------------------------------
 Center     Atomic      Atomic             Coordinates (Angstroms)
 Number     Number       Type             X           Y           Z
 ---------------------------------------------------------------------
      1         12           0       -7.112304    0.609188   -0.030133
      2          6           0       -4.862240   -1.980486    0.515107
      3          6           0       -4.771019    2.793038    1.200778
      4          6           0       -9.370867    3.143033   -0.392350
      5          6           0       -9.591775   -1.731192   -1.037412
      6          7           0       -5.080882    0.393919    0.692249
      7          6           0       -4.265032   -0.694366    0.743182
      8          6           0       -2.960712   -0.419537    1.171906
      9          6           0       -3.024385    1.012762    1.746465
     10          6           0       -4.257433    1.467607    1.106746
     11          6           0       -2.970171    1.093153    3.310674
     12          6           0       -1.809062   -0.605650    0.152546
     13          6           0       -0.438474   -0.512532    0.560700
     14          6           0        0.521573   -0.800608   -0.578156
     15          8           0        0.274452   -1.175316   -1.662432
     16          8           0        1.794632   -0.444222   -0.209856
     17          7           0       -7.021488    2.665431    0.429743
     18          6           0       -5.991753    3.436086    0.927087
     19          6           0       -6.294254    4.788649    0.888544
     20          6           0       -7.697782    4.841305    0.496078
     21          6           0       -8.132869    3.488718    0.125525
     22          6           0       -5.417347    5.936308    1.286275
     23          6           0       -8.538816    6.103791    0.233838
     24          6           0       -8.360375    7.323371    0.665414
     25          7           0       -9.007448    0.687232   -0.623631
     26          6           0       -9.817126    1.885434   -0.739204
     27          6           0      -11.203186    1.468411   -1.176660
     28          6           0      -11.208615    0.175530   -1.308551
     29          6           0       -9.893475   -0.310406   -0.983382
     30          6           0      -12.236564    2.565627   -1.396641
     31          6           0      -12.311407   -0.705197   -1.711300
     32          6           0      -12.330771   -1.037991   -3.210667
     33          7           0       -7.207176   -1.414644   -0.269860
     34          6           0       -8.260636   -2.164846   -0.644085
     35          6           0       -7.895798   -3.589932   -0.620174
     36          6           0       -6.523942   -3.530943   -0.144879
     37          6           0       -6.202550   -2.156337    0.108181
     38          6           0       -8.816790   -4.736183   -0.899786
     39          6           0       -5.348201   -4.293607    0.222914
     40          8           0       -5.334188   -5.486379    0.300035
     41          6           0       -4.247229   -3.295952    0.563761
     42          6           0       -3.651094   -3.680682    1.915489
     43          8           0       -3.907738   -3.159565    3.011965
     44          8           0       -2.884281   -4.855542    1.876477
     45          6           0       -2.420411   -5.245062    3.157808
     46          6           0        2.745874   -0.903272   -1.248490
     47          6           0        4.114663   -0.450082   -0.504904
     48          6           0        5.079978    0.224112   -1.144124
     49          6           0        5.082613    0.908772   -2.505855
     50          6           0        6.332645    0.428462   -0.336170
     51          6           0        7.698330   -0.182363   -0.947320
     52          6           0        9.000050   -0.146765   -0.025412
     53          6           0       10.167129   -0.522699   -0.838079
     54          6           0       10.241267   -1.966164   -1.320102
     55          6           0       11.497257   -0.347892    0.012289
     56          6           0       12.849030   -0.481032   -0.777227
     57          6           0       13.954363   -0.128780    0.224646
     58          6           0       15.325675   -0.143185   -0.497821
     59          6           0       15.628068   -1.442455   -0.964036
     60          6           0       16.508634    0.322041    0.508607
     61          6           0       17.721258    0.753362   -0.115371
     62          6           0       18.880403    1.283558    0.761567
     63          6           0       20.248914    1.343414    0.159066
     64          6           0       20.280065    2.234303   -1.008093
     65          6           0       21.157419    1.800520    1.357555
     66          1           0       -3.954162    3.404768    1.649721
     67          1           0      -10.106569    3.980014   -0.596376
     68          1           0      -10.202849   -2.375212   -1.455956
     69          1           0       -2.795241   -1.118240    1.987061
     70          1           0       -2.164853    1.514261    1.371830
     71          1           0       -1.954562    0.603514    3.593653
     72          1           0       -3.216449    2.145247    3.780584
     73          1           0       -3.741499    0.514121    3.533641
     74          1           0       -1.981011   -1.660820   -0.333712
     75          1           0       -2.198961   -0.155121   -0.818205
     76          1           0       -0.309809    0.570483    0.850208
     77          1           0       -0.220533   -1.363513    1.345373
     78          1           0       -5.525919    6.809417    0.591608
     79          1           0       -5.585925    6.151127    2.377774
     80          1           0       -4.325419    5.658630    1.280868
     81          1           0       -9.413694    6.057116   -0.414561
     82          1           0       -9.202563    8.146353    0.478355
     83          1           0       -7.385315    7.563276    1.384144
     84          1           0      -12.045158    3.354215   -2.267754
     85          1           0      -13.196188    2.205144   -1.690258
     86          1           0      -12.337363    3.313464   -0.448242
     87          1           0      -12.472301   -1.668370   -1.164259
     88          1           0      -13.229505   -0.202813   -1.446820
     89          1           0      -13.342105   -1.429972   -3.789757
     90          1           0      -12.099872   -0.003772   -3.667696
     91          1           0      -11.455448   -1.958316   -3.541263
     92          1           0       -9.345742   -4.549594   -1.900340
     93          1           0       -8.340450   -5.776194   -1.032028
     94          1           0       -9.627360   -4.744063   -0.132200
     95          1           0       -3.234658   -3.378148    0.055171
     96          1           0       -1.723865   -4.505800    3.615621
     97          1           0       -3.275233   -5.562693    3.748279
     98          1           0       -1.874380   -6.027234    3.044280
     99          1           0        2.560337   -1.911972   -1.563038
    100          1           0        2.788443   -0.212142   -2.029806
    101          1           0        4.311499   -0.836612    0.495450
    102          1           0        4.139806    0.660631   -2.952555
    103          1           0        4.925105    2.190874   -2.315625
    104          1           0        6.138662    0.731728   -3.144714
    105          1           0        6.636786    1.417936   -0.105614
    106          1           0        6.254411   -0.029969    0.699160
    107          1           0        7.827433   -1.377856   -1.136582
    108          1           0        7.794179    0.300761   -1.919298
    109          1           0        9.033787    0.833399    0.421230
    110          1           0        8.867692   -0.666886    0.834406
    111          1           0       10.337581    0.216901   -1.710486
    112          1           0        9.559125   -2.282346   -2.007618
    113          1           0       11.219624   -2.284730   -1.853851
    114          1           0        9.966895   -2.795072   -0.397994
    115          1           0       11.412269    0.854725    0.104848
    116          1           0       11.489533   -0.937533    0.934851
    117          1           0       13.132085   -1.506914   -0.912952
    118          1           0       12.682954    0.058790   -1.770897
    119          1           0       13.699585    1.032108    0.507686
    120          1           0       13.992100   -0.878978    0.938762
    121          1           0       15.402439    0.651482   -1.382868
    122          1           0       15.742885   -2.211348   -0.138379
    123          1           0       14.751446   -1.790594   -1.663161
    124          1           0       16.514473   -1.448609   -1.438747
    125          1           0       16.031997    1.267297    0.792344
    126          1           0       16.694794   -0.368099    1.131112
    127          1           0       18.372198   -0.111918   -0.785052
    128          1           0       17.506692    1.476081   -0.905070
    129          1           0       18.475434    2.310616    0.864386
    130          1           0       18.658142    0.611605    1.590801
    131          1           0       20.450194    0.193608   -0.277312
    132          1           0       19.857516    3.206957   -0.804758
    133          1           0       21.246120    2.285851   -1.461622
    134          1           0       19.721332    1.700670   -1.663114
    135          1           0       21.245184    1.042732    2.140187
    136          1           0       22.090863    1.955485    0.938086
    137          1           0       20.898677    2.783434    1.912654
 ---------------------------------------------------------------------

 SCF Done:  E(RCAM-B3LYP) =  -2933.44089817     A.U. after   16 cycles

 Excitation energies and oscillator strengths:

 Excited State   1:      Singlet-A      1.9481 eV  636.42 nm  f=0.2315  <S**2>=0.000
     240 -> 243        0.24462
     241 -> 242        0.66068
 This state for optimization and/or second-order correction.
 Total Energy, E(TD-HF/TD-DFT) =  -2933.36930547
 Copying the excited state density for this state as the 1-particle RhoCI density.

 The electronic state is 1-A.
 Alpha  occ. eigenvalues --  -46.80132 -19.21636 -19.21611 -19.17736 -19.16849
 Alpha  occ. eigenvalues --  -19.15412 -14.38100 -14.36054 -14.35063 -14.34626
 Alpha  occ. eigenvalues --  -10.34802 -10.34541 -10.29717 -10.27376 -10.26311
 Alpha  occ. eigenvalues --  -10.26095 -10.25521 -10.25447 -10.25264 -10.25194
 Alpha  occ. eigenvalues --  -10.24988 -10.24887 -10.24811 -10.24795 -10.24712
 Alpha  occ. eigenvalues --  -10.24464 -10.24447 -10.24237 -10.23989 -10.23475
 Alpha  occ. eigenvalues --  -10.23281 -10.23227 -10.23191 -10.23169 -10.23136
 Alpha  occ. eigenvalues --  -10.23052 -10.23015 -10.22698 -10.22694 -10.22614
 Alpha  occ. eigenvalues --  -10.22591 -10.22541 -10.22420 -10.22402 -10.22392
 Alpha  occ. eigenvalues --  -10.22316 -10.22260 -10.22246 -10.22191 -10.22165
 Alpha  occ. eigenvalues --  -10.21703 -10.21648 -10.21620 -10.21560 -10.21431
 Alpha  occ. eigenvalues --  -10.21363 -10.20929 -10.20842 -10.20604 -10.20143
 Alpha  occ. eigenvalues --  -10.19860 -10.19797 -10.19152 -10.18719 -10.18537
 Alpha  occ. eigenvalues --   -3.08659  -1.83604  -1.83165  -1.83026  -1.14047
 Alpha  occ. eigenvalues --   -1.11534  -1.06869  -1.05270  -1.02958  -1.00286
 Alpha  occ. eigenvalues --   -0.99147  -0.96952  -0.96008  -0.88753  -0.86567
 Alpha  occ. eigenvalues --   -0.86510  -0.85454  -0.84881  -0.84779  -0.84045
 Alpha  occ. eigenvalues --   -0.83528  -0.82640  -0.82060  -0.81739  -0.81184
 Alpha  occ. eigenvalues --   -0.80475  -0.79542  -0.78691  -0.77999  -0.77780
 Alpha  occ. eigenvalues --   -0.76740  -0.76382  -0.75786  -0.74605  -0.73621
 Alpha  occ. eigenvalues --   -0.72992  -0.72466  -0.72218  -0.71639  -0.71475
 Alpha  occ. eigenvalues --   -0.70754  -0.70488  -0.69837  -0.68972  -0.68052
 Alpha  occ. eigenvalues --   -0.67417  -0.66067  -0.64500  -0.64214  -0.64054
 Alpha  occ. eigenvalues --   -0.62334  -0.61424  -0.60674  -0.60370  -0.60245
 Alpha  occ. eigenvalues --   -0.60015  -0.58890  -0.58520  -0.58290  -0.57602
 Alpha  occ. eigenvalues --   -0.56997  -0.56878  -0.56063  -0.55541  -0.54818
 Alpha  occ. eigenvalues --   -0.54613  -0.54100  -0.53841  -0.53682  -0.52654
 Alpha  occ. eigenvalues --   -0.52551  -0.51892  -0.51854  -0.51417  -0.51370
 Alpha  occ. eigenvalues --   -0.51282  -0.50943  -0.50703  -0.50026  -0.49738
 Alpha  occ. eigenvalues --   -0.49250  -0.48949  -0.48872  -0.48406  -0.47896
 Alpha  occ. eigenvalues --   -0.47850  -0.47354  -0.47141  -0.47058  -0.46761
 Alpha  occ. eigenvalues --   -0.46511  -0.46419  -0.46287  -0.46060  -0.45830
 Alpha  occ. eigenvalues --   -0.45711  -0.45424  -0.45120  -0.44877  -0.44728
 Alpha  occ. eigenvalues --   -0.44563  -0.44530  -0.44316  -0.43643  -0.43496
 Alpha  occ. eigenvalues --   -0.43265  -0.43029  -0.42965  -0.42594  -0.42299
 Alpha  occ. eigenvalues --   -0.42248  -0.42184  -0.41861  -0.41701  -0.41615
 Alpha  occ. eigenvalues --   -0.41492  -0.41325  -0.41242  -0.41043  -0.40887
 Alpha  occ. eigenvalues --   -0.40754  -0.40724  -0.40410  -0.40375  -0.40140
 Alpha  occ. eigenvalues --   -0.39897  -0.39823  -0.39713  -0.39500  -0.39458
 Alpha  occ. eigenvalues --   -0.38816  -0.38796  -0.38390  -0.38304  -0.38183
 Alpha  occ. eigenvalues --   -0.38025  -0.37915  -0.37465  -0.37414  -0.37389
 Alpha  occ. eigenvalues --   -0.36753  -0.36710  -0.36562  -0.35840  -0.35732
 Alpha  occ. eigenvalues --   -0.35546  -0.35430  -0.35145  -0.35038  -0.34781
 Alpha  occ. eigenvalues --   -0.34531  -0.34304  -0.33940  -0.33785  -0.33671
 Alpha  occ. eigenvalues --   -0.33273  -0.32811  -0.32413  -0.32352  -0.32141
 Alpha  occ. eigenvalues --   -0.32019  -0.31610  -0.31428  -0.30734  -0.30408
 Alpha  occ. eigenvalues --   -0.29957  -0.29407  -0.28453  -0.27855  -0.27544
 Alpha  occ. eigenvalues --   -0.27072  -0.26637  -0.26126  -0.24013  -0.21342
 Alpha  occ. eigenvalues --   -0.20086
 Alpha virt. eigenvalues --   -0.07526  -0.03927   0.00005   0.02381   0.03359
 Alpha virt. eigenvalues --    0.03485   0.03802   0.04575   0.04804   0.05089
 Alpha virt. eigenvalues --    0.06615   0.08096   0.08682   0.09146   0.09563

 Mulliken charges:
               1
     1  Mg   0.815760
     2  C    0.111578
     3  C   -0.207307
     4  C   -0.168726
     5  C   -0.121192
     6  N   -0.612660
     7  C    0.365691
     8  C   -0.190469
     9  C   -0.142060
    10  C    0.298438
    11  C   -0.289711
    12  C   -0.190487
    13  C   -0.254632
    14  C    0.607778
    15  O   -0.439629
    16  O   -0.486965
    17  N   -0.726309
    18  C    0.340490
    19  C    0.035976
    20  C   -0.036806
    21  C    0.322311
    22  C   -0.389409
    23  C   -0.043226
    24  C   -0.261563
    25  N   -0.704739
    26  C    0.264806
    27  C    0.074823
    28  C    0.058868
    29  C    0.293562
    30  C   -0.386410
    31  C   -0.261840
    32  C   -0.276271
    33  N   -0.745483
    34  C    0.276770
    35  C    0.022482
    36  C   -0.016047
    37  C    0.315256
    38  C   -0.387949
    39  C    0.372200
    40  O   -0.446234
    41  C   -0.346996
    42  C    0.593504
    43  O   -0.473872
    44  O   -0.458182
    45  C   -0.060452
    46  C    0.007451
    47  C   -0.147714
    48  C    0.160325
    49  C   -0.344244
    50  C   -0.242601
    51  C   -0.182012
    52  C   -0.173414
    53  C   -0.045409
    54  C   -0.301941
    55  C   -0.162763
    56  C   -0.181231
    57  C   -0.151917
    58  C   -0.061393
    59  C   -0.295786
    60  C   -0.144407
    61  C   -0.192337
    62  C   -0.132887
    63  C   -0.056522
    64  C   -0.300130
    65  C   -0.308264
    66  H    0.062598
    67  H    0.090517
    68  H    0.069925
    69  H    0.121897
    70  H    0.100567
    71  H    0.102090
    72  H    0.103345
    73  H    0.146711
    74  H    0.095538
    75  H    0.121664
    76  H    0.139703
    77  H    0.136019
    78  H    0.129811
    79  H    0.127948
    80  H    0.106523
    81  H    0.083546
    82  H    0.093274
    83  H    0.082488
    84  H    0.112056
    85  H    0.119390
    86  H    0.109829
    87  H    0.109257
    88  H    0.111492
    89  H    0.090983
    90  H    0.106153
    91  H    0.069143
    92  H    0.112476
    93  H    0.141535
    94  H    0.136096
    95  H    0.159167
    96  H    0.107475
    97  H    0.128862
    98  H    0.121666
    99  H    0.141551
   100  H    0.120789
   101  H    0.095371
   102  H    0.121667
   103  H    0.085196
   104  H    0.113002
   105  H    0.108354
   106  H    0.085619
   107  H    0.075824
   108  H    0.088314
   109  H    0.086215
   110  H    0.104652
   111  H    0.075154
   112  H    0.114665
   113  H    0.097846
   114  H    0.058744
   115  H    0.062181
   116  H    0.089880
   117  H    0.104715
   118  H    0.086234
   119  H    0.066617
   120  H    0.102333
   121  H    0.061885
   122  H    0.083729
   123  H    0.083768
   124  H    0.115343
   125  H    0.094363
   126  H    0.085781
   127  H    0.019961
   128  H    0.085380
   129  H    0.086862
   130  H    0.086764
   131  H    0.054030
   132  H    0.101339
   133  H    0.102051
   134  H    0.119320
   135  H    0.104493
   136  H    0.100045
   137  H    0.092751
 Sum of Mulliken charges =  -0.00000

 Dipole moment (field-independent basis, Debye):
    X=              1.2377    Y=              3.0660    Z=             -0.4707  Tot=              3.3397
 Quadrupole moment (field-independent basis, Debye-Ang):
   XX=           -347.3977   YY=           -401.7139   ZZ=           -398.6990
   XY=            -15.4049   XZ=             15.3046   YZ=             -3.4379

 Normal termination of Gaussian 16 at Fri Sep  6 16:50:36 2019.
