 Gaussian 09, Revision D.01,
 Gaussian 09:  ES64L-G09RevD.01 24-Apr-2013

 -------------------------------------
 # td=(NStates=1) CAM-B3LYP/6-31G(d,p)
 -------------------------------------

 --
 TD
 --
 Symbolic Z-matrix:
 Charge =  0 Multiplicity = 1

                         Standard orientation:
 ---------------------------------------------------------------------
 Center     Atomic      Atomic             Coordinates (Angstroms)
 Number     Number       Type             X           Y           Z
 ---------------------------------------------------------------------
      1         12           0       -7.112076    0.587455    0.097441
      2          6           0       -4.944910   -1.905822    0.458825
      3          6           0       -4.855093    2.879547    1.175907
      4          6           0       -9.458486    3.096551   -0.408667
      5          6           0       -9.638205   -1.790750   -0.816890
      6          7           0       -5.122507    0.441259    0.712270
      7          6           0       -4.348081   -0.707394    0.692985
      8          6           0       -2.971392   -0.400845    1.194032
      9          6           0       -3.067730    1.116186    1.680915
     10          6           0       -4.437606    1.504614    1.182597
     11          6           0       -2.992285    1.264671    3.250930
     12          6           0       -1.909980   -0.570148    0.104608
     13          6           0       -0.553903   -0.360942    0.555413
     14          6           0        0.472209   -0.659868   -0.671616
     15          8           0        0.162533   -0.999045   -1.774438
     16          8           0        1.759883   -0.347258   -0.226995
     17          7           0       -7.103055    2.606182    0.280434
     18          6           0       -6.013386    3.273241    0.763482
     19          6           0       -6.440214    4.730538    0.708104
     20          6           0       -7.695964    4.888755    0.322405
     21          6           0       -8.089813    3.469620   -0.032431
     22          6           0       -5.515089    5.907662    1.051203
     23          6           0       -8.635878    6.002504    0.179286
     24          6           0       -8.566647    7.149192    0.781696
     25          7           0       -9.165948    0.627031   -0.412208
     26          6           0       -9.938590    1.655096   -0.719767
     27          6           0      -11.229989    1.455845   -0.992133
     28          6           0      -11.194914    0.096844   -1.309760
     29          6           0       -9.940056   -0.483971   -0.844362
     30          6           0      -12.319799    2.442957   -1.303221
     31          6           0      -12.268017   -0.774915   -1.908929
     32          6           0      -12.074072   -1.150896   -3.260258
     33          7           0       -7.284345   -1.433155   -0.261879
     34          6           0       -8.331283   -2.307556   -0.584150
     35          6           0       -7.875563   -3.642100   -0.488170
     36          6           0       -6.465505   -3.581409   -0.116015
     37          6           0       -6.141916   -2.170629    0.029478
     38          6           0       -8.639232   -4.960899   -0.711834
     39          6           0       -5.328168   -4.385374    0.275549
     40          8           0       -5.169519   -5.641646    0.286082
     41          6           0       -4.274491   -3.270773    0.498064
     42          6           0       -3.589151   -3.558576    1.961338
     43          8           0       -3.779416   -3.066339    2.959644
     44          8           0       -2.603748   -4.515593    1.746209
     45          6           0       -2.181697   -5.160613    2.998634
     46          6           0        2.799958   -0.611331   -1.242321
     47          6           0        4.118694   -0.491317   -0.540657
     48          6           0        5.169983    0.368281   -0.931824
     49          6           0        5.211271    1.352411   -2.105892
     50          6           0        6.454068    0.365581   -0.059428
     51          6           0        7.718378   -0.097646   -0.982763
     52          6           0        9.075447   -0.151204   -0.184199
     53          6           0       10.259371   -0.409385   -0.946206
     54          6           0       10.232335   -1.847439   -1.589877
     55          6           0       11.459641   -0.139560   -0.085848
     56          6           0       12.843604   -0.411646   -0.715966
     57          6           0       13.953313   -0.141840    0.113118
     58          6           0       15.371853   -0.160816   -0.418006
     59          6           0       15.674616   -1.663190   -0.856054
     60          6           0       16.410359    0.365382    0.432441
     61          6           0       17.869840    0.373115   -0.189659
     62          6           0       18.812120    1.018077    0.856316
     63          6           0       20.220374    1.302656    0.245459
     64          6           0       20.269868    2.233745   -0.981568
     65          6           0       21.243123    1.791522    1.391762
     66          1           0       -4.229310    3.576285    1.615727
     67          1           0      -10.140947    3.852246   -0.386192
     68          1           0      -10.258500   -2.368498   -1.212947
     69          1           0       -2.489123   -1.089662    1.977627
     70          1           0       -2.294471    1.729133    1.082565
     71          1           0       -2.128803    0.780848    3.642371
     72          1           0       -3.213717    2.277345    3.622902
     73          1           0       -3.708286    0.656207    3.845825
     74          1           0       -1.899718   -1.532067   -0.378512
     75          1           0       -2.365524    0.035834   -0.692658
     76          1           0       -0.440062    0.618356    0.985851
     77          1           0       -0.354297   -1.082413    1.489765
     78          1           0       -5.771833    6.889301    0.631315
     79          1           0       -5.589150    6.293893    2.117084
     80          1           0       -4.536738    5.778180    0.915783
     81          1           0       -9.426732    5.730970   -0.676619
     82          1           0       -9.342343    7.855782    0.533658
     83          1           0       -7.743204    7.417106    1.451789
     84          1           0      -12.334774    2.861537   -2.437220
     85          1           0      -13.283985    1.773796   -0.967294
     86          1           0      -12.059029    3.432126   -0.685800
     87          1           0      -12.526596   -1.606207   -1.122050
     88          1           0      -13.081537   -0.093056   -1.851138
     89          1           0      -13.011236   -1.938240   -3.557107
     90          1           0      -12.054365   -0.296625   -3.805054
     91          1           0      -11.348522   -1.892691   -3.457524
     92          1           0       -9.087531   -4.958412   -1.696208
     93          1           0       -8.003477   -5.792055   -0.341461
     94          1           0       -9.678465   -4.942929   -0.052922
     95          1           0       -3.325653   -3.632162   -0.033866
     96          1           0       -1.906861   -4.511442    3.853941
     97          1           0       -3.215134   -5.567761    3.421236
     98          1           0       -1.546715   -6.152213    2.776919
     99          1           0        2.846219   -1.643941   -1.555961
    100          1           0        2.739819   -0.017072   -2.144492
    101          1           0        4.383197   -1.142988    0.379162
    102          1           0        4.139334    1.366918   -2.618311
    103          1           0        5.678359    2.245415   -1.807734
    104          1           0        5.692949    0.752400   -2.982866
    105          1           0        6.664726    1.263828    0.338165
    106          1           0        6.348892   -0.382328    0.661771
    107          1           0        7.528821   -0.841487   -1.595005
    108          1           0        7.741119    0.715501   -1.676383
    109          1           0        9.058983    0.827048    0.233422
    110          1           0        8.927800   -0.843226    0.621300
    111          1           0       10.169227    0.379192   -1.812927
    112          1           0        9.322430   -1.908375   -2.084906
    113          1           0       11.029965   -2.072137   -2.414821
    114          1           0       10.640091   -2.646582   -0.905904
    115          1           0       11.378608    0.856994    0.258046
    116          1           0       11.448850   -0.662805    0.764058
    117          1           0       12.791203   -1.334394   -0.901957
    118          1           0       13.076145    0.122679   -1.642475
    119          1           0       13.691063    0.970151    0.428949
    120          1           0       13.855527   -0.580153    1.195016
    121          1           0       15.155238    0.388657   -1.462663
    122          1           0       15.732080   -2.224635   -0.048307
    123          1           0       14.879008   -1.950239   -1.403323
    124          1           0       16.411148   -2.004587   -1.566920
    125          1           0       16.311470    1.487758    0.699748
    126          1           0       16.453549   -0.046455    1.386446
    127          1           0       18.203321   -0.624951   -0.619001
    128          1           0       17.669621    0.937497   -0.963667
    129          1           0       18.455035    1.926521    1.138867
    130          1           0       18.878166    0.322404    1.661467
    131          1           0       20.639357    0.184227   -0.089519
    132          1           0       19.980809    3.261751   -0.722388
    133          1           0       21.334872    2.362377   -1.186407
    134          1           0       19.594687    1.731805   -1.805692
    135          1           0       20.909042    1.380889    2.438930
    136          1           0       22.316757    1.518773    0.998340
    137          1           0       21.157255    2.826986    1.438097
 ---------------------------------------------------------------------

 SCF Done:  E(RCAM-B3LYP) =  -2932.58649314     A.U. after   17 cycles

 Excitation energies and oscillator strengths:

 Excited State   1:      Singlet-A      2.2914 eV  541.08 nm  f=0.1332  <S**2>=0.000
     240 -> 242       -0.26916
     240 -> 243        0.24772
     241 -> 242        0.53390
     241 -> 243        0.26661
 This state for optimization and/or second-order correction.
 Total Energy, E(TD-HF/TD-KS) =  -2932.50228482
 Copying the excited state density for this state as the 1-particle RhoCI density.

 The electronic state is 1-A.
 Alpha  occ. eigenvalues --  -46.84484 -19.26430 -19.24936 -19.22736 -19.22028
 Alpha  occ. eigenvalues --  -19.18605 -14.42887 -14.39716 -14.38839 -14.38593
 Alpha  occ. eigenvalues --  -10.40390 -10.38515 -10.33868 -10.32655 -10.32331
 Alpha  occ. eigenvalues --  -10.31766 -10.30755 -10.30558 -10.30476 -10.29810
 Alpha  occ. eigenvalues --  -10.29594 -10.29447 -10.28598 -10.28504 -10.28347
 Alpha  occ. eigenvalues --  -10.28328 -10.28288 -10.28226 -10.27917 -10.27697
 Alpha  occ. eigenvalues --  -10.27696 -10.27613 -10.27591 -10.27076 -10.26938
 Alpha  occ. eigenvalues --  -10.26902 -10.26858 -10.26789 -10.26733 -10.26625
 Alpha  occ. eigenvalues --  -10.26571 -10.26556 -10.26322 -10.26212 -10.26106
 Alpha  occ. eigenvalues --  -10.26100 -10.25847 -10.25656 -10.25578 -10.25466
 Alpha  occ. eigenvalues --  -10.25431 -10.25374 -10.25369 -10.25251 -10.25133
 Alpha  occ. eigenvalues --  -10.25103 -10.24450 -10.24366 -10.24256 -10.24142
 Alpha  occ. eigenvalues --  -10.23832 -10.23779 -10.23350 -10.22484 -10.22023
 Alpha  occ. eigenvalues --   -3.13451  -1.88169  -1.87689  -1.87619  -1.19790
 Alpha  occ. eigenvalues --   -1.17345  -1.10009  -1.09979  -1.06648  -1.05168
 Alpha  occ. eigenvalues --   -1.04065  -1.03586  -1.01304  -0.93384  -0.92329
 Alpha  occ. eigenvalues --   -0.91012  -0.90621  -0.90131  -0.90109  -0.89235
 Alpha  occ. eigenvalues --   -0.89211  -0.88127  -0.88026  -0.86083  -0.85619
 Alpha  occ. eigenvalues --   -0.85161  -0.84700  -0.84141  -0.83570  -0.82153
 Alpha  occ. eigenvalues --   -0.81461  -0.81079  -0.80133  -0.79882  -0.78521
 Alpha  occ. eigenvalues --   -0.77964  -0.76686  -0.76500  -0.76341  -0.75837
 Alpha  occ. eigenvalues --   -0.75130  -0.74638  -0.74497  -0.73192  -0.72908
 Alpha  occ. eigenvalues --   -0.72194  -0.70955  -0.70091  -0.69693  -0.68224
 Alpha  occ. eigenvalues --   -0.67787  -0.67227  -0.65903  -0.65554  -0.65360
 Alpha  occ. eigenvalues --   -0.64652  -0.63713  -0.63568  -0.62661  -0.61475
 Alpha  occ. eigenvalues --   -0.60864  -0.60669  -0.60345  -0.59648  -0.59122
 Alpha  occ. eigenvalues --   -0.58674  -0.58169  -0.57788  -0.56637  -0.56312
 Alpha  occ. eigenvalues --   -0.56227  -0.56006  -0.55408  -0.55159  -0.55110
 Alpha  occ. eigenvalues --   -0.54717  -0.54310  -0.53994  -0.53904  -0.53803
 Alpha  occ. eigenvalues --   -0.53547  -0.53009  -0.52743  -0.52446  -0.52061
 Alpha  occ. eigenvalues --   -0.51837  -0.51405  -0.51210  -0.51085  -0.50943
 Alpha  occ. eigenvalues --   -0.50428  -0.50303  -0.49968  -0.49929  -0.49459
 Alpha  occ. eigenvalues --   -0.49283  -0.49245  -0.49051  -0.48865  -0.48678
 Alpha  occ. eigenvalues --   -0.48401  -0.48271  -0.47675  -0.47459  -0.47267
 Alpha  occ. eigenvalues --   -0.47139  -0.46956  -0.46703  -0.46521  -0.46423
 Alpha  occ. eigenvalues --   -0.46175  -0.45962  -0.45855  -0.45502  -0.45235
 Alpha  occ. eigenvalues --   -0.44972  -0.44854  -0.44514  -0.44457  -0.44292
 Alpha  occ. eigenvalues --   -0.44278  -0.43927  -0.43824  -0.43671  -0.43313
 Alpha  occ. eigenvalues --   -0.43044  -0.42864  -0.42661  -0.42558  -0.42259
 Alpha  occ. eigenvalues --   -0.42027  -0.41901  -0.41798  -0.41576  -0.41381
 Alpha  occ. eigenvalues --   -0.41326  -0.41012  -0.40985  -0.40546  -0.40285
 Alpha  occ. eigenvalues --   -0.40185  -0.40024  -0.39990  -0.39809  -0.39689
 Alpha  occ. eigenvalues --   -0.39513  -0.38675  -0.38244  -0.38032  -0.37793
 Alpha  occ. eigenvalues --   -0.37365  -0.37107  -0.37055  -0.36983  -0.36781
 Alpha  occ. eigenvalues --   -0.36518  -0.36358  -0.36011  -0.35980  -0.35571
 Alpha  occ. eigenvalues --   -0.35465  -0.34906  -0.34494  -0.33957  -0.33794
 Alpha  occ. eigenvalues --   -0.33621  -0.32998  -0.32810  -0.30554  -0.29046
 Alpha  occ. eigenvalues --   -0.28868  -0.28395  -0.28255  -0.27329  -0.23306
 Alpha  occ. eigenvalues --   -0.21516
 Alpha virt. eigenvalues --   -0.05593  -0.03984   0.00835   0.03996   0.05576
 Alpha virt. eigenvalues --    0.05759   0.06057   0.06440   0.07037   0.07618
 Alpha virt. eigenvalues --    0.08558   0.10275   0.11113   0.11260   0.11997

 Mulliken charges:
               1
     1  Mg   0.810907
     2  C    0.157409
     3  C   -0.186273
     4  C   -0.189087
     5  C   -0.096834
     6  N   -0.652497
     7  C    0.303597
     8  C   -0.179200
     9  C   -0.148686
    10  C    0.337153
    11  C   -0.326520
    12  C   -0.168430
    13  C   -0.268526
    14  C    0.616778
    15  O   -0.436473
    16  O   -0.490187
    17  N   -0.738584
    18  C    0.413091
    19  C   -0.046768
    20  C    0.066346
    21  C    0.265079
    22  C   -0.390567
    23  C   -0.050852
    24  C   -0.248837
    25  N   -0.658322
    26  C    0.300696
    27  C    0.053197
    28  C   -0.040882
    29  C    0.309699
    30  C   -0.339369
    31  C   -0.233923
    32  C   -0.277671
    33  N   -0.736046
    34  C    0.255436
    35  C   -0.001895
    36  C   -0.004820
    37  C    0.249230
    38  C   -0.366489
    39  C    0.384366
    40  O   -0.510806
    41  C   -0.367596
    42  C    0.588955
    43  O   -0.395037
    44  O   -0.479426
    45  C   -0.098187
    46  C    0.014573
    47  C   -0.156388
    48  C    0.100292
    49  C   -0.353331
    50  C   -0.225632
    51  C   -0.216663
    52  C   -0.159834
    53  C   -0.046908
    54  C   -0.320184
    55  C   -0.188580
    56  C   -0.142925
    57  C   -0.178076
    58  C   -0.051494
    59  C   -0.322225
    60  C   -0.177723
    61  C   -0.186342
    62  C   -0.163922
    63  C   -0.052399
    64  C   -0.305850
    65  C   -0.317403
    66  H    0.088120
    67  H    0.063638
    68  H    0.062090
    69  H    0.109699
    70  H    0.113721
    71  H    0.121104
    72  H    0.114655
    73  H    0.131337
    74  H    0.130727
    75  H    0.108043
    76  H    0.133383
    77  H    0.116469
    78  H    0.122618
    79  H    0.108156
    80  H    0.120270
    81  H    0.094606
    82  H    0.106256
    83  H    0.106575
    84  H    0.114379
    85  H    0.112834
    86  H    0.107610
    87  H    0.100037
    88  H    0.097630
    89  H    0.064512
    90  H    0.122552
    91  H    0.122498
    92  H    0.129868
    93  H    0.157764
    94  H    0.085979
    95  H    0.175853
    96  H    0.136640
    97  H    0.111625
    98  H    0.125985
    99  H    0.133424
   100  H    0.121545
   101  H    0.091504
   102  H    0.097523
   103  H    0.131026
   104  H    0.123022
   105  H    0.109832
   106  H    0.104731
   107  H    0.104392
   108  H    0.091328
   109  H    0.093636
   110  H    0.091437
   111  H    0.066411
   112  H    0.111264
   113  H    0.087173
   114  H    0.103157
   115  H    0.088222
   116  H    0.100147
   117  H    0.103502
   118  H    0.083125
   119  H    0.063282
   120  H    0.062885
   121  H    0.058559
   122  H    0.111307
   123  H    0.102628
   124  H    0.096643
   125  H    0.074421
   126  H    0.096710
   127  H    0.087769
   128  H    0.110443
   129  H    0.096736
   130  H    0.099370
   131  H    0.047968
   132  H    0.099574
   133  H    0.107179
   134  H    0.101932
   135  H    0.091496
   136  H    0.094680
   137  H    0.110647
 Sum of Mulliken charges =   0.00000

 Dipole moment (field-independent basis, Debye):
    X=              1.2234    Y=              6.5842    Z=              0.6904  Tot=              6.7324
 Quadrupole moment (field-independent basis, Debye-Ang):
   XX=           -361.1716   YY=           -396.8613   ZZ=           -392.3193
   XY=            -31.8455   XZ=             10.0705   YZ=             -0.1783

 Normal termination of Gaussian 09 at Fri Jul  5 08:09:45 2019.
