 Gaussian 16, Revision A.03,
 Gaussian 16:  ES64L-G16RevA.03 25-Dec-2016

 ----------------------------------------------------------------------
 # td=(NStates=1) iop(3/107=0140000000,3/108=0140000000) CAM-B3LYP/6-31
 G(d,p)
 ----------------------------------------------------------------------

 --
 TD
 --
 Symbolic Z-matrix:
 Charge =  0 Multiplicity = 1

                         Standard orientation:
 ---------------------------------------------------------------------
 Center     Atomic      Atomic             Coordinates (Angstroms)
 Number     Number       Type             X           Y           Z
 ---------------------------------------------------------------------
      1         12           0       -7.106076    0.604062    0.123753
      2          6           0       -4.857610   -2.016720    0.566974
      3          6           0       -4.728871    2.834621    0.997496
      4          6           0       -9.414462    3.216434   -0.347580
      5          6           0       -9.548901   -1.644668   -0.832365
      6          7           0       -5.072691    0.509318    0.679749
      7          6           0       -4.327104   -0.741699    0.803416
      8          6           0       -2.894469   -0.476821    1.225779
      9          6           0       -2.996065    1.001260    1.693391
     10          6           0       -4.392221    1.488747    1.172336
     11          6           0       -3.077471    1.088642    3.195995
     12          6           0       -1.907415   -0.773900    0.065952
     13          6           0       -0.401719   -0.545104    0.554721
     14          6           0        0.601940   -0.872597   -0.585352
     15          8           0        0.276990   -1.158100   -1.795683
     16          8           0        1.829399   -0.561759   -0.178705
     17          7           0       -7.110835    2.655572    0.319580
     18          6           0       -5.981094    3.426339    0.749297
     19          6           0       -6.273156    4.726488    0.710470
     20          6           0       -7.547850    4.808441    0.325739
     21          6           0       -8.034694    3.543773    0.014286
     22          6           0       -5.380951    5.858403    1.071071
     23          6           0       -8.444240    6.096196    0.146335
     24          6           0       -8.386908    7.300035    0.735162
     25          7           0       -9.083971    0.846675   -0.595966
     26          6           0       -9.852802    1.942972   -0.589793
     27          6           0      -11.203855    1.546822   -1.022358
     28          6           0      -11.340180    0.265664   -1.309711
     29          6           0       -9.976250   -0.297429   -0.969050
     30          6           0      -12.348375    2.491227   -1.214284
     31          6           0      -12.470382   -0.657526   -1.658206
     32          6           0      -12.314882   -1.091803   -3.151796
     33          7           0       -7.207038   -1.308594   -0.126735
     34          6           0       -8.305727   -2.165731   -0.402229
     35          6           0       -7.851925   -3.518295   -0.467840
     36          6           0       -6.487918   -3.523537   -0.182940
     37          6           0       -6.216979   -2.189000    0.188111
     38          6           0       -8.640001   -4.668723   -0.932724
     39          6           0       -5.380482   -4.319285    0.092453
     40          8           0       -5.306940   -5.577407    0.190672
     41          6           0       -4.206322   -3.387874    0.454105
     42          6           0       -3.593433   -3.768246    1.772323
     43          8           0       -3.720622   -3.129727    2.899239
     44          8           0       -2.760150   -4.839245    1.693016
     45          6           0       -2.291714   -5.308831    2.904520
     46          6           0        2.799620   -0.871016   -1.209401
     47          6           0        4.191104   -0.634286   -0.566701
     48          6           0        5.138227    0.192064   -1.070638
     49          6           0        5.046308    0.990246   -2.339295
     50          6           0        6.313238    0.250702   -0.195231
     51          6           0        7.660522   -0.271836   -0.953382
     52          6           0        8.786482   -0.053215   -0.091528
     53          6           0       10.136098   -0.514208   -0.741260
     54          6           0       10.249827   -2.033260   -1.108557
     55          6           0       11.456683   -0.222835    0.137909
     56          6           0       12.780520   -0.376567   -0.611058
     57          6           0       13.942204    0.075611    0.279100
     58          6           0       15.315683   -0.119185   -0.483750
     59          6           0       15.618833   -1.497398   -0.994418
     60          6           0       16.378289    0.438896    0.433280
     61          6           0       17.785459    0.747587   -0.252701
     62          6           0       18.806452    1.305674    0.738192
     63          6           0       20.271729    1.299451    0.239226
     64          6           0       20.431905    2.028972   -1.136493
     65          6           0       21.091198    2.014032    1.223964
     66          1           0       -3.937721    3.440336    1.485418
     67          1           0      -10.033981    4.055634   -0.643025
     68          1           0      -10.376886   -2.377804   -1.156086
     69          1           0       -2.586259   -1.079276    1.856385
     70          1           0       -2.240320    1.695636    1.406075
     71          1           0       -2.103910    0.866869    3.813930
     72          1           0       -3.563417    2.126710    3.433702
     73          1           0       -3.744302    0.410555    3.647216
     74          1           0       -1.896791   -1.773305    0.145126
     75          1           0       -2.271566   -0.127424   -0.709168
     76          1           0       -0.215792    0.444975    0.877611
     77          1           0       -0.192460   -1.222799    1.276972
     78          1           0       -6.021746    6.846611    0.552510
     79          1           0       -5.432290    6.062432    2.321227
     80          1           0       -4.334552    5.669167    0.506058
     81          1           0       -9.364851    5.886025   -0.375523
     82          1           0       -9.407141    7.996685    0.516934
     83          1           0       -7.670354    7.401893    1.424628
     84          1           0      -12.012157    3.378227   -1.817114
     85          1           0      -13.347119    1.889624   -1.658333
     86          1           0      -12.563296    2.973269   -0.042219
     87          1           0      -12.513986   -1.524102   -1.124237
     88          1           0      -13.435785   -0.164443   -1.395026
     89          1           0      -12.993922   -1.726908   -3.614269
     90          1           0      -12.364019   -0.278074   -3.792875
     91          1           0      -11.213979   -1.512104   -3.216601
     92          1           0       -9.038489   -4.423549   -1.898945
     93          1           0       -8.073371   -5.566773   -0.949731
     94          1           0       -9.736198   -4.837294   -0.428630
     95          1           0       -3.319554   -3.500571   -0.448511
     96          1           0       -1.466183   -4.637721    3.176011
     97          1           0       -3.059133   -5.336527    3.709235
     98          1           0       -1.867553   -6.273960    2.539124
     99          1           0        2.310287   -1.804377   -1.598134
    100          1           0        2.604728   -0.131123   -1.985199
    101          1           0        4.417882   -1.220349    0.256185
    102          1           0        4.107761    0.903570   -2.607683
    103          1           0        5.502164    2.028757   -2.080011
    104          1           0        5.486994    0.458192   -3.120505
    105          1           0        6.714167    1.429659   -0.071706
    106          1           0        6.357178   -0.203176    0.809727
    107          1           0        7.556271   -1.485505   -0.968714
    108          1           0        7.954905   -0.012009   -2.071314
    109          1           0        8.940162    1.002523    0.099949
    110          1           0        8.722942   -0.686485    0.826375
    111          1           0       10.339214    0.109656   -1.703522
    112          1           0        9.565501   -2.050271   -2.014242
    113          1           0       11.259140   -2.236320   -1.475282
    114          1           0        9.825759   -2.777978   -0.285526
    115          1           0       11.454776    0.912275    0.370183
    116          1           0       11.287919   -0.621777    1.403888
    117          1           0       12.900495   -1.550039   -0.610877
    118          1           0       12.625916    0.217247   -1.546340
    119          1           0       13.972428    1.240570    0.270673
    120          1           0       13.749885   -0.573381    1.265344
    121          1           0       15.262584    0.430136   -1.468591
    122          1           0       15.827732   -2.003948    0.053387
    123          1           0       14.896207   -1.951699   -1.538257
    124          1           0       16.564999   -1.690983   -1.597677
    125          1           0       15.951883    1.300552    1.010005
    126          1           0       16.661256   -0.312993    1.104655
    127          1           0       18.126882   -0.350195   -0.733412
    128          1           0       17.653440    1.464315   -1.168619
    129          1           0       18.462353    2.319293    1.172730
    130          1           0       18.961287    0.942460    1.810097
    131          1           0       20.674426    0.294588    0.035059
    132          1           0       19.802980    3.049798   -1.037327
    133          1           0       21.406629    2.153808   -1.530253
    134          1           0       19.941961    1.485937   -1.914925
    135          1           0       21.228003    1.446133    2.174797
    136          1           0       22.150513    2.106915    1.104872
    137          1           0       20.859348    3.038335    1.626786
 ---------------------------------------------------------------------

 SCF Done:  E(RCAM-B3LYP) =  -2933.39970321     A.U. after   16 cycles

 Excitation energies and oscillator strengths:

 Excited State   1:      Singlet-A      1.9004 eV  652.41 nm  f=0.2759  <S**2>=0.000
     240 -> 243       -0.19755
     241 -> 242        0.67721
 This state for optimization and/or second-order correction.
 Total Energy, E(TD-HF/TD-DFT) =  -2933.32986509
 Copying the excited state density for this state as the 1-particle RhoCI density.

 The electronic state is 1-A.
 Alpha  occ. eigenvalues --  -46.79642 -19.22728 -19.22510 -19.16641 -19.16532
 Alpha  occ. eigenvalues --  -19.15210 -14.38246 -14.35834 -14.35646 -14.34682
 Alpha  occ. eigenvalues --  -10.35377 -10.34799 -10.29995 -10.27229 -10.26711
 Alpha  occ. eigenvalues --  -10.26501 -10.26481 -10.26403 -10.25939 -10.25710
 Alpha  occ. eigenvalues --  -10.25209 -10.25036 -10.24853 -10.24847 -10.24720
 Alpha  occ. eigenvalues --  -10.24646 -10.24210 -10.23981 -10.23597 -10.23589
 Alpha  occ. eigenvalues --  -10.23548 -10.23245 -10.23222 -10.23128 -10.23117
 Alpha  occ. eigenvalues --  -10.23001 -10.22975 -10.22842 -10.22691 -10.22641
 Alpha  occ. eigenvalues --  -10.22623 -10.22504 -10.22461 -10.22319 -10.22274
 Alpha  occ. eigenvalues --  -10.22252 -10.22080 -10.21801 -10.21755 -10.21742
 Alpha  occ. eigenvalues --  -10.21637 -10.21616 -10.21602 -10.21492 -10.21364
 Alpha  occ. eigenvalues --  -10.21364 -10.21044 -10.21033 -10.20919 -10.20861
 Alpha  occ. eigenvalues --  -10.20551 -10.20323 -10.20127 -10.19807 -10.19465
 Alpha  occ. eigenvalues --   -3.08345  -1.83277  -1.82803  -1.82777  -1.13426
 Alpha  occ. eigenvalues --   -1.13256  -1.03201  -1.01456  -1.01065  -1.00069
 Alpha  occ. eigenvalues --   -0.99065  -0.98245  -0.96310  -0.88310  -0.86743
 Alpha  occ. eigenvalues --   -0.85879  -0.85250  -0.84938  -0.84116  -0.83850
 Alpha  occ. eigenvalues --   -0.83451  -0.83310  -0.82573  -0.81798  -0.81219
 Alpha  occ. eigenvalues --   -0.80324  -0.79918  -0.79027  -0.78246  -0.77781
 Alpha  occ. eigenvalues --   -0.76917  -0.76619  -0.76373  -0.75358  -0.74211
 Alpha  occ. eigenvalues --   -0.73058  -0.72653  -0.72045  -0.71144  -0.70989
 Alpha  occ. eigenvalues --   -0.70541  -0.69708  -0.68829  -0.68658  -0.68137
 Alpha  occ. eigenvalues --   -0.67131  -0.66243  -0.65785  -0.64547  -0.64077
 Alpha  occ. eigenvalues --   -0.62217  -0.61675  -0.61523  -0.61192  -0.59610
 Alpha  occ. eigenvalues --   -0.59356  -0.59003  -0.58434  -0.57884  -0.57419
 Alpha  occ. eigenvalues --   -0.57197  -0.56784  -0.56523  -0.55986  -0.55714
 Alpha  occ. eigenvalues --   -0.55215  -0.54261  -0.54105  -0.53591  -0.52837
 Alpha  occ. eigenvalues --   -0.52734  -0.52204  -0.51758  -0.51629  -0.51241
 Alpha  occ. eigenvalues --   -0.51238  -0.50557  -0.50005  -0.49564  -0.49321
 Alpha  occ. eigenvalues --   -0.49148  -0.48945  -0.48578  -0.48355  -0.47834
 Alpha  occ. eigenvalues --   -0.47607  -0.47312  -0.47273  -0.47156  -0.46904
 Alpha  occ. eigenvalues --   -0.46746  -0.46371  -0.46162  -0.45972  -0.45711
 Alpha  occ. eigenvalues --   -0.45501  -0.45072  -0.45016  -0.44725  -0.44642
 Alpha  occ. eigenvalues --   -0.44257  -0.44135  -0.43929  -0.43873  -0.43703
 Alpha  occ. eigenvalues --   -0.43516  -0.43102  -0.42883  -0.42628  -0.42162
 Alpha  occ. eigenvalues --   -0.42047  -0.41888  -0.41612  -0.41313  -0.41166
 Alpha  occ. eigenvalues --   -0.40872  -0.40625  -0.40499  -0.40322  -0.40189
 Alpha  occ. eigenvalues --   -0.40060  -0.39918  -0.39858  -0.39664  -0.39576
 Alpha  occ. eigenvalues --   -0.39514  -0.39336  -0.39266  -0.39137  -0.38992
 Alpha  occ. eigenvalues --   -0.38719  -0.38496  -0.38392  -0.38170  -0.38161
 Alpha  occ. eigenvalues --   -0.38105  -0.37991  -0.37600  -0.37513  -0.37420
 Alpha  occ. eigenvalues --   -0.36920  -0.36828  -0.36479  -0.36362  -0.36147
 Alpha  occ. eigenvalues --   -0.35923  -0.35742  -0.35470  -0.34682  -0.34677
 Alpha  occ. eigenvalues --   -0.34131  -0.34086  -0.33827  -0.33807  -0.33576
 Alpha  occ. eigenvalues --   -0.32742  -0.32629  -0.32521  -0.32356  -0.32241
 Alpha  occ. eigenvalues --   -0.32019  -0.31646  -0.31152  -0.30702  -0.30300
 Alpha  occ. eigenvalues --   -0.30135  -0.29895  -0.29750  -0.28871  -0.27258
 Alpha  occ. eigenvalues --   -0.26704  -0.26645  -0.26192  -0.25801  -0.22080
 Alpha  occ. eigenvalues --   -0.20139
 Alpha virt. eigenvalues --   -0.07977  -0.03765  -0.01233   0.01217   0.02731
 Alpha virt. eigenvalues --    0.02946   0.03348   0.04262   0.05044   0.05351
 Alpha virt. eigenvalues --    0.05987   0.07985   0.08701   0.08716   0.09546

 Mulliken charges:
               1
     1  Mg   0.815744
     2  C    0.090282
     3  C   -0.189488
     4  C   -0.177694
     5  C   -0.198320
     6  N   -0.607694
     7  C    0.237046
     8  C   -0.095066
     9  C   -0.148252
    10  C    0.325435
    11  C   -0.312062
    12  C   -0.138828
    13  C   -0.281611
    14  C    0.582991
    15  O   -0.506222
    16  O   -0.439786
    17  N   -0.701173
    18  C    0.283851
    19  C    0.079755
    20  C   -0.006729
    21  C    0.321457
    22  C   -0.365279
    23  C   -0.061610
    24  C   -0.236257
    25  N   -0.680902
    26  C    0.393645
    27  C   -0.014573
    28  C    0.106626
    29  C    0.210841
    30  C   -0.362867
    31  C   -0.239198
    32  C   -0.321265
    33  N   -0.725726
    34  C    0.290974
    35  C    0.022821
    36  C    0.082791
    37  C    0.270981
    38  C   -0.390842
    39  C    0.332708
    40  O   -0.496866
    41  C   -0.325059
    42  C    0.628806
    43  O   -0.509319
    44  O   -0.418887
    45  C   -0.080610
    46  C   -0.019510
    47  C   -0.122049
    48  C    0.138745
    49  C   -0.339291
    50  C   -0.228941
    51  C   -0.172251
    52  C   -0.146150
    53  C   -0.070073
    54  C   -0.301293
    55  C   -0.158163
    56  C   -0.176523
    57  C   -0.163999
    58  C   -0.053617
    59  C   -0.303134
    60  C   -0.167466
    61  C   -0.175828
    62  C   -0.159593
    63  C   -0.039451
    64  C   -0.304722
    65  C   -0.323972
    66  H    0.076275
    67  H    0.083711
    68  H    0.084537
    69  H    0.093350
    70  H    0.100621
    71  H    0.094150
    72  H    0.089046
    73  H    0.141290
    74  H    0.111756
    75  H    0.121222
    76  H    0.139339
    77  H    0.136264
    78  H    0.091303
    79  H    0.105947
    80  H    0.114506
    81  H    0.080345
    82  H    0.094785
    83  H    0.102992
    84  H    0.122086
    85  H    0.096214
    86  H    0.083559
    87  H    0.126918
    88  H    0.096621
    89  H    0.111085
    90  H    0.121884
    91  H    0.097981
    92  H    0.132218
    93  H    0.148527
    94  H    0.098080
    95  H    0.160793
    96  H    0.113364
    97  H    0.140136
    98  H    0.121929
    99  H    0.135438
   100  H    0.124245
   101  H    0.087521
   102  H    0.118967
   103  H    0.112839
   104  H    0.138599
   105  H    0.061646
   106  H    0.115752
   107  H    0.073700
   108  H    0.086677
   109  H    0.094760
   110  H    0.093160
   111  H    0.064588
   112  H    0.092190
   113  H    0.110385
   114  H    0.090787
   115  H    0.065863
   116  H    0.034937
   117  H    0.098804
   118  H    0.100069
   119  H    0.091683
   120  H    0.090962
   121  H    0.073917
   122  H    0.072375
   123  H    0.112158
   124  H    0.095392
   125  H    0.082938
   126  H    0.104181
   127  H    0.065559
   128  H    0.091487
   129  H    0.084199
   130  H    0.085139
   131  H    0.092817
   132  H    0.076435
   133  H    0.103544
   134  H    0.099973
   135  H    0.085791
   136  H    0.099926
   137  H    0.100479
 Sum of Mulliken charges =  -0.00000

 Dipole moment (field-independent basis, Debye):
    X=              1.4300    Y=              3.7817    Z=             -0.0054  Tot=              4.0430
 Quadrupole moment (field-independent basis, Debye-Ang):
   XX=           -337.7110   YY=           -407.8343   ZZ=           -398.2088
   XY=            -21.0081   XZ=              9.8790   YZ=              0.3080

 Normal termination of Gaussian 16 at Mon Sep 16 06:21:13 2019.
