 Gaussian 16, Revision A.03,
 Gaussian 16:  ES64L-G16RevA.03 25-Dec-2016

 ----------------------------------------------------------------------
 # td=(NStates=1) iop(3/107=0140000000,3/108=0140000000) CAM-B3LYP/6-31
 G(d,p)
 ----------------------------------------------------------------------

 --
 TD
 --
 Symbolic Z-matrix:
 Charge =  0 Multiplicity = 1

                         Standard orientation:
 ---------------------------------------------------------------------
 Center     Atomic      Atomic             Coordinates (Angstroms)
 Number     Number       Type             X           Y           Z
 ---------------------------------------------------------------------
      1         12           0       -7.112292    0.576059    0.164095
      2          6           0       -4.877671   -1.956923    0.657809
      3          6           0       -4.781363    2.781407    1.219244
      4          6           0       -9.305445    3.131723   -0.431568
      5          6           0       -9.501473   -1.641960   -0.860920
      6          7           0       -5.163852    0.379562    0.817222
      7          6           0       -4.371030   -0.766836    0.938054
      8          6           0       -2.876367   -0.484822    1.362024
      9          6           0       -3.035834    1.014033    1.733279
     10          6           0       -4.391576    1.442941    1.205766
     11          6           0       -2.932679    1.245326    3.215479
     12          6           0       -1.987116   -0.657262    0.157573
     13          6           0       -0.619222   -0.461740    0.457849
     14          6           0        0.454678   -0.718730   -0.667241
     15          8           0        0.145221   -1.034725   -1.747413
     16          8           0        1.725492   -0.680659   -0.249713
     17          7           0       -6.989018    2.587255    0.237373
     18          6           0       -5.971816    3.359120    0.806853
     19          6           0       -6.371296    4.793394    0.833721
     20          6           0       -7.641319    4.916175    0.404438
     21          6           0       -8.091974    3.575392   -0.012265
     22          6           0       -5.238971    5.784750    1.186987
     23          6           0       -8.437992    6.067511    0.273361
     24          6           0       -8.339177    7.263105    0.976696
     25          7           0       -8.995597    0.731354   -0.768679
     26          6           0       -9.756974    1.913204   -0.706917
     27          6           0      -11.109291    1.612332   -1.194266
     28          6           0      -11.165350    0.254849   -1.355129
     29          6           0       -9.844121   -0.294507   -1.008778
     30          6           0      -12.182974    2.655090   -1.322080
     31          6           0      -12.312737   -0.509445   -1.736578
     32          6           0      -12.293601   -1.044157   -3.239715
     33          7           0       -7.247322   -1.435483   -0.079959
     34          6           0       -8.223351   -2.180311   -0.602442
     35          6           0       -7.860405   -3.559643   -0.581307
     36          6           0       -6.518984   -3.540935   -0.025312
     37          6           0       -6.212932   -2.171928    0.158245
     38          6           0       -8.609880   -4.842100   -0.826719
     39          6           0       -5.477000   -4.410558    0.170279
     40          8           0       -5.273094   -5.576049    0.095822
     41          6           0       -4.213093   -3.318530    0.692962
     42          6           0       -3.634731   -3.824566    1.858530
     43          8           0       -3.858795   -3.313898    3.031333
     44          8           0       -2.735987   -4.825342    1.742273
     45          6           0       -2.290526   -5.357709    2.993641
     46          6           0        2.710037   -0.798547   -1.261127
     47          6           0        3.998450   -0.543862   -0.730602
     48          6           0        4.962117    0.292006   -1.026337
     49          6           0        4.910844    1.233746   -2.313743
     50          6           0        6.317397    0.393546   -0.305076
     51          6           0        7.488735   -0.113980   -1.106573
     52          6           0        8.863763    0.009986   -0.306037
     53          6           0       10.209310   -0.469700   -0.997140
     54          6           0       10.131022   -1.920465   -1.518793
     55          6           0       11.376411   -0.279956   -0.029856
     56          6           0       12.793128   -0.465534   -0.633861
     57          6           0       13.918375   -0.079922    0.205243
     58          6           0       15.310217   -0.188724   -0.520467
     59          6           0       15.761532   -1.573771   -0.837753
     60          6           0       16.412708    0.436353    0.435283
     61          6           0       17.827805    0.603663   -0.191894
     62          6           0       18.804208    1.184806    0.869680
     63          6           0       20.296818    1.363142    0.412520
     64          6           0       20.421976    2.114396   -0.950539
     65          6           0       21.206134    1.878893    1.412807
     66          1           0       -3.879565    3.541754    1.361402
     67          1           0       -9.984750    3.928277   -0.550790
     68          1           0      -10.348311   -2.547281   -1.136604
     69          1           0       -2.718507   -1.271676    2.040947
     70          1           0       -2.223964    1.632491    1.285883
     71          1           0       -1.980883    0.797180    3.614114
     72          1           0       -3.116793    2.226735    3.406307
     73          1           0       -3.744476    0.713131    3.686792
     74          1           0       -1.968412   -1.565210   -0.542249
     75          1           0       -2.479018    0.242963   -0.584668
     76          1           0       -0.318306    0.437712    1.029365
     77          1           0       -0.111502   -1.211129    1.238106
     78          1           0       -5.311258    6.701284    0.503045
     79          1           0       -5.271395    5.921443    2.163016
     80          1           0       -4.142563    5.390466    0.955699
     81          1           0       -9.150277    5.892444   -0.526263
     82          1           0       -8.868174    8.241318    0.759270
     83          1           0       -7.645052    7.219858    2.041025
     84          1           0      -11.766683    3.513206   -1.883417
     85          1           0      -13.128731    2.201357   -1.882499
     86          1           0      -12.328710    3.261059   -0.419604
     87          1           0      -12.265119   -1.228886   -1.133714
     88          1           0      -13.424640    0.012017   -1.658305
     89          1           0      -13.166078   -1.649485   -3.433849
     90          1           0      -12.224408   -0.257353   -4.028209
     91          1           0      -11.579786   -1.634208   -3.469001
     92          1           0       -8.969034   -4.958044   -1.877413
     93          1           0       -7.942693   -5.649038   -0.694546
     94          1           0       -9.530680   -4.944639   -0.130465
     95          1           0       -3.493116   -3.630344    0.003013
     96          1           0       -1.704037   -4.648261    3.649889
     97          1           0       -3.433936   -5.680313    3.527589
     98          1           0       -1.762360   -6.262222    2.753312
     99          1           0        2.503632   -1.713288   -1.791926
    100          1           0        2.438461   -0.180010   -2.070015
    101          1           0        4.315948   -1.097673    0.140778
    102          1           0        3.862892    1.484430   -2.778666
    103          1           0        5.379331    2.309001   -2.094742
    104          1           0        5.789493    0.894280   -2.957537
    105          1           0        6.587576    1.316548    0.235042
    106          1           0        6.195048   -0.257784    0.488565
    107          1           0        7.245457   -1.100958   -1.412608
    108          1           0        7.516383    0.463200   -1.982373
    109          1           0        8.804621    1.007918   -0.347149
    110          1           0        8.824336   -0.483512    0.469729
    111          1           0       10.439298    0.188907   -1.948729
    112          1           0        9.267239   -2.155908   -2.177046
    113          1           0       11.087916   -2.104641   -1.993013
    114          1           0       10.120067   -2.711646   -0.723808
    115          1           0       11.362933    0.717656    0.339655
    116          1           0       11.354662   -0.710846    0.863181
    117          1           0       12.883429   -1.551814   -0.933787
    118          1           0       12.967857    0.037263   -1.711165
    119          1           0       13.808487    1.163463    0.414922
    120          1           0       13.861597   -0.693514    1.189294
    121          1           0       15.466255    0.349051   -1.514586
    122          1           0       15.784177   -2.297488    0.066347
    123          1           0       15.193515   -2.154158   -1.626819
    124          1           0       16.691377   -1.600255   -1.103518
    125          1           0       15.975655    1.370283    0.806343
    126          1           0       16.570923   -0.196417    1.270757
    127          1           0       18.210324   -0.338957   -0.571687
    128          1           0       17.968239    1.233063   -0.993731
    129          1           0       18.299296    2.251795    1.212764
    130          1           0       18.837940    0.635221    1.753471
    131          1           0       20.670968    0.319428    0.123186
    132          1           0       20.215515    3.199765   -0.950675
    133          1           0       21.371184    1.865438   -1.451530
    134          1           0       19.711630    1.547972   -1.751959
    135          1           0       21.009990    1.424933    2.332377
    136          1           0       22.462492    1.722315    1.066646
    137          1           0       20.838047    2.941604    1.633846
 ---------------------------------------------------------------------

 SCF Done:  E(RCAM-B3LYP) =  -2933.46010514     A.U. after   16 cycles

 Excitation energies and oscillator strengths:

 Excited State   1:      Singlet-A      2.0610 eV  601.58 nm  f=0.2944  <S**2>=0.000
     240 -> 243       -0.20701
     241 -> 242        0.67141
 This state for optimization and/or second-order correction.
 Total Energy, E(TD-HF/TD-DFT) =  -2933.38436581
 Copying the excited state density for this state as the 1-particle RhoCI density.

 The electronic state is 1-A.
 Alpha  occ. eigenvalues --  -46.79941 -19.21475 -19.21341 -19.16721 -19.16358
 Alpha  occ. eigenvalues --  -19.13174 -14.37939 -14.35922 -14.35483 -14.35273
 Alpha  occ. eigenvalues --  -10.33904 -10.32252 -10.30179 -10.27362 -10.27141
 Alpha  occ. eigenvalues --  -10.26222 -10.26170 -10.26145 -10.25428 -10.25362
 Alpha  occ. eigenvalues --  -10.25330 -10.25178 -10.24797 -10.24722 -10.24339
 Alpha  occ. eigenvalues --  -10.24023 -10.24015 -10.23886 -10.23693 -10.23561
 Alpha  occ. eigenvalues --  -10.23524 -10.23475 -10.23380 -10.23295 -10.23032
 Alpha  occ. eigenvalues --  -10.23005 -10.22897 -10.22862 -10.22787 -10.22499
 Alpha  occ. eigenvalues --  -10.22271 -10.22235 -10.22110 -10.22093 -10.21956
 Alpha  occ. eigenvalues --  -10.21845 -10.21763 -10.21694 -10.21642 -10.21550
 Alpha  occ. eigenvalues --  -10.21506 -10.21481 -10.21120 -10.21117 -10.20737
 Alpha  occ. eigenvalues --  -10.20417 -10.20389 -10.20386 -10.20316 -10.20167
 Alpha  occ. eigenvalues --  -10.20101 -10.19625 -10.19523 -10.19188 -10.18884
 Alpha  occ. eigenvalues --   -3.08604  -1.83539  -1.83063  -1.83030  -1.14689
 Alpha  occ. eigenvalues --   -1.11200  -1.07936  -1.06081  -1.01413  -0.98490
 Alpha  occ. eigenvalues --   -0.98211  -0.97896  -0.95622  -0.87309  -0.86440
 Alpha  occ. eigenvalues --   -0.85982  -0.85310  -0.85251  -0.84747  -0.84327
 Alpha  occ. eigenvalues --   -0.84124  -0.83303  -0.83073  -0.82125  -0.81646
 Alpha  occ. eigenvalues --   -0.80888  -0.79534  -0.79306  -0.78769  -0.78133
 Alpha  occ. eigenvalues --   -0.76993  -0.76577  -0.76258  -0.75533  -0.73822
 Alpha  occ. eigenvalues --   -0.73463  -0.72992  -0.71313  -0.71165  -0.71053
 Alpha  occ. eigenvalues --   -0.70735  -0.70597  -0.69998  -0.69545  -0.68668
 Alpha  occ. eigenvalues --   -0.67968  -0.67040  -0.65634  -0.65238  -0.64549
 Alpha  occ. eigenvalues --   -0.64000  -0.63317  -0.61870  -0.61512  -0.60769
 Alpha  occ. eigenvalues --   -0.59866  -0.59624  -0.59299  -0.58218  -0.57238
 Alpha  occ. eigenvalues --   -0.56804  -0.56748  -0.56142  -0.55653  -0.55256
 Alpha  occ. eigenvalues --   -0.55001  -0.54488  -0.53479  -0.53148  -0.52597
 Alpha  occ. eigenvalues --   -0.52335  -0.52151  -0.51731  -0.51417  -0.50604
 Alpha  occ. eigenvalues --   -0.50475  -0.50205  -0.50165  -0.49580  -0.49131
 Alpha  occ. eigenvalues --   -0.48828  -0.48560  -0.48345  -0.48242  -0.48136
 Alpha  occ. eigenvalues --   -0.47935  -0.47636  -0.47501  -0.47341  -0.47314
 Alpha  occ. eigenvalues --   -0.46931  -0.46828  -0.46735  -0.46309  -0.46237
 Alpha  occ. eigenvalues --   -0.45671  -0.45492  -0.45355  -0.45163  -0.44819
 Alpha  occ. eigenvalues --   -0.44353  -0.44001  -0.43733  -0.43484  -0.43221
 Alpha  occ. eigenvalues --   -0.43182  -0.43056  -0.42746  -0.42615  -0.42478
 Alpha  occ. eigenvalues --   -0.42338  -0.42240  -0.42158  -0.42130  -0.41974
 Alpha  occ. eigenvalues --   -0.41396  -0.41271  -0.41252  -0.41218  -0.41058
 Alpha  occ. eigenvalues --   -0.40878  -0.40790  -0.40664  -0.40279  -0.40178
 Alpha  occ. eigenvalues --   -0.39997  -0.39803  -0.39578  -0.39417  -0.38938
 Alpha  occ. eigenvalues --   -0.38751  -0.38535  -0.38436  -0.38402  -0.38052
 Alpha  occ. eigenvalues --   -0.37481  -0.37393  -0.37255  -0.37070  -0.37054
 Alpha  occ. eigenvalues --   -0.36825  -0.36531  -0.36486  -0.36224  -0.35721
 Alpha  occ. eigenvalues --   -0.35630  -0.35389  -0.35306  -0.34929  -0.34908
 Alpha  occ. eigenvalues --   -0.34494  -0.34135  -0.34065  -0.33973  -0.33879
 Alpha  occ. eigenvalues --   -0.33794  -0.33283  -0.33181  -0.32855  -0.32753
 Alpha  occ. eigenvalues --   -0.32204  -0.31820  -0.31155  -0.30908  -0.30614
 Alpha  occ. eigenvalues --   -0.30088  -0.30013  -0.28888  -0.27632  -0.27102
 Alpha  occ. eigenvalues --   -0.26905  -0.25955  -0.25726  -0.25419  -0.22264
 Alpha  occ. eigenvalues --   -0.20722
 Alpha virt. eigenvalues --   -0.07857  -0.03831  -0.00270   0.01199   0.03560
 Alpha virt. eigenvalues --    0.04157   0.04215   0.04476   0.05783   0.06272
 Alpha virt. eigenvalues --    0.06724   0.08665   0.08872   0.09659   0.09788

 Mulliken charges:
               1
     1  Mg   0.806003
     2  C    0.131547
     3  C   -0.226270
     4  C   -0.176494
     5  C   -0.183797
     6  N   -0.657704
     7  C    0.278687
     8  C   -0.117292
     9  C   -0.162674
    10  C    0.376851
    11  C   -0.295884
    12  C   -0.146814
    13  C   -0.260700
    14  C    0.589835
    15  O   -0.444562
    16  O   -0.465144
    17  N   -0.693983
    18  C    0.334474
    19  C    0.002320
    20  C    0.067536
    21  C    0.247229
    22  C   -0.361040
    23  C   -0.069457
    24  C   -0.254249
    25  N   -0.685251
    26  C    0.295935
    27  C    0.067773
    28  C    0.021055
    29  C    0.331104
    30  C   -0.381867
    31  C   -0.233233
    32  C   -0.323880
    33  N   -0.719337
    34  C    0.271236
    35  C    0.028623
    36  C    0.043553
    37  C    0.304598
    38  C   -0.388684
    39  C    0.312814
    40  O   -0.437417
    41  C   -0.380950
    42  C    0.636372
    43  O   -0.548957
    44  O   -0.447723
    45  C   -0.060087
    46  C    0.017534
    47  C   -0.116069
    48  C    0.128939
    49  C   -0.375747
    50  C   -0.235880
    51  C   -0.213871
    52  C   -0.132793
    53  C   -0.069318
    54  C   -0.317311
    55  C   -0.166972
    56  C   -0.171537
    57  C   -0.148355
    58  C   -0.057975
    59  C   -0.302055
    60  C   -0.171734
    61  C   -0.191096
    62  C   -0.166130
    63  C   -0.044172
    64  C   -0.306031
    65  C   -0.275374
    66  H    0.071524
    67  H    0.060897
    68  H    0.085351
    69  H    0.131598
    70  H    0.104848
    71  H    0.108246
    72  H    0.112881
    73  H    0.126016
    74  H    0.126055
    75  H    0.075871
    76  H    0.123219
    77  H    0.116676
    78  H    0.123025
    79  H    0.144658
    80  H    0.103212
    81  H    0.093037
    82  H    0.119864
    83  H    0.087076
    84  H    0.117853
    85  H    0.108887
    86  H    0.129471
    87  H    0.114001
    88  H    0.079279
    89  H    0.100902
    90  H    0.103932
    91  H    0.122683
    92  H    0.119962
    93  H    0.153011
    94  H    0.118849
    95  H    0.146316
    96  H    0.128979
    97  H    0.097562
    98  H    0.122667
    99  H    0.128229
   100  H    0.113346
   101  H    0.077605
   102  H    0.111367
   103  H    0.090621
   104  H    0.121387
   105  H    0.101111
   106  H    0.102536
   107  H    0.098590
   108  H    0.096807
   109  H    0.105172
   110  H    0.093210
   111  H    0.067490
   112  H    0.102170
   113  H    0.107733
   114  H    0.090607
   115  H    0.090288
   116  H    0.097311
   117  H    0.090896
   118  H    0.067918
   119  H    0.054651
   120  H    0.085560
   121  H    0.084691
   122  H    0.076939
   123  H    0.088462
   124  H    0.113886
   125  H    0.085603
   126  H    0.096941
   127  H    0.093689
   128  H    0.109061
   129  H    0.054498
   130  H    0.096294
   131  H    0.075347
   132  H    0.104933
   133  H    0.101184
   134  H    0.071551
   135  H    0.108464
   136  H    0.067198
   137  H    0.090106
 Sum of Mulliken charges =  -0.00000

 Dipole moment (field-independent basis, Debye):
    X=              0.4493    Y=              5.4482    Z=              0.0704  Tot=              5.4671
 Quadrupole moment (field-independent basis, Debye-Ang):
   XX=           -327.5543   YY=           -389.5716   ZZ=           -402.3072
   XY=            -35.7272   XZ=             13.3053   YZ=              4.4577

 Normal termination of Gaussian 16 at Mon Sep 16 13:15:47 2019.
