 Gaussian 16, Revision A.03,
 Gaussian 16:  ES64L-G16RevA.03 25-Dec-2016

 ----------------------------------------------------------------------
 # td=(NStates=1) iop(3/107=0140000000,3/108=0140000000) CAM-B3LYP/6-31
 G(d,p)
 ----------------------------------------------------------------------

 --
 TD
 --
 Symbolic Z-matrix:
 Charge =  0 Multiplicity = 1

                         Standard orientation:
 ---------------------------------------------------------------------
 Center     Atomic      Atomic             Coordinates (Angstroms)
 Number     Number       Type             X           Y           Z
 ---------------------------------------------------------------------
      1         12           0       -7.175156    0.703922    0.176186
      2          6           0       -4.881674   -2.029298    0.479446
      3          6           0       -4.793628    2.856172    1.213730
      4          6           0       -9.389675    3.073137   -0.494591
      5          6           0       -9.535481   -1.693749   -0.881623
      6          7           0       -5.072924    0.383706    0.708491
      7          6           0       -4.337325   -0.791594    0.752876
      8          6           0       -2.925983   -0.408094    1.150069
      9          6           0       -3.059524    1.081828    1.615565
     10          6           0       -4.407822    1.490765    1.136593
     11          6           0       -2.972407    1.223592    3.197615
     12          6           0       -1.872404   -0.589635    0.035632
     13          6           0       -0.426458   -0.501003    0.660247
     14          6           0        0.556030   -0.656517   -0.515894
     15          8           0        0.232966   -0.934596   -1.660685
     16          8           0        1.808472   -0.469903   -0.120147
     17          7           0       -7.029855    2.624371    0.209998
     18          6           0       -6.032141    3.357614    0.772509
     19          6           0       -6.411595    4.724970    0.846571
     20          6           0       -7.784410    4.825814    0.412016
     21          6           0       -8.132728    3.479193    0.018179
     22          6           0       -5.461060    5.863547    1.156769
     23          6           0       -8.502291    6.032072    0.139336
     24          6           0       -8.344714    7.172267    0.932835
     25          7           0       -9.230212    0.603232   -0.550757
     26          6           0       -9.945890    1.811354   -0.776465
     27          6           0      -11.247562    1.498120   -1.227225
     28          6           0      -11.321035    0.136990   -1.365736
     29          6           0      -10.007065   -0.322844   -0.943587
     30          6           0      -12.384909    2.505914   -1.427903
     31          6           0      -12.438435   -0.705501   -1.881648
     32          6           0      -12.397663   -0.891434   -3.349145
     33          7           0       -7.302533   -1.325817   -0.018136
     34          6           0       -8.402052   -2.163352   -0.472068
     35          6           0       -7.931597   -3.582271   -0.445228
     36          6           0       -6.599538   -3.501813   -0.066387
     37          6           0       -6.255694   -2.190279    0.182269
     38          6           0       -8.815420   -4.726195   -0.899219
     39          6           0       -5.426617   -4.335282    0.125245
     40          8           0       -5.287162   -5.536089    0.084821
     41          6           0       -4.249938   -3.454534    0.557672
     42          6           0       -3.572015   -3.752495    1.890703
     43          8           0       -3.807694   -3.123893    2.883638
     44          8           0       -2.790111   -4.875203    1.720808
     45          6           0       -2.177876   -5.338208    3.040241
     46          6           0        2.840897   -0.600782   -1.098691
     47          6           0        4.145726   -0.491157   -0.502541
     48          6           0        5.216962    0.289086   -0.895520
     49          6           0        5.204433    1.150786   -2.011479
     50          6           0        6.501315    0.253906   -0.092532
     51          6           0        7.709238   -0.344431   -0.845335
     52          6           0        9.057466   -0.156157   -0.202124
     53          6           0       10.279509   -0.595342   -0.843809
     54          6           0       10.210415   -2.022135   -1.252048
     55          6           0       11.441627   -0.279323    0.052643
     56          6           0       12.833456   -0.468608   -0.728445
     57          6           0       14.055756   -0.163036    0.206049
     58          6           0       15.378705   -0.250166   -0.535165
     59          6           0       15.741041   -1.707643   -0.829484
     60          6           0       16.551389    0.331161    0.413448
     61          6           0       17.913483    0.516738   -0.275613
     62          6           0       18.818342    1.320603    0.643636
     63          6           0       20.295953    1.522033    0.095695
     64          6           0       20.272993    2.301266   -1.099298
     65          6           0       21.202104    2.015388    1.192356
     66          1           0       -4.094373    3.419970    1.835309
     67          1           0      -10.202138    3.910166   -0.513678
     68          1           0      -10.300488   -2.458996   -1.235681
     69          1           0       -2.445646   -1.013970    2.146962
     70          1           0       -2.275735    1.823719    1.175444
     71          1           0       -1.920064    0.676600    3.431020
     72          1           0       -2.769374    2.428980    3.556401
     73          1           0       -3.837682    0.805826    3.720244
     74          1           0       -2.001296   -1.666920   -0.437638
     75          1           0       -1.993661    0.102607   -0.802416
     76          1           0       -0.336205    0.519576    1.025806
     77          1           0       -0.298355   -1.200477    1.576202
     78          1           0       -5.654123    6.846856    0.693948
     79          1           0       -5.662914    5.808349    2.245552
     80          1           0       -4.287296    5.516792    1.298253
     81          1           0       -9.297660    5.868485   -0.661958
     82          1           0       -8.874270    8.220183    0.687047
     83          1           0       -7.808752    7.281846    1.780078
     84          1           0      -11.866708    3.468190   -2.001021
     85          1           0      -13.105742    1.925424   -2.079720
     86          1           0      -12.624603    2.940887   -0.329917
     87          1           0      -12.247369   -1.773089   -1.355127
     88          1           0      -13.440241   -0.248674   -1.510181
     89          1           0      -13.112288   -1.621033   -3.760911
     90          1           0      -12.763546    0.038233   -3.906704
     91          1           0      -11.415903   -1.262481   -3.475963
     92          1           0       -8.998395   -4.458500   -1.977647
     93          1           0       -8.112475   -5.554993   -0.538780
     94          1           0       -9.640303   -4.728006   -0.312245
     95          1           0       -3.493287   -3.423920   -0.393890
     96          1           0       -1.845399   -4.495501    3.609586
     97          1           0       -2.954060   -5.749620    3.450692
     98          1           0       -1.466872   -6.034626    2.446159
     99          1           0        2.687645   -1.618510   -1.607686
    100          1           0        2.460810    0.127992   -1.804660
    101          1           0        4.300735   -1.311385    0.322941
    102          1           0        4.248871    1.477527   -2.464667
    103          1           0        5.676851    2.129047   -1.678481
    104          1           0        5.794398    0.691064   -2.922478
    105          1           0        6.765431    1.272926    0.122431
    106          1           0        6.422232   -0.158108    0.902444
    107          1           0        7.459550   -1.414919   -0.852529
    108          1           0        7.741974   -0.115969   -2.078764
    109          1           0        9.098039    1.119630    0.017459
    110          1           0        8.800996   -0.504847    0.825355
    111          1           0       10.590180   -0.023724   -1.719644
    112          1           0        9.634339   -2.169331   -2.222656
    113          1           0       11.278740   -2.405148   -1.516514
    114          1           0        9.729825   -2.725931   -0.521134
    115          1           0       11.265613    0.889260    0.199313
    116          1           0       11.315647   -0.815831    0.992870
    117          1           0       12.673993   -1.464227   -1.040091
    118          1           0       12.907875    0.165593   -1.726456
    119          1           0       13.903673    0.900602    0.397457
    120          1           0       14.111947   -0.893247    0.927779
    121          1           0       15.412453    0.382956   -1.406229
    122          1           0       16.090629   -2.262348   -0.046945
    123          1           0       14.720189   -2.146245   -1.292574
    124          1           0       16.512194   -2.041071   -1.783069
    125          1           0       16.196888    1.350658    0.724152
    126          1           0       16.735968   -0.086195    1.482682
    127          1           0       18.223772   -0.372673   -0.542049
    128          1           0       17.908432    0.976285   -1.175324
    129          1           0       18.412488    2.212308    0.946002
    130          1           0       18.908759    0.665866    1.680343
    131          1           0       20.599422    0.457795   -0.139667
    132          1           0       20.115363    3.379215   -0.632324
    133          1           0       21.327923    2.227757   -1.683074
    134          1           0       19.575020    1.935456   -1.976261
    135          1           0       21.158010    1.434956    1.993182
    136          1           0       22.265447    2.255421    0.809117
    137          1           0       20.720389    2.908831    1.508787
 ---------------------------------------------------------------------

 SCF Done:  E(RCAM-B3LYP) =  -2933.50561025     A.U. after   15 cycles

 Excitation energies and oscillator strengths:

 Excited State   1:      Singlet-A      2.0738 eV  597.85 nm  f=0.1932  <S**2>=0.000
     240 -> 242       -0.14212
     240 -> 243       -0.22534
     241 -> 242        0.63239
     241 -> 243       -0.15016
 This state for optimization and/or second-order correction.
 Total Energy, E(TD-HF/TD-DFT) =  -2933.42939884
 Copying the excited state density for this state as the 1-particle RhoCI density.

 The electronic state is 1-A.
 Alpha  occ. eigenvalues --  -46.79686 -19.21868 -19.21721 -19.17747 -19.16327
 Alpha  occ. eigenvalues --  -19.15944 -14.36855 -14.34970 -14.34916 -14.34309
 Alpha  occ. eigenvalues --  -10.34936 -10.34326 -10.30190 -10.27177 -10.26708
 Alpha  occ. eigenvalues --  -10.26289 -10.25680 -10.24931 -10.24715 -10.24696
 Alpha  occ. eigenvalues --  -10.24693 -10.24400 -10.24338 -10.24320 -10.24245
 Alpha  occ. eigenvalues --  -10.24174 -10.23879 -10.23832 -10.23759 -10.23659
 Alpha  occ. eigenvalues --  -10.23654 -10.23531 -10.23501 -10.23191 -10.22884
 Alpha  occ. eigenvalues --  -10.22831 -10.22663 -10.22638 -10.22545 -10.22482
 Alpha  occ. eigenvalues --  -10.22403 -10.22392 -10.22362 -10.22349 -10.22191
 Alpha  occ. eigenvalues --  -10.22163 -10.22081 -10.21885 -10.21845 -10.21777
 Alpha  occ. eigenvalues --  -10.21734 -10.21570 -10.21514 -10.21499 -10.21271
 Alpha  occ. eigenvalues --  -10.21116 -10.21106 -10.21080 -10.20867 -10.20826
 Alpha  occ. eigenvalues --  -10.20803 -10.20730 -10.20542 -10.19085 -10.18194
 Alpha  occ. eigenvalues --   -3.08253  -1.83191  -1.82731  -1.82657  -1.13711
 Alpha  occ. eigenvalues --   -1.11902  -1.06539  -1.04714  -1.04098  -0.99168
 Alpha  occ. eigenvalues --   -0.98092  -0.97252  -0.96492  -0.87342  -0.87248
 Alpha  occ. eigenvalues --   -0.86185  -0.85331  -0.83863  -0.83790  -0.83578
 Alpha  occ. eigenvalues --   -0.83442  -0.82949  -0.82404  -0.82092  -0.81076
 Alpha  occ. eigenvalues --   -0.79817  -0.79412  -0.78923  -0.78415  -0.77170
 Alpha  occ. eigenvalues --   -0.76969  -0.76528  -0.75600  -0.75149  -0.73286
 Alpha  occ. eigenvalues --   -0.72417  -0.71782  -0.71578  -0.71477  -0.71265
 Alpha  occ. eigenvalues --   -0.70432  -0.69961  -0.68775  -0.68360  -0.67597
 Alpha  occ. eigenvalues --   -0.66868  -0.65808  -0.64565  -0.64125  -0.63700
 Alpha  occ. eigenvalues --   -0.63044  -0.62973  -0.60441  -0.60337  -0.59799
 Alpha  occ. eigenvalues --   -0.59411  -0.59353  -0.58590  -0.58448  -0.57582
 Alpha  occ. eigenvalues --   -0.57445  -0.57025  -0.55717  -0.55375  -0.55122
 Alpha  occ. eigenvalues --   -0.54254  -0.53942  -0.53029  -0.52948  -0.52753
 Alpha  occ. eigenvalues --   -0.52028  -0.51624  -0.51356  -0.50873  -0.50610
 Alpha  occ. eigenvalues --   -0.50223  -0.50194  -0.50128  -0.49661  -0.49283
 Alpha  occ. eigenvalues --   -0.49113  -0.49016  -0.48395  -0.48138  -0.47990
 Alpha  occ. eigenvalues --   -0.47565  -0.47535  -0.47372  -0.47130  -0.47009
 Alpha  occ. eigenvalues --   -0.46989  -0.46536  -0.46301  -0.46051  -0.45887
 Alpha  occ. eigenvalues --   -0.45580  -0.45556  -0.45209  -0.44963  -0.44746
 Alpha  occ. eigenvalues --   -0.44454  -0.44300  -0.43975  -0.43733  -0.43603
 Alpha  occ. eigenvalues --   -0.43119  -0.42836  -0.42668  -0.42408  -0.42332
 Alpha  occ. eigenvalues --   -0.42042  -0.41995  -0.41799  -0.41586  -0.41499
 Alpha  occ. eigenvalues --   -0.41217  -0.40838  -0.40825  -0.40608  -0.40483
 Alpha  occ. eigenvalues --   -0.40366  -0.40037  -0.39972  -0.39879  -0.39706
 Alpha  occ. eigenvalues --   -0.39365  -0.39314  -0.39006  -0.38989  -0.38807
 Alpha  occ. eigenvalues --   -0.38533  -0.38429  -0.38295  -0.38069  -0.37942
 Alpha  occ. eigenvalues --   -0.37663  -0.37487  -0.37131  -0.37083  -0.36850
 Alpha  occ. eigenvalues --   -0.36712  -0.36662  -0.36541  -0.36368  -0.36026
 Alpha  occ. eigenvalues --   -0.35797  -0.35642  -0.35466  -0.34749  -0.34340
 Alpha  occ. eigenvalues --   -0.34282  -0.33912  -0.33817  -0.33751  -0.33687
 Alpha  occ. eigenvalues --   -0.33204  -0.33192  -0.32693  -0.32496  -0.32300
 Alpha  occ. eigenvalues --   -0.32082  -0.32068  -0.31844  -0.31014  -0.30322
 Alpha  occ. eigenvalues --   -0.29960  -0.29789  -0.29424  -0.28094  -0.26976
 Alpha  occ. eigenvalues --   -0.26753  -0.26589  -0.25516  -0.23590  -0.21738
 Alpha  occ. eigenvalues --   -0.19409
 Alpha virt. eigenvalues --   -0.06430  -0.04270  -0.00042   0.02080   0.02673
 Alpha virt. eigenvalues --    0.03542   0.04149   0.04654   0.05041   0.06247
 Alpha virt. eigenvalues --    0.06810   0.08269   0.08570   0.08777   0.09201

 Mulliken charges:
               1
     1  Mg   0.813876
     2  C    0.031970
     3  C   -0.180596
     4  C   -0.196238
     5  C   -0.219697
     6  N   -0.657893
     7  C    0.314582
     8  C   -0.158867
     9  C   -0.157466
    10  C    0.355053
    11  C   -0.283487
    12  C   -0.158301
    13  C   -0.272605
    14  C    0.606111
    15  O   -0.480143
    16  O   -0.456816
    17  N   -0.752005
    18  C    0.354303
    19  C   -0.004740
    20  C    0.022483
    21  C    0.288042
    22  C   -0.366637
    23  C   -0.088444
    24  C   -0.250769
    25  N   -0.656929
    26  C    0.269593
    27  C    0.029804
    28  C    0.042867
    29  C    0.318722
    30  C   -0.353928
    31  C   -0.257303
    32  C   -0.281994
    33  N   -0.740248
    34  C    0.317224
    35  C   -0.014071
    36  C    0.040225
    37  C    0.342792
    38  C   -0.355766
    39  C    0.347452
    40  O   -0.456147
    41  C   -0.294829
    42  C    0.630746
    43  O   -0.453581
    44  O   -0.476103
    45  C   -0.100775
    46  C    0.014996
    47  C   -0.133354
    48  C    0.150632
    49  C   -0.371044
    50  C   -0.232529
    51  C   -0.169844
    52  C   -0.140721
    53  C   -0.032955
    54  C   -0.319830
    55  C   -0.167626
    56  C   -0.204556
    57  C   -0.144399
    58  C   -0.057469
    59  C   -0.300176
    60  C   -0.194785
    61  C   -0.157477
    62  C   -0.170089
    63  C   -0.055045
    64  C   -0.271632
    65  C   -0.294991
    66  H    0.077439
    67  H    0.076042
    68  H    0.068679
    69  H    0.085355
    70  H    0.096840
    71  H    0.087513
    72  H    0.072513
    73  H    0.139002
    74  H    0.100391
    75  H    0.125487
    76  H    0.135844
    77  H    0.126533
    78  H    0.131214
    79  H    0.132857
    80  H    0.091385
    81  H    0.096459
    82  H    0.082725
    83  H    0.114373
    84  H    0.097421
    85  H    0.115590
    86  H    0.121610
    87  H    0.082574
    88  H    0.091795
    89  H    0.102258
    90  H    0.099726
    91  H    0.115070
    92  H    0.137413
    93  H    0.145537
    94  H    0.142630
    95  H    0.148691
    96  H    0.144877
    97  H    0.157784
    98  H    0.139885
    99  H    0.119815
   100  H    0.118089
   101  H    0.081563
   102  H    0.118792
   103  H    0.108389
   104  H    0.118858
   105  H    0.102818
   106  H    0.105878
   107  H    0.100613
   108  H    0.057612
   109  H    0.036388
   110  H    0.091209
   111  H    0.095311
   112  H    0.102662
   113  H    0.090580
   114  H    0.101389
   115  H    0.071709
   116  H    0.091157
   117  H    0.104493
   118  H    0.074822
   119  H    0.103058
   120  H    0.103383
   121  H    0.089446
   122  H    0.123172
   123  H    0.076521
   124  H    0.064421
   125  H    0.072215
   126  H    0.076183
   127  H    0.105098
   128  H    0.092799
   129  H    0.096113
   130  H    0.048580
   131  H    0.072375
   132  H    0.081592
   133  H    0.075686
   134  H    0.097149
   135  H    0.114093
   136  H    0.089949
   137  H    0.095937
 Sum of Mulliken charges =  -0.00000

 Dipole moment (field-independent basis, Debye):
    X=              2.5784    Y=              1.9419    Z=              1.4797  Tot=              3.5509
 Quadrupole moment (field-independent basis, Debye-Ang):
   XX=           -365.8970   YY=           -397.6683   ZZ=           -394.1973
   XY=            -13.6455   XZ=              5.1756   YZ=             -3.3879

 Normal termination of Gaussian 16 at Thu Sep 12 10:14:48 2019.
