 Gaussian 16, Revision A.03,
 Gaussian 16:  ES64L-G16RevA.03 25-Dec-2016

 ----------------------------------------------------------------------
 # td=(NStates=1) iop(3/107=0140000000,3/108=0140000000) CAM-B3LYP/6-31
 G(d,p)
 ----------------------------------------------------------------------

 --
 TD
 --
 Symbolic Z-matrix:
 Charge =  0 Multiplicity = 1

                         Standard orientation:
 ---------------------------------------------------------------------
 Center     Atomic      Atomic             Coordinates (Angstroms)
 Number     Number       Type             X           Y           Z
 ---------------------------------------------------------------------
      1         12           0       -7.205296    0.545273    0.150675
      2          6           0       -4.902514   -2.086076    0.526781
      3          6           0       -4.796354    2.767375    1.228630
      4          6           0       -9.320172    3.130567   -0.444999
      5          6           0       -9.526876   -1.659578   -1.092587
      6          7           0       -5.149400    0.345940    0.742371
      7          6           0       -4.419268   -0.828633    0.804676
      8          6           0       -2.987878   -0.513329    1.298870
      9          6           0       -3.034496    0.962832    1.723658
     10          6           0       -4.473180    1.390960    1.210193
     11          6           0       -2.958266    1.064552    3.278377
     12          6           0       -1.952600   -0.766281    0.138944
     13          6           0       -0.552778   -0.770873    0.739008
     14          6           0        0.500620   -0.729070   -0.376598
     15          8           0        0.140264   -1.044760   -1.490202
     16          8           0        1.773157   -0.381421   -0.022020
     17          7           0       -7.045847    2.635346    0.403167
     18          6           0       -6.037480    3.376568    0.871760
     19          6           0       -6.310694    4.767868    0.871958
     20          6           0       -7.659465    4.874746    0.380955
     21          6           0       -8.084519    3.489356    0.086436
     22          6           0       -5.420996    5.972126    1.308811
     23          6           0       -8.431177    6.130986    0.167551
     24          6           0       -8.121178    7.278430    0.724197
     25          7           0       -9.165589    0.792534   -0.407896
     26          6           0       -9.838853    1.966096   -0.576251
     27          6           0      -11.167095    1.626475   -1.246176
     28          6           0      -11.169775    0.225372   -1.423793
     29          6           0       -9.947780   -0.330421   -0.944686
     30          6           0      -12.191700    2.668304   -1.459158
     31          6           0      -12.355103   -0.420770   -1.978880
     32          6           0      -12.267692   -0.765667   -3.407328
     33          7           0       -7.322140   -1.320493   -0.262255
     34          6           0       -8.310014   -2.224157   -0.633128
     35          6           0       -7.875976   -3.614747   -0.666134
     36          6           0       -6.600569   -3.650785   -0.218941
     37          6           0       -6.275529   -2.193933   -0.047297
     38          6           0       -8.787097   -4.744536   -1.022262
     39          6           0       -5.503470   -4.386055    0.060899
     40          8           0       -5.382201   -5.629713    0.159811
     41          6           0       -4.242146   -3.423354    0.519264
     42          6           0       -3.743327   -3.866425    1.845889
     43          8           0       -3.955988   -3.232067    2.867405
     44          8           0       -2.932670   -4.878508    1.752859
     45          6           0       -2.404063   -5.259717    2.990138
     46          6           0        2.749680   -0.706694   -0.991803
     47          6           0        4.105067   -0.519744   -0.386958
     48          6           0        5.104428    0.235238   -0.831480
     49          6           0        5.003875    1.146547   -2.083114
     50          6           0        6.320056    0.350878   -0.123241
     51          6           0        7.624635   -0.089176   -0.938633
     52          6           0        8.938640   -0.115487   -0.048622
     53          6           0       10.245647   -0.439747   -0.834275
     54          6           0       10.198793   -1.869339   -1.455820
     55          6           0       11.543816   -0.151922   -0.004492
     56          6           0       12.821163   -0.432750   -0.713089
     57          6           0       14.030452   -0.169202    0.182376
     58          6           0       15.407797   -0.188355   -0.556657
     59          6           0       15.820394   -1.625395   -0.883042
     60          6           0       16.430029    0.516154    0.199355
     61          6           0       17.918819    0.590187   -0.314051
     62          6           0       18.986753    1.383052    0.590722
     63          6           0       20.452672    1.327462    0.215469
     64          6           0       20.711145    2.081465   -1.123975
     65          6           0       21.369147    1.765229    1.354448
     66          1           0       -4.267765    3.524320    1.730613
     67          1           0      -10.102283    3.881898   -0.539519
     68          1           0      -10.396974   -2.337278   -1.461736
     69          1           0       -2.670492   -0.901986    2.231602
     70          1           0       -2.347771    1.676320    1.318296
     71          1           0       -2.006584    0.795274    3.585932
     72          1           0       -3.309040    1.896480    3.516426
     73          1           0       -3.846661    0.469717    4.009377
     74          1           0       -2.107802   -1.884902   -0.193322
     75          1           0       -1.956271   -0.115562   -0.701432
     76          1           0       -0.394231    0.108232    1.382635
     77          1           0       -0.291867   -1.662279    1.463552
     78          1           0       -5.550401    6.873570    0.376099
     79          1           0       -5.781158    6.310494    2.285793
     80          1           0       -4.287123    5.580880    1.523601
     81          1           0       -9.306107    5.685695   -0.389068
     82          1           0       -8.831346    8.337602    0.689311
     83          1           0       -7.344374    7.365764    1.472104
     84          1           0      -11.751607    3.300620   -2.020338
     85          1           0      -13.170306    2.174684   -2.099716
     86          1           0      -12.523250    3.529621   -0.545437
     87          1           0      -12.517109   -1.494163   -1.422759
     88          1           0      -13.257220    0.166804   -1.485182
     89          1           0      -13.048265   -1.387529   -3.820645
     90          1           0      -12.491497    0.175084   -3.846255
     91          1           0      -11.121561   -1.078011   -3.608889
     92          1           0       -9.035594   -4.673758   -2.062486
     93          1           0       -8.305672   -5.799407   -0.712013
     94          1           0       -9.887200   -4.605991   -0.590818
     95          1           0       -3.480073   -3.653128   -0.175878
     96          1           0       -1.891408   -4.503091    3.480857
     97          1           0       -3.375183   -5.588484    3.684365
     98          1           0       -1.786817   -6.075824    2.746675
     99          1           0        2.473502   -1.837406   -1.259391
    100          1           0        2.609966    0.033964   -1.826966
    101          1           0        4.304670   -1.026173    0.503316
    102          1           0        3.800366    1.424440   -2.446626
    103          1           0        5.708817    2.241631   -2.282518
    104          1           0        5.361680    0.381917   -2.971638
    105          1           0        6.517099    1.374996    0.119926
    106          1           0        6.207480   -0.371864    0.608058
    107          1           0        7.390955   -1.182578   -1.053527
    108          1           0        7.703353    0.264689   -1.940268
    109          1           0        9.084787    0.938770    0.394015
    110          1           0        8.681527   -0.786544    0.893076
    111          1           0       10.285678    0.101014   -1.709486
    112          1           0        9.335963   -1.920491   -2.200605
    113          1           0       10.934981   -2.073604   -2.132049
    114          1           0       10.260623   -2.738802   -0.582056
    115          1           0       11.519252    0.862538    0.366394
    116          1           0       11.302562   -0.799933    0.920258
    117          1           0       12.912664   -1.508538   -1.173578
    118          1           0       12.688066    0.190100   -1.553702
    119          1           0       13.864245    0.915741    0.641444
    120          1           0       14.327863   -0.769882    1.049537
    121          1           0       15.177478    0.418214   -1.631486
    122          1           0       16.277101   -2.177907   -0.004961
    123          1           0       14.800759   -2.188824   -1.180513
    124          1           0       16.544756   -1.522533   -1.859662
    125          1           0       16.138024    1.524939    0.407174
    126          1           0       16.392719   -0.350625    1.055908
    127          1           0       18.538778   -0.439684   -0.430841
    128          1           0       17.977061    1.120111   -1.254355
    129          1           0       18.775119    2.461136    0.532574
    130          1           0       19.014425    0.885329    1.609586
    131          1           0       20.786688    0.259954   -0.108476
    132          1           0       20.421964    3.152537   -1.072874
    133          1           0       21.800634    2.096008   -1.429024
    134          1           0       20.024070    1.668251   -1.853292
    135          1           0       21.309690    0.908176    2.053389
    136          1           0       22.359048    2.001000    0.972421
    137          1           0       21.249201    2.713811    1.779068
 ---------------------------------------------------------------------

 SCF Done:  E(RCAM-B3LYP) =  -2933.39595361     A.U. after   16 cycles

 Excitation energies and oscillator strengths:

 Excited State   1:      Singlet-A      1.9389 eV  639.45 nm  f=0.2834  <S**2>=0.000
     240 -> 243       -0.21007
     241 -> 242        0.67146
 This state for optimization and/or second-order correction.
 Total Energy, E(TD-HF/TD-DFT) =  -2933.32469945
 Copying the excited state density for this state as the 1-particle RhoCI density.

 The electronic state is 1-A.
 Alpha  occ. eigenvalues --  -46.79913 -19.22666 -19.21941 -19.16604 -19.15456
 Alpha  occ. eigenvalues --  -19.15386 -14.37986 -14.37001 -14.35045 -14.35025
 Alpha  occ. eigenvalues --  -10.34328 -10.33449 -10.29883 -10.28218 -10.26746
 Alpha  occ. eigenvalues --  -10.26679 -10.26518 -10.26469 -10.26360 -10.25692
 Alpha  occ. eigenvalues --  -10.25529 -10.25493 -10.25411 -10.24800 -10.24533
 Alpha  occ. eigenvalues --  -10.24138 -10.23932 -10.23745 -10.23732 -10.23524
 Alpha  occ. eigenvalues --  -10.23425 -10.23368 -10.23305 -10.23290 -10.23276
 Alpha  occ. eigenvalues --  -10.23145 -10.23088 -10.22944 -10.22838 -10.22786
 Alpha  occ. eigenvalues --  -10.22776 -10.22674 -10.22478 -10.22465 -10.22367
 Alpha  occ. eigenvalues --  -10.22268 -10.22062 -10.21986 -10.21969 -10.21955
 Alpha  occ. eigenvalues --  -10.21834 -10.21746 -10.21622 -10.21563 -10.21487
 Alpha  occ. eigenvalues --  -10.21444 -10.21367 -10.21166 -10.21146 -10.21081
 Alpha  occ. eigenvalues --  -10.20986 -10.20809 -10.20682 -10.20093 -10.19634
 Alpha  occ. eigenvalues --   -3.08625  -1.83550  -1.83115  -1.83034  -1.15531
 Alpha  occ. eigenvalues --   -1.13074  -1.04919  -1.04009  -1.03700  -0.99380
 Alpha  occ. eigenvalues --   -0.98670  -0.98114  -0.95711  -0.87338  -0.87233
 Alpha  occ. eigenvalues --   -0.85869  -0.85299  -0.84569  -0.84170  -0.83869
 Alpha  occ. eigenvalues --   -0.83661  -0.83288  -0.83162  -0.81851  -0.80809
 Alpha  occ. eigenvalues --   -0.80125  -0.79579  -0.79028  -0.78204  -0.77888
 Alpha  occ. eigenvalues --   -0.77245  -0.76300  -0.75738  -0.74600  -0.73364
 Alpha  occ. eigenvalues --   -0.73181  -0.72332  -0.71680  -0.71337  -0.70464
 Alpha  occ. eigenvalues --   -0.70073  -0.69986  -0.69707  -0.68949  -0.68593
 Alpha  occ. eigenvalues --   -0.66608  -0.65900  -0.65521  -0.64702  -0.64402
 Alpha  occ. eigenvalues --   -0.62954  -0.62803  -0.61256  -0.60801  -0.60645
 Alpha  occ. eigenvalues --   -0.60099  -0.58972  -0.58543  -0.58154  -0.57245
 Alpha  occ. eigenvalues --   -0.56492  -0.55931  -0.55870  -0.55782  -0.55140
 Alpha  occ. eigenvalues --   -0.54506  -0.53988  -0.53572  -0.53428  -0.53121
 Alpha  occ. eigenvalues --   -0.52595  -0.52342  -0.51605  -0.51249  -0.51119
 Alpha  occ. eigenvalues --   -0.50870  -0.50548  -0.50207  -0.49592  -0.49238
 Alpha  occ. eigenvalues --   -0.49141  -0.49009  -0.48769  -0.48496  -0.48090
 Alpha  occ. eigenvalues --   -0.47800  -0.47372  -0.47137  -0.47036  -0.46693
 Alpha  occ. eigenvalues --   -0.46595  -0.46467  -0.46187  -0.46026  -0.45716
 Alpha  occ. eigenvalues --   -0.45531  -0.45346  -0.45035  -0.44900  -0.44694
 Alpha  occ. eigenvalues --   -0.44386  -0.44117  -0.43971  -0.43742  -0.43464
 Alpha  occ. eigenvalues --   -0.43246  -0.43131  -0.42783  -0.42453  -0.42385
 Alpha  occ. eigenvalues --   -0.42219  -0.41925  -0.41732  -0.41598  -0.41496
 Alpha  occ. eigenvalues --   -0.41277  -0.41110  -0.40929  -0.40497  -0.40398
 Alpha  occ. eigenvalues --   -0.40278  -0.40220  -0.40093  -0.39767  -0.39652
 Alpha  occ. eigenvalues --   -0.39586  -0.39179  -0.38917  -0.38755  -0.38674
 Alpha  occ. eigenvalues --   -0.38442  -0.38323  -0.38180  -0.38056  -0.37907
 Alpha  occ. eigenvalues --   -0.37878  -0.37601  -0.37525  -0.37249  -0.36945
 Alpha  occ. eigenvalues --   -0.36727  -0.36546  -0.36146  -0.36135  -0.35746
 Alpha  occ. eigenvalues --   -0.35381  -0.34954  -0.34810  -0.34751  -0.34737
 Alpha  occ. eigenvalues --   -0.33961  -0.33915  -0.33825  -0.33607  -0.33279
 Alpha  occ. eigenvalues --   -0.33259  -0.33167  -0.32996  -0.32756  -0.32613
 Alpha  occ. eigenvalues --   -0.32459  -0.31871  -0.31751  -0.30686  -0.30421
 Alpha  occ. eigenvalues --   -0.30093  -0.29727  -0.29412  -0.28919  -0.28330
 Alpha  occ. eigenvalues --   -0.26984  -0.26343  -0.25176  -0.24840  -0.21963
 Alpha  occ. eigenvalues --   -0.20126
 Alpha virt. eigenvalues --   -0.07813  -0.03900  -0.01016   0.02381   0.03177
 Alpha virt. eigenvalues --    0.04017   0.04091   0.04687   0.04914   0.05571
 Alpha virt. eigenvalues --    0.06230   0.07977   0.08818   0.08933   0.08990

 Mulliken charges:
               1
     1  Mg   0.828678
     2  C    0.094917
     3  C   -0.160926
     4  C   -0.156941
     5  C   -0.190878
     6  N   -0.624620
     7  C    0.298665
     8  C   -0.141458
     9  C   -0.152137
    10  C    0.326105
    11  C   -0.297473
    12  C   -0.153969
    13  C   -0.270198
    14  C    0.595876
    15  O   -0.456956
    16  O   -0.464178
    17  N   -0.694124
    18  C    0.300781
    19  C    0.023176
    20  C   -0.036025
    21  C    0.311006
    22  C   -0.371168
    23  C    0.013745
    24  C   -0.281721
    25  N   -0.709974
    26  C    0.324290
    27  C    0.024532
    28  C    0.040967
    29  C    0.293535
    30  C   -0.360163
    31  C   -0.257140
    32  C   -0.296814
    33  N   -0.712747
    34  C    0.262094
    35  C    0.046898
    36  C    0.161031
    37  C    0.230067
    38  C   -0.388972
    39  C    0.259251
    40  O   -0.488242
    41  C   -0.341902
    42  C    0.645682
    43  O   -0.492349
    44  O   -0.408016
    45  C   -0.082618
    46  C    0.022698
    47  C   -0.137759
    48  C    0.176232
    49  C   -0.344688
    50  C   -0.226060
    51  C   -0.211096
    52  C   -0.158262
    53  C   -0.062864
    54  C   -0.305094
    55  C   -0.171277
    56  C   -0.163552
    57  C   -0.155016
    58  C   -0.056541
    59  C   -0.290518
    60  C   -0.119148
    61  C   -0.190001
    62  C   -0.156139
    63  C   -0.056880
    64  C   -0.321651
    65  C   -0.306507
    66  H    0.062857
    67  H    0.074945
    68  H    0.089397
    69  H    0.130115
    70  H    0.109697
    71  H    0.117878
    72  H    0.117281
    73  H    0.077858
    74  H    0.101454
    75  H    0.129934
    76  H    0.119138
    77  H    0.121709
    78  H    0.111343
    79  H    0.141897
    80  H    0.092067
    81  H    0.081571
    82  H    0.079776
    83  H    0.115098
    84  H    0.151757
    85  H    0.085160
    86  H    0.087554
    87  H    0.068383
    88  H    0.100932
    89  H    0.112553
    90  H    0.114770
    91  H    0.103687
    92  H    0.138230
    93  H    0.138585
    94  H    0.112468
    95  H    0.157976
    96  H    0.134806
    97  H    0.108584
    98  H    0.123277
    99  H    0.109176
   100  H    0.108522
   101  H    0.082237
   102  H    0.087143
   103  H    0.090888
   104  H    0.108882
   105  H    0.115841
   106  H    0.098657
   107  H    0.099350
   108  H    0.101822
   109  H    0.076522
   110  H    0.080463
   111  H    0.090200
   112  H    0.091358
   113  H    0.112555
   114  H    0.074638
   115  H    0.095252
   116  H    0.077565
   117  H    0.086383
   118  H    0.106878
   119  H    0.066095
   120  H    0.094008
   121  H    0.032454
   122  H    0.100080
   123  H    0.083484
   124  H    0.098128
   125  H    0.096777
   126  H    0.056443
   127  H    0.074830
   128  H    0.096719
   129  H    0.088416
   130  H    0.082273
   131  H    0.069903
   132  H    0.088781
   133  H    0.094575
   134  H    0.105478
   135  H    0.104106
   136  H    0.096265
   137  H    0.108649
 Sum of Mulliken charges =  -0.00000

 Dipole moment (field-independent basis, Debye):
    X=              2.1379    Y=              4.1786    Z=              0.1782  Tot=              4.6971
 Quadrupole moment (field-independent basis, Debye-Ang):
   XX=           -350.5360   YY=           -399.9052   ZZ=           -397.7538
   XY=            -14.5818   XZ=             11.4780   YZ=              1.3814

 Normal termination of Gaussian 16 at Sun Sep 22 15:43:21 2019.
