 Gaussian 16, Revision A.03,
 Gaussian 16:  ES64L-G16RevA.03 25-Dec-2016

 ----------------------------------------------------------------------
 # td=(NStates=1) iop(3/107=0140000000,3/108=0140000000) CAM-B3LYP/6-31
 G(d,p)
 ----------------------------------------------------------------------

 --
 TD
 --
 Symbolic Z-matrix:
 Charge =  0 Multiplicity = 1

                         Standard orientation:
 ---------------------------------------------------------------------
 Center     Atomic      Atomic             Coordinates (Angstroms)
 Number     Number       Type             X           Y           Z
 ---------------------------------------------------------------------
      1         12           0       -7.209089    0.603660    0.223066
      2          6           0       -4.932575   -2.057478    0.477204
      3          6           0       -4.732492    2.714977    1.154960
      4          6           0       -9.325187    3.181804   -0.391155
      5          6           0       -9.621719   -1.703983   -0.827264
      6          7           0       -5.140633    0.322828    0.778482
      7          6           0       -4.444807   -0.740632    0.900870
      8          6           0       -2.943511   -0.443115    1.262328
      9          6           0       -3.032256    1.005118    1.667964
     10          6           0       -4.350293    1.405431    1.108274
     11          6           0       -2.951534    1.185823    3.153706
     12          6           0       -1.990872   -0.783722   -0.004345
     13          6           0       -0.540970   -0.569051    0.425295
     14          6           0        0.488762   -0.780735   -0.604574
     15          8           0        0.203122   -1.307610   -1.754165
     16          8           0        1.752000   -0.353704   -0.241821
     17          7           0       -7.047316    2.605410    0.241049
     18          6           0       -5.956242    3.345635    0.736441
     19          6           0       -6.274932    4.725075    0.820916
     20          6           0       -7.551437    4.901375    0.320364
     21          6           0       -8.010524    3.545514    0.050790
     22          6           0       -5.298419    5.825161    1.085096
     23          6           0       -8.284638    6.125852    0.239625
     24          6           0       -8.055699    7.376414    0.862706
     25          7           0       -9.055425    0.797993   -0.625317
     26          6           0       -9.808899    1.889499   -0.630527
     27          6           0      -11.180412    1.561326   -1.129001
     28          6           0      -11.242799    0.255560   -1.251942
     29          6           0       -9.945786   -0.350161   -0.889309
     30          6           0      -12.176001    2.752942   -1.380519
     31          6           0      -12.384049   -0.540356   -1.790029
     32          6           0      -12.035334   -1.154443   -3.195694
     33          7           0       -7.261329   -1.335533   -0.260654
     34          6           0       -8.325181   -2.202606   -0.513725
     35          6           0       -7.961034   -3.557384   -0.477044
     36          6           0       -6.620819   -3.588999   -0.033872
     37          6           0       -6.260556   -2.275541    0.065109
     38          6           0       -8.767483   -4.735138   -0.733941
     39          6           0       -5.493148   -4.419724    0.254970
     40          8           0       -5.410323   -5.685717    0.303150
     41          6           0       -4.235700   -3.516626    0.461199
     42          6           0       -3.580646   -3.750251    1.883252
     43          8           0       -3.657404   -3.070517    2.869732
     44          8           0       -2.774868   -4.713510    1.729311
     45          6           0       -2.126182   -5.181838    2.922348
     46          6           0        2.773689   -0.612669   -1.194614
     47          6           0        4.159251   -0.401203   -0.553187
     48          6           0        5.137465    0.391000   -0.967822
     49          6           0        5.040671    1.352951   -2.104133
     50          6           0        6.384817    0.439619   -0.132964
     51          6           0        7.538277   -0.214714   -0.801300
     52          6           0        8.900453   -0.187511   -0.060291
     53          6           0       10.148821   -0.545862   -0.957033
     54          6           0       10.110007   -1.960618   -1.479436
     55          6           0       11.448768   -0.423356   -0.063320
     56          6           0       12.806092   -0.446954   -0.794233
     57          6           0       13.976712   -0.224901    0.212924
     58          6           0       15.378602   -0.294839   -0.551484
     59          6           0       15.700413   -1.662215   -1.017638
     60          6           0       16.386271    0.386030    0.460003
     61          6           0       17.752478    0.422358   -0.026561
     62          6           0       18.729438    1.367559    0.842608
     63          6           0       20.124072    1.312452    0.286205
     64          6           0       20.236822    2.147316   -1.045994
     65          6           0       21.063191    2.043892    1.280413
     66          1           0       -3.826216    3.419121    1.476815
     67          1           0      -10.034782    3.933198   -0.305077
     68          1           0      -10.457046   -2.471246   -1.113774
     69          1           0       -2.763051   -1.209452    2.052281
     70          1           0       -2.261546    1.732033    1.228427
     71          1           0       -2.069463    0.923281    3.561020
     72          1           0       -3.565175    2.228563    3.506597
     73          1           0       -3.729383    0.461371    3.723562
     74          1           0       -1.924834   -1.694559   -0.448911
     75          1           0       -2.412229   -0.018400   -0.663097
     76          1           0       -0.215033    0.437584    0.788198
     77          1           0       -0.233001   -1.035949    1.135036
     78          1           0       -5.696270    6.834989    0.621884
     79          1           0       -5.199184    6.142988    2.166162
     80          1           0       -4.343855    5.473416    0.621550
     81          1           0       -9.061929    6.241222   -0.512906
     82          1           0       -8.683366    7.993689    0.365348
     83          1           0       -7.145483    7.520863    1.467742
     84          1           0      -11.658266    3.792931   -1.817849
     85          1           0      -13.117132    2.337293   -1.900875
     86          1           0      -12.580070    2.866197   -0.260588
     87          1           0      -12.454825   -1.483654   -1.280976
     88          1           0      -13.372542   -0.091396   -1.836175
     89          1           0      -12.646014   -1.908741   -3.736911
     90          1           0      -11.709342   -0.131659   -4.157301
     91          1           0      -11.084638   -1.728253   -3.111196
     92          1           0       -8.813107   -4.914594   -1.838094
     93          1           0       -8.030539   -5.609945   -0.459797
     94          1           0       -9.795638   -4.611352   -0.415612
     95          1           0       -3.667717   -3.627425   -0.411087
     96          1           0       -1.612504   -4.414604    3.389208
     97          1           0       -2.761492   -5.910892    3.461708
     98          1           0       -1.228054   -5.870729    2.440370
     99          1           0        2.839273   -1.761668   -1.683528
    100          1           0        2.692632    0.187410   -1.996567
    101          1           0        4.134293   -0.955193    0.404905
    102          1           0        3.991312    1.460265   -2.443282
    103          1           0        5.317344    2.315731   -1.747926
    104          1           0        5.676318    0.919209   -2.941844
    105          1           0        6.581132    1.464466    0.164391
    106          1           0        6.068606    0.017837    0.744465
    107          1           0        7.222513   -1.191585   -0.998438
    108          1           0        7.794558    0.140539   -1.983481
    109          1           0        9.021272    0.837254    0.187814
    110          1           0        8.823692   -0.629080    0.929291
    111          1           0       10.223247    0.248465   -1.835601
    112          1           0        9.100286   -1.976857   -1.815708
    113          1           0       10.732022   -2.414746   -2.309577
    114          1           0       10.244251   -2.847835   -0.551760
    115          1           0       11.455969    0.633786    0.217557
    116          1           0       11.417865   -1.136044    0.818307
    117          1           0       12.713170   -1.355632   -1.116997
    118          1           0       12.717593    0.139662   -1.607650
    119          1           0       13.837129    0.757536    0.662653
    120          1           0       13.856564   -0.839295    1.014292
    121          1           0       15.213371    0.504653   -1.341298
    122          1           0       16.220479   -2.255420   -0.067941
    123          1           0       14.870467   -2.207790   -1.750049
    124          1           0       16.807148   -1.480853   -1.637951
    125          1           0       16.165103    1.458655    0.606749
    126          1           0       16.154726   -0.334042    1.374513
    127          1           0       18.324502   -0.548526   -0.293689
    128          1           0       17.751377    0.961146   -1.064822
    129          1           0       18.561026    2.456351    0.849473
    130          1           0       18.669013    0.884883    2.029873
    131          1           0       20.601218    0.255358    0.131245
    132          1           0       19.721351    3.049536   -1.018766
    133          1           0       21.152420    2.360190   -1.514865
    134          1           0       19.726886    1.570829   -1.937541
    135          1           0       20.977334    1.577093    2.437616
    136          1           0       22.040182    2.110045    1.179260
    137          1           0       20.820255    3.083087    1.314115
 ---------------------------------------------------------------------

 SCF Done:  E(RCAM-B3LYP) =  -2933.39129981     A.U. after   16 cycles

 Excitation energies and oscillator strengths:

 Excited State   1:      Singlet-A      1.9024 eV  651.74 nm  f=0.3429  <S**2>=0.000
     240 -> 243       -0.20635
     241 -> 242        0.67152
 This state for optimization and/or second-order correction.
 Total Energy, E(TD-HF/TD-DFT) =  -2933.32138969
 Copying the excited state density for this state as the 1-particle RhoCI density.

 The electronic state is 1-A.
 Alpha  occ. eigenvalues --  -46.79853 -19.23555 -19.23412 -19.16906 -19.16380
 Alpha  occ. eigenvalues --  -19.15558 -14.38121 -14.35626 -14.35339 -14.35087
 Alpha  occ. eigenvalues --  -10.35212 -10.34961 -10.30321 -10.28898 -10.28477
 Alpha  occ. eigenvalues --  -10.26565 -10.25742 -10.25652 -10.25437 -10.25264
 Alpha  occ. eigenvalues --  -10.25171 -10.24676 -10.24590 -10.24513 -10.24341
 Alpha  occ. eigenvalues --  -10.23978 -10.23858 -10.23707 -10.23634 -10.23484
 Alpha  occ. eigenvalues --  -10.23300 -10.23271 -10.23168 -10.23128 -10.23061
 Alpha  occ. eigenvalues --  -10.22929 -10.22843 -10.22792 -10.22689 -10.22626
 Alpha  occ. eigenvalues --  -10.22568 -10.22455 -10.22313 -10.22309 -10.22123
 Alpha  occ. eigenvalues --  -10.22111 -10.21981 -10.21917 -10.21891 -10.21846
 Alpha  occ. eigenvalues --  -10.21843 -10.21804 -10.21715 -10.21612 -10.21583
 Alpha  occ. eigenvalues --  -10.21490 -10.21465 -10.20961 -10.20570 -10.20551
 Alpha  occ. eigenvalues --  -10.20221 -10.20092 -10.19612 -10.19605 -10.17767
 Alpha  occ. eigenvalues --   -3.08550  -1.83464  -1.83013  -1.82978  -1.17080
 Alpha  occ. eigenvalues --   -1.12223  -1.05807  -1.02959  -1.01285  -1.01185
 Alpha  occ. eigenvalues --   -0.98259  -0.97868  -0.96592  -0.86906  -0.86867
 Alpha  occ. eigenvalues --   -0.85987  -0.85100  -0.84435  -0.84276  -0.84070
 Alpha  occ. eigenvalues --   -0.83818  -0.82835  -0.82595  -0.82229  -0.81343
 Alpha  occ. eigenvalues --   -0.80376  -0.79628  -0.78851  -0.78173  -0.77294
 Alpha  occ. eigenvalues --   -0.77048  -0.76425  -0.75449  -0.75097  -0.73767
 Alpha  occ. eigenvalues --   -0.73235  -0.72322  -0.72019  -0.71415  -0.71140
 Alpha  occ. eigenvalues --   -0.69964  -0.69612  -0.69569  -0.69242  -0.67982
 Alpha  occ. eigenvalues --   -0.67097  -0.66113  -0.64909  -0.64627  -0.64227
 Alpha  occ. eigenvalues --   -0.63006  -0.62211  -0.61471  -0.61176  -0.60677
 Alpha  occ. eigenvalues --   -0.60266  -0.59010  -0.58303  -0.57982  -0.57956
 Alpha  occ. eigenvalues --   -0.56540  -0.56384  -0.56099  -0.55862  -0.55381
 Alpha  occ. eigenvalues --   -0.55114  -0.54677  -0.54285  -0.53491  -0.53196
 Alpha  occ. eigenvalues --   -0.52875  -0.52442  -0.51865  -0.51362  -0.51021
 Alpha  occ. eigenvalues --   -0.50947  -0.50533  -0.50437  -0.49871  -0.49446
 Alpha  occ. eigenvalues --   -0.49312  -0.49025  -0.48400  -0.48139  -0.47922
 Alpha  occ. eigenvalues --   -0.47675  -0.47430  -0.46921  -0.46692  -0.46449
 Alpha  occ. eigenvalues --   -0.46352  -0.46072  -0.45921  -0.45826  -0.45557
 Alpha  occ. eigenvalues --   -0.45452  -0.45282  -0.45105  -0.44788  -0.44390
 Alpha  occ. eigenvalues --   -0.44271  -0.44196  -0.43655  -0.43552  -0.43350
 Alpha  occ. eigenvalues --   -0.43162  -0.43062  -0.42686  -0.42644  -0.42449
 Alpha  occ. eigenvalues --   -0.42369  -0.42164  -0.41999  -0.41612  -0.41365
 Alpha  occ. eigenvalues --   -0.41190  -0.41160  -0.40942  -0.40664  -0.40412
 Alpha  occ. eigenvalues --   -0.40308  -0.40210  -0.40208  -0.39934  -0.39771
 Alpha  occ. eigenvalues --   -0.39437  -0.39300  -0.39205  -0.39111  -0.39022
 Alpha  occ. eigenvalues --   -0.38854  -0.38444  -0.38081  -0.38066  -0.37865
 Alpha  occ. eigenvalues --   -0.37674  -0.37589  -0.37424  -0.37224  -0.36944
 Alpha  occ. eigenvalues --   -0.36778  -0.36530  -0.36403  -0.36327  -0.36059
 Alpha  occ. eigenvalues --   -0.35597  -0.35078  -0.34835  -0.34702  -0.34696
 Alpha  occ. eigenvalues --   -0.34482  -0.34454  -0.34185  -0.33780  -0.33709
 Alpha  occ. eigenvalues --   -0.33457  -0.33231  -0.32861  -0.32718  -0.32321
 Alpha  occ. eigenvalues --   -0.32163  -0.31386  -0.31087  -0.30866  -0.30828
 Alpha  occ. eigenvalues --   -0.29848  -0.29609  -0.29283  -0.28454  -0.27252
 Alpha  occ. eigenvalues --   -0.27014  -0.26455  -0.26058  -0.25051  -0.21718
 Alpha  occ. eigenvalues --   -0.19582
 Alpha virt. eigenvalues --   -0.07723  -0.03462  -0.00605   0.01511   0.02683
 Alpha virt. eigenvalues --    0.03295   0.04260   0.04827   0.04941   0.06192
 Alpha virt. eigenvalues --    0.07221   0.08153   0.09258   0.09341   0.09509

 Mulliken charges:
               1
     1  Mg   0.827467
     2  C   -0.020397
     3  C   -0.206968
     4  C   -0.169887
     5  C   -0.195993
     6  N   -0.590746
     7  C    0.299665
     8  C   -0.186479
     9  C   -0.126734
    10  C    0.331548
    11  C   -0.294581
    12  C   -0.151502
    13  C   -0.230547
    14  C    0.584696
    15  O   -0.504715
    16  O   -0.463745
    17  N   -0.708502
    18  C    0.283197
    19  C    0.033945
    20  C    0.064853
    21  C    0.290883
    22  C   -0.390561
    23  C   -0.137661
    24  C   -0.212524
    25  N   -0.681509
    26  C    0.320847
    27  C    0.039188
    28  C    0.051475
    29  C    0.271930
    30  C   -0.362364
    31  C   -0.250979
    32  C   -0.282598
    33  N   -0.720305
    34  C    0.289157
    35  C    0.039480
    36  C    0.093094
    37  C    0.269046
    38  C   -0.406523
    39  C    0.314812
    40  O   -0.501485
    41  C   -0.286754
    42  C    0.611394
    43  O   -0.474020
    44  O   -0.378501
    45  C   -0.101456
    46  C    0.025347
    47  C   -0.141360
    48  C    0.110588
    49  C   -0.355158
    50  C   -0.219139
    51  C   -0.169403
    52  C   -0.170189
    53  C   -0.070007
    54  C   -0.286681
    55  C   -0.188609
    56  C   -0.175694
    57  C   -0.178304
    58  C   -0.040915
    59  C   -0.282286
    60  C   -0.148681
    61  C   -0.179964
    62  C   -0.136187
    63  C   -0.054946
    64  C   -0.324606
    65  C   -0.291021
    66  H    0.080171
    67  H    0.077587
    68  H    0.087583
    69  H    0.128056
    70  H    0.101954
    71  H    0.123054
    72  H    0.088409
    73  H    0.102371
    74  H    0.133731
    75  H    0.117964
    76  H    0.123027
    77  H    0.137226
    78  H    0.109291
    79  H    0.118502
    80  H    0.117207
    81  H    0.088312
    82  H    0.102154
    83  H    0.098120
    84  H    0.118268
    85  H    0.114314
    86  H    0.117913
    87  H    0.113922
    88  H    0.109542
    89  H    0.109275
    90  H    0.025721
    91  H    0.112238
    92  H    0.128868
    93  H    0.148789
    94  H    0.123523
    95  H    0.173024
    96  H    0.147604
    97  H    0.150339
    98  H    0.100543
    99  H    0.113796
   100  H    0.104151
   101  H    0.084026
   102  H    0.107244
   103  H    0.124172
   104  H    0.122176
   105  H    0.091527
   106  H    0.108838
   107  H    0.114238
   108  H    0.052729
   109  H    0.101851
   110  H    0.096522
   111  H    0.074022
   112  H    0.104202
   113  H    0.105972
   114  H    0.057304
   115  H    0.077853
   116  H    0.081068
   117  H    0.101727
   118  H    0.090445
   119  H    0.084562
   120  H    0.094470
   121  H    0.077918
   122  H    0.088042
   123  H    0.107608
   124  H    0.066611
   125  H    0.098848
   126  H    0.073459
   127  H    0.088238
   128  H    0.081503
   129  H    0.093180
   130  H    0.057332
   131  H    0.079458
   132  H    0.110370
   133  H    0.113322
   134  H    0.080381
   135  H    0.055550
   136  H    0.110238
   137  H    0.095019
 Sum of Mulliken charges =  -0.00000

 Dipole moment (field-independent basis, Debye):
    X=              1.8521    Y=              3.7447    Z=              1.7595  Tot=              4.5331
 Quadrupole moment (field-independent basis, Debye-Ang):
   XX=           -356.4764   YY=           -396.6868   ZZ=           -402.5067
   XY=             -6.6198   XZ=             -5.1048   YZ=             -6.4006

 Normal termination of Gaussian 16 at Fri Sep  6 07:18:01 2019.
