 Gaussian 16, Revision A.03,
 Gaussian 16:  ES64L-G16RevA.03 25-Dec-2016

 ----------------------------------------------------------------------
 # td=(NStates=1) iop(3/107=0140000000,3/108=0140000000) CAM-B3LYP/6-31
 G(d,p)
 ----------------------------------------------------------------------

 --
 TD
 --
 Symbolic Z-matrix:
 Charge =  0 Multiplicity = 1

                         Standard orientation:
 ---------------------------------------------------------------------
 Center     Atomic      Atomic             Coordinates (Angstroms)
 Number     Number       Type             X           Y           Z
 ---------------------------------------------------------------------
      1         12           0       -7.139460    0.650443    0.054836
      2          6           0       -4.849129   -2.009497    0.650477
      3          6           0       -4.663248    2.825694    1.265094
      4          6           0       -9.289067    3.224331   -0.386038
      5          6           0       -9.557652   -1.661351   -0.734129
      6          7           0       -5.009103    0.423780    0.724628
      7          6           0       -4.300830   -0.757707    0.757227
      8          6           0       -2.839919   -0.430439    1.226512
      9          6           0       -2.976779    0.965157    1.662396
     10          6           0       -4.345574    1.466127    1.240059
     11          6           0       -2.963920    1.026055    3.311133
     12          6           0       -1.979314   -0.659060   -0.007464
     13          6           0       -0.513917   -0.534383    0.424290
     14          6           0        0.496445   -0.678683   -0.764178
     15          8           0        0.262528   -0.893323   -1.898983
     16          8           0        1.728610   -0.484740   -0.243342
     17          7           0       -7.037455    2.657329    0.392541
     18          6           0       -6.008635    3.322421    0.738146
     19          6           0       -6.259069    4.765394    0.841949
     20          6           0       -7.623998    4.921381    0.408913
     21          6           0       -8.031671    3.554877    0.115432
     22          6           0       -5.274402    5.859528    1.279406
     23          6           0       -8.386689    6.066158    0.179612
     24          6           0       -8.263988    7.253800    0.747478
     25          7           0       -9.058082    0.743541   -0.489405
     26          6           0       -9.744133    1.961084   -0.710382
     27          6           0      -11.172058    1.600760   -1.115377
     28          6           0      -11.291115    0.259022   -1.208209
     29          6           0       -9.889795   -0.279325   -0.784247
     30          6           0      -12.208295    2.587202   -1.484102
     31          6           0      -12.330537   -0.498321   -1.727795
     32          6           0      -12.353438   -1.023420   -3.287121
     33          7           0       -7.268432   -1.389793   -0.078036
     34          6           0       -8.274042   -2.206354   -0.468684
     35          6           0       -7.875695   -3.622817   -0.530132
     36          6           0       -6.512244   -3.613517   -0.118098
     37          6           0       -6.224167   -2.221318    0.114978
     38          6           0       -8.694205   -4.861527   -0.860111
     39          6           0       -5.387074   -4.363084    0.196918
     40          8           0       -5.215550   -5.613675    0.144888
     41          6           0       -4.276039   -3.421150    0.611564
     42          6           0       -3.557597   -3.821235    1.970697
     43          8           0       -3.730590   -3.132377    2.940688
     44          8           0       -2.822776   -4.871103    1.954369
     45          6           0       -2.166834   -5.279013    3.090534
     46          6           0        2.775653   -0.641918   -1.380849
     47          6           0        4.134826   -0.482918   -0.676180
     48          6           0        5.065228    0.355711   -1.016289
     49          6           0        4.912546    1.217802   -2.214786
     50          6           0        6.344374    0.353158   -0.268072
     51          6           0        7.619373   -0.208515   -1.080401
     52          6           0        8.956617   -0.142700   -0.268271
     53          6           0       10.251588   -0.579229   -1.082387
     54          6           0       10.080204   -2.099877   -1.505058
     55          6           0       11.397010   -0.345500   -0.213241
     56          6           0       12.757549   -0.638223   -0.823658
     57          6           0       13.849410   -0.170973    0.139956
     58          6           0       15.280587   -0.141292   -0.525992
     59          6           0       15.716370   -1.624933   -1.013296
     60          6           0       16.326004    0.332734    0.385703
     61          6           0       17.787212    0.605900    0.002386
     62          6           0       18.698752    1.345449    0.971247
     63          6           0       20.102581    1.388925    0.557066
     64          6           0       20.252392    2.205595   -0.853521
     65          6           0       21.002956    2.059799    1.509574
     66          1           0       -3.923022    3.518450    1.602943
     67          1           0       -9.965310    4.002401   -0.557526
     68          1           0      -10.345396   -2.278274   -0.869557
     69          1           0       -2.582794   -1.061497    2.027206
     70          1           0       -2.083600    1.593752    1.330326
     71          1           0       -2.011434    0.401629    3.741843
     72          1           0       -3.047059    2.076109    3.775698
     73          1           0       -3.780151    0.276064    3.574288
     74          1           0       -2.120740   -1.442971   -0.567840
     75          1           0       -2.221281    0.096474   -0.537741
     76          1           0       -0.058035    0.411095    0.867100
     77          1           0       -0.169784   -1.321479    1.163183
     78          1           0       -5.678229    6.737930    0.728603
     79          1           0       -5.356842    6.344082    2.264435
     80          1           0       -4.322727    5.329930    0.962667
     81          1           0       -9.261158    5.691716   -0.507656
     82          1           0       -8.992288    8.022075    0.830464
     83          1           0       -7.270714    7.392696    1.421481
     84          1           0      -12.002794    2.908808   -2.548731
     85          1           0      -13.127975    1.993427   -1.842277
     86          1           0      -12.423255    3.319291   -0.554029
     87          1           0      -12.518497   -1.434371   -1.032739
     88          1           0      -13.235070   -0.061853   -1.571270
     89          1           0      -13.428688   -1.312580   -3.509409
     90          1           0      -12.110681   -0.174671   -3.879173
     91          1           0      -11.519032   -1.926433   -3.305323
     92          1           0       -8.915289   -4.835491   -1.994260
     93          1           0       -8.101398   -5.761167   -0.488508
     94          1           0       -9.727978   -4.918537   -0.292130
     95          1           0       -3.555621   -3.578236   -0.203520
     96          1           0       -1.570944   -4.370036    3.338215
     97          1           0       -2.833352   -5.984543    3.796176
     98          1           0       -1.327537   -6.137873    2.731448
     99          1           0        2.781068   -1.679483   -1.826776
    100          1           0        2.298441   -0.018894   -1.990228
    101          1           0        4.281742   -1.154970    0.252514
    102          1           0        3.836190    0.723965   -2.668947
    103          1           0        5.132125    2.263580   -2.144287
    104          1           0        5.794422    0.988650   -3.011353
    105          1           0        6.370739    1.356796    0.019854
    106          1           0        6.268529   -0.309058    0.416591
    107          1           0        7.374691   -1.218228   -1.333435
    108          1           0        7.939502    0.400412   -2.053428
    109          1           0        9.011612    0.960024   -0.041889
    110          1           0        8.895657   -0.672808    0.654355
    111          1           0       10.312685   -0.032090   -2.204120
    112          1           0        9.345091   -2.121154   -2.175799
    113          1           0       11.129771   -2.481540   -1.941826
    114          1           0        9.558749   -2.906876   -0.777754
    115          1           0       11.428194    0.653672    0.139780
    116          1           0       11.354709   -0.985259    0.659399
    117          1           0       12.733846   -1.602671   -1.129774
    118          1           0       12.924845   -0.283521   -2.101281
    119          1           0       13.684494    0.871418    0.380974
    120          1           0       14.115998   -0.711354    1.251817
    121          1           0       15.320415    0.418108   -1.386124
    122          1           0       15.457750   -2.347491   -0.287908
    123          1           0       15.134889   -1.909316   -2.074213
    124          1           0       16.822651   -1.805384   -1.198488
    125          1           0       16.177034    1.661714    0.500224
    126          1           0       16.515338   -0.049694    1.429917
    127          1           0       18.340995   -0.325360   -0.269538
    128          1           0       17.671732    1.019313   -1.058370
    129          1           0       18.194254    2.381042    0.960693
    130          1           0       18.622512    1.075105    1.806463
    131          1           0       20.746972    0.348424    0.404413
    132          1           0       19.500679    3.161488   -0.672610
    133          1           0       21.338789    2.490350   -1.103332
    134          1           0       19.807933    1.778467   -1.716055
    135          1           0       21.087563    1.339807    2.356897
    136          1           0       21.846448    2.118448    0.921594
    137          1           0       20.601223    3.166201    1.686480
 ---------------------------------------------------------------------

 SCF Done:  E(RCAM-B3LYP) =  -2933.33148972     A.U. after   16 cycles

 Excitation energies and oscillator strengths:

 Excited State   1:      Singlet-A      1.9540 eV  634.52 nm  f=0.3058  <S**2>=0.000
     240 -> 243       -0.20306
     241 -> 242        0.67346
 This state for optimization and/or second-order correction.
 Total Energy, E(TD-HF/TD-DFT) =  -2933.25968229
 Copying the excited state density for this state as the 1-particle RhoCI density.

 The electronic state is 1-A.
 Alpha  occ. eigenvalues --  -46.80929 -19.22858 -19.20879 -19.16578 -19.15585
 Alpha  occ. eigenvalues --  -19.14442 -14.37033 -14.36267 -14.35935 -14.35761
 Alpha  occ. eigenvalues --  -10.34343 -10.33313 -10.29657 -10.29058 -10.27182
 Alpha  occ. eigenvalues --  -10.25856 -10.25842 -10.25787 -10.25584 -10.25575
 Alpha  occ. eigenvalues --  -10.25216 -10.25142 -10.25029 -10.24650 -10.24008
 Alpha  occ. eigenvalues --  -10.23724 -10.23625 -10.23579 -10.23555 -10.23217
 Alpha  occ. eigenvalues --  -10.23188 -10.23143 -10.23091 -10.22984 -10.22882
 Alpha  occ. eigenvalues --  -10.22851 -10.22687 -10.22634 -10.22614 -10.22603
 Alpha  occ. eigenvalues --  -10.22597 -10.22546 -10.22480 -10.22476 -10.22429
 Alpha  occ. eigenvalues --  -10.22227 -10.22159 -10.22055 -10.21996 -10.21943
 Alpha  occ. eigenvalues --  -10.21881 -10.21858 -10.21830 -10.21517 -10.21478
 Alpha  occ. eigenvalues --  -10.21432 -10.21412 -10.21356 -10.20839 -10.20828
 Alpha  occ. eigenvalues --  -10.20097 -10.19977 -10.19968 -10.19532 -10.19183
 Alpha  occ. eigenvalues --   -3.09460  -1.84403  -1.83911  -1.83883  -1.16645
 Alpha  occ. eigenvalues --   -1.12614  -1.05101  -1.04098  -1.02617  -1.00915
 Alpha  occ. eigenvalues --   -0.99379  -0.98271  -0.96901  -0.87260  -0.86918
 Alpha  occ. eigenvalues --   -0.86043  -0.85462  -0.85370  -0.85097  -0.84847
 Alpha  occ. eigenvalues --   -0.83389  -0.83380  -0.82038  -0.81142  -0.80445
 Alpha  occ. eigenvalues --   -0.79727  -0.79043  -0.78653  -0.78137  -0.77937
 Alpha  occ. eigenvalues --   -0.77273  -0.76516  -0.75323  -0.74771  -0.73352
 Alpha  occ. eigenvalues --   -0.72364  -0.71921  -0.71729  -0.71440  -0.71119
 Alpha  occ. eigenvalues --   -0.70127  -0.69916  -0.69681  -0.68455  -0.68026
 Alpha  occ. eigenvalues --   -0.66754  -0.66583  -0.65800  -0.65274  -0.64436
 Alpha  occ. eigenvalues --   -0.64125  -0.62500  -0.60819  -0.60743  -0.60495
 Alpha  occ. eigenvalues --   -0.59787  -0.58888  -0.58450  -0.58177  -0.58056
 Alpha  occ. eigenvalues --   -0.57144  -0.56336  -0.55986  -0.55547  -0.55138
 Alpha  occ. eigenvalues --   -0.54675  -0.54277  -0.53783  -0.53612  -0.52577
 Alpha  occ. eigenvalues --   -0.52352  -0.51792  -0.51376  -0.51172  -0.50955
 Alpha  occ. eigenvalues --   -0.50841  -0.50781  -0.50112  -0.49984  -0.49423
 Alpha  occ. eigenvalues --   -0.49201  -0.49074  -0.48699  -0.48570  -0.48317
 Alpha  occ. eigenvalues --   -0.47889  -0.47728  -0.47412  -0.47189  -0.47003
 Alpha  occ. eigenvalues --   -0.46594  -0.46539  -0.46314  -0.46198  -0.46048
 Alpha  occ. eigenvalues --   -0.45696  -0.45526  -0.45300  -0.45128  -0.45050
 Alpha  occ. eigenvalues --   -0.44513  -0.44363  -0.43994  -0.43832  -0.43429
 Alpha  occ. eigenvalues --   -0.43167  -0.42885  -0.42824  -0.42603  -0.42325
 Alpha  occ. eigenvalues --   -0.42200  -0.41995  -0.41853  -0.41638  -0.41604
 Alpha  occ. eigenvalues --   -0.41321  -0.41093  -0.40832  -0.40777  -0.40479
 Alpha  occ. eigenvalues --   -0.40390  -0.40079  -0.40022  -0.39806  -0.39448
 Alpha  occ. eigenvalues --   -0.39401  -0.39233  -0.38884  -0.38776  -0.38741
 Alpha  occ. eigenvalues --   -0.38480  -0.38316  -0.38191  -0.38036  -0.37918
 Alpha  occ. eigenvalues --   -0.37644  -0.37447  -0.37110  -0.36993  -0.36899
 Alpha  occ. eigenvalues --   -0.36703  -0.36373  -0.36223  -0.36048  -0.35859
 Alpha  occ. eigenvalues --   -0.35721  -0.35639  -0.35197  -0.35011  -0.34827
 Alpha  occ. eigenvalues --   -0.34422  -0.34335  -0.34305  -0.33708  -0.33177
 Alpha  occ. eigenvalues --   -0.33086  -0.32993  -0.32863  -0.32712  -0.32560
 Alpha  occ. eigenvalues --   -0.32146  -0.32109  -0.31436  -0.30335  -0.29622
 Alpha  occ. eigenvalues --   -0.29493  -0.29407  -0.29070  -0.28144  -0.27313
 Alpha  occ. eigenvalues --   -0.27008  -0.26368  -0.26162  -0.24554  -0.21282
 Alpha  occ. eigenvalues --   -0.20005
 Alpha virt. eigenvalues --   -0.07766  -0.03126  -0.00295   0.02089   0.04112
 Alpha virt. eigenvalues --    0.04590   0.04949   0.05462   0.05687   0.06162
 Alpha virt. eigenvalues --    0.06769   0.08050   0.08254   0.08544   0.08999

 Mulliken charges:
               1
     1  Mg   0.840526
     2  C    0.120879
     3  C   -0.181212
     4  C   -0.162454
     5  C   -0.162386
     6  N   -0.626065
     7  C    0.225115
     8  C   -0.139307
     9  C   -0.165001
    10  C    0.371898
    11  C   -0.317694
    12  C   -0.130285
    13  C   -0.284344
    14  C    0.595317
    15  O   -0.466116
    16  O   -0.496202
    17  N   -0.689526
    18  C    0.316481
    19  C   -0.025728
    20  C    0.047444
    21  C    0.284880
    22  C   -0.367697
    23  C   -0.035142
    24  C   -0.274187
    25  N   -0.705936
    26  C    0.278475
    27  C    0.021457
    28  C    0.103028
    29  C    0.293365
    30  C   -0.386041
    31  C   -0.304409
    32  C   -0.295861
    33  N   -0.694087
    34  C    0.280279
    35  C    0.025726
    36  C    0.098175
    37  C    0.226041
    38  C   -0.379900
    39  C    0.310365
    40  O   -0.510714
    41  C   -0.323945
    42  C    0.598934
    43  O   -0.465875
    44  O   -0.372434
    45  C   -0.083268
    46  C   -0.015004
    47  C   -0.150523
    48  C    0.162300
    49  C   -0.352342
    50  C   -0.198632
    51  C   -0.192893
    52  C   -0.173882
    53  C   -0.051260
    54  C   -0.310141
    55  C   -0.153816
    56  C   -0.161281
    57  C   -0.161407
    58  C   -0.043170
    59  C   -0.321467
    60  C   -0.144526
    61  C   -0.193197
    62  C   -0.100140
    63  C   -0.060441
    64  C   -0.311845
    65  C   -0.275165
    66  H    0.084346
    67  H    0.081047
    68  H    0.069904
    69  H    0.119095
    70  H    0.090873
    71  H    0.083927
    72  H    0.107994
    73  H    0.132259
    74  H    0.120723
    75  H    0.121852
    76  H    0.132683
    77  H    0.124410
    78  H    0.119228
    79  H    0.129869
    80  H    0.114691
    81  H    0.072992
    82  H    0.116179
    83  H    0.074584
    84  H    0.130533
    85  H    0.101479
    86  H    0.118840
    87  H    0.085728
    88  H    0.115106
    89  H    0.110437
    90  H    0.121774
    91  H    0.099479
    92  H    0.125314
    93  H    0.152237
    94  H    0.110751
    95  H    0.156294
    96  H    0.130742
    97  H    0.132609
    98  H    0.093489
    99  H    0.130008
   100  H    0.146609
   101  H    0.090265
   102  H    0.085268
   103  H    0.124698
   104  H    0.095673
   105  H    0.104510
   106  H    0.100228
   107  H    0.100527
   108  H    0.075219
   109  H    0.087011
   110  H    0.097244
   111  H    0.060293
   112  H    0.123257
   113  H    0.086415
   114  H    0.076346
   115  H    0.095836
   116  H    0.105761
   117  H    0.117473
   118  H    0.031069
   119  H    0.108814
   120  H    0.071446
   121  H    0.101429
   122  H    0.112722
   123  H    0.067590
   124  H    0.102250
   125  H    0.013528
   126  H    0.084941
   127  H    0.076528
   128  H    0.079255
   129  H    0.080302
   130  H    0.081522
   131  H    0.058487
   132  H    0.070841
   133  H    0.089753
   134  H    0.115702
   135  H    0.096271
   136  H    0.109342
   137  H    0.080361
 Sum of Mulliken charges =  -0.00000

 Dipole moment (field-independent basis, Debye):
    X=              0.1688    Y=              3.3058    Z=             -0.1936  Tot=              3.3158
 Quadrupole moment (field-independent basis, Debye-Ang):
   XX=           -334.7123   YY=           -400.5694   ZZ=           -400.1079
   XY=            -31.0567   XZ=             20.9937   YZ=             -3.7899

 Normal termination of Gaussian 16 at Thu Sep 12 14:36:46 2019.
