 Gaussian 16, Revision A.03,
 Gaussian 16:  ES64L-G16RevA.03 25-Dec-2016

 ----------------------------------------------------------------------
 # td=(NStates=1) iop(3/107=0140000000,3/108=0140000000) CAM-B3LYP/6-31
 G(d,p)
 ----------------------------------------------------------------------

 --
 TD
 --
 Symbolic Z-matrix:
 Charge =  0 Multiplicity = 1

                         Standard orientation:
 ---------------------------------------------------------------------
 Center     Atomic      Atomic             Coordinates (Angstroms)
 Number     Number       Type             X           Y           Z
 ---------------------------------------------------------------------
      1         12           0       -7.135473    0.623891    0.176596
      2          6           0       -4.959338   -2.061285    0.623567
      3          6           0       -4.675606    2.764935    1.163748
      4          6           0       -9.271357    3.106922   -0.360619
      5          6           0       -9.584981   -1.660178   -0.978555
      6          7           0       -5.108821    0.411961    0.922386
      7          6           0       -4.413804   -0.803147    0.970784
      8          6           0       -2.906839   -0.439536    1.346164
      9          6           0       -3.038590    0.965309    1.876238
     10          6           0       -4.350885    1.416697    1.295515
     11          6           0       -3.094794    1.091574    3.475463
     12          6           0       -2.015280   -0.646535    0.123268
     13          6           0       -0.531316   -0.605294    0.619790
     14          6           0        0.481707   -0.804503   -0.567663
     15          8           0        0.208667   -1.030015   -1.726639
     16          8           0        1.718998   -0.476543   -0.179564
     17          7           0       -6.981030    2.663310    0.347740
     18          6           0       -5.868637    3.392412    0.921815
     19          6           0       -6.184263    4.813456    0.856314
     20          6           0       -7.534632    4.849246    0.385694
     21          6           0       -7.965216    3.518616    0.096941
     22          6           0       -5.256912    5.833059    1.071266
     23          6           0       -8.405020    6.006675    0.251242
     24          6           0       -8.190386    7.281091    0.695697
     25          7           0       -9.106767    0.709611   -0.510104
     26          6           0       -9.759886    1.850236   -0.566478
     27          6           0      -11.104181    1.653610   -1.149283
     28          6           0      -11.120420    0.289714   -1.366636
     29          6           0       -9.869637   -0.322563   -0.999760
     30          6           0      -12.081661    2.723061   -1.453578
     31          6           0      -12.336686   -0.544154   -1.937029
     32          6           0      -12.088210   -1.097390   -3.413518
     33          7           0       -7.264623   -1.290119   -0.168245
     34          6           0       -8.357088   -2.187067   -0.617420
     35          6           0       -7.888951   -3.604425   -0.592477
     36          6           0       -6.623725   -3.584294   -0.143401
     37          6           0       -6.274635   -2.176313    0.049204
     38          6           0       -8.731623   -4.667085   -0.900533
     39          6           0       -5.391455   -4.377937    0.270354
     40          8           0       -5.337677   -5.658696    0.280250
     41          6           0       -4.241230   -3.374711    0.619629
     42          6           0       -3.511409   -3.758591    1.884614
     43          8           0       -3.667251   -3.282348    3.028691
     44          8           0       -2.794479   -4.804543    1.680304
     45          6           0       -2.274292   -5.275513    2.946465
     46          6           0        2.723497   -0.665866   -1.176618
     47          6           0        4.030611   -0.454878   -0.508657
     48          6           0        5.114409    0.290910   -1.076289
     49          6           0        4.977868    1.117478   -2.288744
     50          6           0        6.340353    0.379981   -0.316590
     51          6           0        7.564101   -0.190343   -1.183030
     52          6           0        8.827118   -0.127815   -0.310804
     53          6           0       10.169752   -0.568947   -1.029368
     54          6           0       10.033334   -2.035605   -1.428458
     55          6           0       11.295533   -0.231246   -0.063029
     56          6           0       12.754280   -0.464174   -0.811219
     57          6           0       13.887158   -0.003630    0.096956
     58          6           0       15.352294   -0.192961   -0.504173
     59          6           0       15.713418   -1.567388   -0.979538
     60          6           0       16.390221    0.394871    0.467607
     61          6           0       17.865656    0.418991   -0.143505
     62          6           0       18.804206    1.137372    0.779310
     63          6           0       20.170701    1.341336    0.320061
     64          6           0       20.175287    2.280892   -0.858208
     65          6           0       21.108107    1.852691    1.425713
     66          1           0       -3.748232    3.546166    1.372653
     67          1           0      -10.176368    3.765805   -0.330813
     68          1           0      -10.279827   -2.313253   -1.412381
     69          1           0       -2.550646   -1.203562    1.897571
     70          1           0       -2.367130    1.553764    1.455594
     71          1           0       -2.268640    0.576594    4.001361
     72          1           0       -3.053517    2.324015    3.712775
     73          1           0       -4.174232    0.782066    3.732156
     74          1           0       -2.179007   -1.689712   -0.173438
     75          1           0       -1.904856   -0.014332   -0.955598
     76          1           0       -0.345623    0.369243    0.906856
     77          1           0       -0.395660   -1.378651    1.378786
     78          1           0       -5.460645    6.752036    0.632872
     79          1           0       -5.103128    5.981937    2.171020
     80          1           0       -4.184209    5.591179    0.783945
     81          1           0       -9.188943    6.064512   -0.443495
     82          1           0       -8.968183    8.047180    0.259287
     83          1           0       -7.536856    7.558448    1.491241
     84          1           0      -11.608109    3.588282   -2.109860
     85          1           0      -12.970602    2.321205   -1.752466
     86          1           0      -12.331814    3.243950   -0.521448
     87          1           0      -12.489271   -1.259174   -1.260325
     88          1           0      -13.121098    0.049783   -1.961606
     89          1           0      -12.919328   -1.733490   -3.664921
     90          1           0      -12.019465   -0.184021   -4.197331
     91          1           0      -11.157616   -1.763476   -3.476765
     92          1           0       -8.894832   -4.784840   -2.109885
     93          1           0       -8.305861   -5.706059   -0.501777
     94          1           0       -9.887970   -4.728170   -0.522617
     95          1           0       -3.580645   -3.334262   -0.272416
     96          1           0       -1.908497   -4.426845    3.425129
     97          1           0       -2.940405   -5.472918    3.676953
     98          1           0       -1.427801   -6.035546    2.716404
     99          1           0        2.703126   -1.783349   -1.420461
    100          1           0        2.474579   -0.141894   -2.095140
    101          1           0        4.155655   -0.852094    0.285536
    102          1           0        3.881301    1.130911   -2.849786
    103          1           0        5.265184    2.201463   -1.807687
    104          1           0        5.612325    0.713672   -3.070306
    105          1           0        6.723359    1.355598   -0.057152
    106          1           0        5.958899   -0.068899    0.714211
    107          1           0        7.280783   -1.171013   -1.449279
    108          1           0        7.557921    0.522532   -2.145312
    109          1           0        9.014967    0.904026    0.016623
    110          1           0        8.710932   -0.762479    0.593471
    111          1           0       10.380421   -0.083066   -1.851093
    112          1           0        9.065359   -2.182633   -1.963321
    113          1           0       11.069364   -2.452399   -1.906327
    114          1           0        9.997947   -2.571757   -0.541829
    115          1           0       11.345074    0.765870    0.296256
    116          1           0       11.447524   -0.890319    0.816108
    117          1           0       12.879665   -1.542551   -1.134042
    118          1           0       12.647917    0.121319   -1.815807
    119          1           0       13.828661    1.062859    0.301426
    120          1           0       13.809120   -0.591405    0.911415
    121          1           0       15.505180    0.542829   -1.401281
    122          1           0       15.744126   -2.439687   -0.162073
    123          1           0       15.044524   -1.798757   -1.840920
    124          1           0       16.754133   -1.608192   -1.399679
    125          1           0       16.163557    1.653729    0.669279
    126          1           0       16.519403   -0.037289    1.530963
    127          1           0       18.231091   -0.686228   -0.285699
    128          1           0       17.860113    0.921313   -1.050423
    129          1           0       18.645118    2.164355    1.115736
    130          1           0       18.846383    0.433729    1.576582
    131          1           0       20.622860    0.420313   -0.265844
    132          1           0       19.677961    3.350057   -0.558918
    133          1           0       21.222253    2.656165   -1.325724
    134          1           0       19.388928    1.829081   -1.569639
    135          1           0       20.826143    1.487519    2.346372
    136          1           0       22.319224    1.766432    1.133614
    137          1           0       20.836253    2.972960    1.337317
 ---------------------------------------------------------------------

 SCF Done:  E(RCAM-B3LYP) =  -2933.47633366     A.U. after   16 cycles

 Excitation energies and oscillator strengths:

 Excited State   1:      Singlet-A      1.9328 eV  641.46 nm  f=0.2846  <S**2>=0.000
     240 -> 243       -0.21347
     241 -> 242        0.67001
 This state for optimization and/or second-order correction.
 Total Energy, E(TD-HF/TD-DFT) =  -2933.40530312
 Copying the excited state density for this state as the 1-particle RhoCI density.

 The electronic state is 1-A.
 Alpha  occ. eigenvalues --  -46.79555 -19.24012 -19.22036 -19.16768 -19.16736
 Alpha  occ. eigenvalues --  -19.16662 -14.37709 -14.36078 -14.34752 -14.34049
 Alpha  occ. eigenvalues --  -10.35170 -10.34451 -10.32166 -10.27208 -10.26690
 Alpha  occ. eigenvalues --  -10.26200 -10.25890 -10.25639 -10.25503 -10.25183
 Alpha  occ. eigenvalues --  -10.25131 -10.24725 -10.23980 -10.23943 -10.23857
 Alpha  occ. eigenvalues --  -10.23842 -10.23704 -10.23514 -10.23487 -10.23396
 Alpha  occ. eigenvalues --  -10.23209 -10.23147 -10.22961 -10.22881 -10.22805
 Alpha  occ. eigenvalues --  -10.22799 -10.22713 -10.22582 -10.22340 -10.22278
 Alpha  occ. eigenvalues --  -10.22253 -10.22146 -10.22115 -10.22062 -10.22061
 Alpha  occ. eigenvalues --  -10.22031 -10.21830 -10.21825 -10.21824 -10.21726
 Alpha  occ. eigenvalues --  -10.21585 -10.21580 -10.21411 -10.21372 -10.21338
 Alpha  occ. eigenvalues --  -10.21276 -10.21202 -10.21202 -10.20921 -10.20732
 Alpha  occ. eigenvalues --  -10.20503 -10.20267 -10.20244 -10.20111 -10.19671
 Alpha  occ. eigenvalues --   -3.08203  -1.83142  -1.82691  -1.82598  -1.16488
 Alpha  occ. eigenvalues --   -1.13937  -1.04501  -1.03375  -1.03007  -0.99380
 Alpha  occ. eigenvalues --   -0.98579  -0.97209  -0.96735  -0.87741  -0.86428
 Alpha  occ. eigenvalues --   -0.86236  -0.85424  -0.84723  -0.84359  -0.83894
 Alpha  occ. eigenvalues --   -0.83375  -0.83256  -0.82656  -0.82443  -0.81201
 Alpha  occ. eigenvalues --   -0.80305  -0.79388  -0.79004  -0.78251  -0.77851
 Alpha  occ. eigenvalues --   -0.77176  -0.76558  -0.75721  -0.75124  -0.73319
 Alpha  occ. eigenvalues --   -0.72932  -0.72600  -0.71924  -0.71224  -0.70694
 Alpha  occ. eigenvalues --   -0.70355  -0.70017  -0.69434  -0.68361  -0.67737
 Alpha  occ. eigenvalues --   -0.67210  -0.65854  -0.65607  -0.64775  -0.63740
 Alpha  occ. eigenvalues --   -0.62736  -0.62167  -0.61464  -0.60888  -0.60454
 Alpha  occ. eigenvalues --   -0.60395  -0.60160  -0.59284  -0.58837  -0.57587
 Alpha  occ. eigenvalues --   -0.56807  -0.56540  -0.56429  -0.56194  -0.55603
 Alpha  occ. eigenvalues --   -0.55171  -0.54726  -0.54355  -0.53558  -0.53207
 Alpha  occ. eigenvalues --   -0.52731  -0.52013  -0.51666  -0.51634  -0.51112
 Alpha  occ. eigenvalues --   -0.50998  -0.50767  -0.50390  -0.50310  -0.49542
 Alpha  occ. eigenvalues --   -0.49373  -0.48561  -0.48294  -0.48160  -0.47944
 Alpha  occ. eigenvalues --   -0.47722  -0.47617  -0.47397  -0.47342  -0.47109
 Alpha  occ. eigenvalues --   -0.47017  -0.46654  -0.46466  -0.46059  -0.45896
 Alpha  occ. eigenvalues --   -0.45457  -0.45389  -0.45176  -0.44933  -0.44643
 Alpha  occ. eigenvalues --   -0.44485  -0.44302  -0.44053  -0.43891  -0.43452
 Alpha  occ. eigenvalues --   -0.43259  -0.43033  -0.42875  -0.42352  -0.42115
 Alpha  occ. eigenvalues --   -0.42056  -0.41844  -0.41557  -0.41425  -0.41277
 Alpha  occ. eigenvalues --   -0.41197  -0.41039  -0.40911  -0.40764  -0.40684
 Alpha  occ. eigenvalues --   -0.40473  -0.40258  -0.40038  -0.39596  -0.39478
 Alpha  occ. eigenvalues --   -0.39300  -0.39215  -0.38998  -0.38963  -0.38886
 Alpha  occ. eigenvalues --   -0.38860  -0.38536  -0.38438  -0.38338  -0.38181
 Alpha  occ. eigenvalues --   -0.38063  -0.37879  -0.37843  -0.37588  -0.37386
 Alpha  occ. eigenvalues --   -0.37285  -0.36829  -0.36818  -0.36604  -0.36163
 Alpha  occ. eigenvalues --   -0.35831  -0.35761  -0.35562  -0.35238  -0.35081
 Alpha  occ. eigenvalues --   -0.34921  -0.34390  -0.33939  -0.33872  -0.33758
 Alpha  occ. eigenvalues --   -0.33617  -0.33538  -0.33153  -0.33003  -0.32755
 Alpha  occ. eigenvalues --   -0.32380  -0.32185  -0.31998  -0.30666  -0.30303
 Alpha  occ. eigenvalues --   -0.29972  -0.29823  -0.29457  -0.28414  -0.27656
 Alpha  occ. eigenvalues --   -0.27249  -0.25221  -0.25193  -0.23851  -0.21767
 Alpha  occ. eigenvalues --   -0.19383
 Alpha virt. eigenvalues --   -0.07115  -0.03860  -0.01059   0.01905   0.02905
 Alpha virt. eigenvalues --    0.03142   0.04339   0.04649   0.05450   0.05776
 Alpha virt. eigenvalues --    0.05920   0.08536   0.09024   0.09489   0.09922

 Mulliken charges:
               1
     1  Mg   0.809700
     2  C    0.051696
     3  C   -0.196689
     4  C   -0.154581
     5  C   -0.170436
     6  N   -0.609682
     7  C    0.264062
     8  C   -0.114357
     9  C   -0.113479
    10  C    0.329757
    11  C   -0.293147
    12  C   -0.189673
    13  C   -0.266137
    14  C    0.576667
    15  O   -0.467616
    16  O   -0.449477
    17  N   -0.708575
    18  C    0.268474
    19  C    0.080855
    20  C   -0.006091
    21  C    0.353956
    22  C   -0.410955
    23  C   -0.082640
    24  C   -0.253802
    25  N   -0.714358
    26  C    0.319570
    27  C    0.042652
    28  C   -0.042749
    29  C    0.323952
    30  C   -0.384056
    31  C   -0.213982
    32  C   -0.314749
    33  N   -0.724864
    34  C    0.239247
    35  C    0.074331
    36  C    0.066231
    37  C    0.299133
    38  C   -0.429009
    39  C    0.372556
    40  O   -0.485260
    41  C   -0.311928
    42  C    0.628062
    43  O   -0.517798
    44  O   -0.395346
    45  C   -0.098524
    46  C    0.012813
    47  C   -0.084783
    48  C    0.125029
    49  C   -0.348858
    50  C   -0.230582
    51  C   -0.189544
    52  C   -0.174610
    53  C   -0.040638
    54  C   -0.312489
    55  C   -0.184987
    56  C   -0.207116
    57  C   -0.153888
    58  C   -0.047918
    59  C   -0.310184
    60  C   -0.155310
    61  C   -0.190682
    62  C   -0.135944
    63  C   -0.058104
    64  C   -0.290685
    65  C   -0.290119
    66  H    0.064202
    67  H    0.079611
    68  H    0.083616
    69  H    0.102038
    70  H    0.099726
    71  H    0.121943
    72  H    0.078546
    73  H    0.129073
    74  H    0.106374
    75  H    0.105609
    76  H    0.144679
    77  H    0.128437
    78  H    0.133296
    79  H    0.121554
    80  H    0.111047
    81  H    0.091026
    82  H    0.083037
    83  H    0.102204
    84  H    0.117278
    85  H    0.118010
    86  H    0.125561
    87  H    0.115525
    88  H    0.100907
    89  H    0.110650
    90  H    0.096423
    91  H    0.102663
    92  H    0.109708
    93  H    0.136634
    94  H    0.110870
    95  H    0.179898
    96  H    0.137506
    97  H    0.151117
    98  H    0.115927
    99  H    0.110919
   100  H    0.124253
   101  H    0.050620
   102  H    0.089197
   103  H    0.103806
   104  H    0.129824
   105  H    0.103412
   106  H    0.084845
   107  H    0.112859
   108  H    0.088063
   109  H    0.088417
   110  H    0.098402
   111  H    0.094339
   112  H    0.102645
   113  H    0.078746
   114  H    0.111972
   115  H    0.098656
   116  H    0.086854
   117  H    0.090626
   118  H    0.070797
   119  H    0.094621
   120  H    0.103839
   121  H    0.076836
   122  H    0.083864
   123  H    0.105864
   124  H    0.103955
   125  H    0.043750
   126  H    0.080534
   127  H    0.087493
   128  H    0.100976
   129  H    0.087331
   130  H    0.092993
   131  H    0.065004
   132  H    0.058196
   133  H    0.090997
   134  H    0.093398
   135  H    0.111089
   136  H    0.082651
   137  H    0.090325
 Sum of Mulliken charges =  -0.00000

 Dipole moment (field-independent basis, Debye):
    X=              2.2739    Y=              2.8217    Z=              0.7080  Tot=              3.6924
 Quadrupole moment (field-independent basis, Debye-Ang):
   XX=           -362.1424   YY=           -400.9893   ZZ=           -399.4514
   XY=            -19.6203   XZ=             12.1834   YZ=             -2.4417

 Normal termination of Gaussian 16 at Fri Sep 13 21:14:10 2019.
