 Gaussian 09, Revision D.01,
 Gaussian 09:  ES64L-G09RevD.01 24-Apr-2013

 -------------------------------------
 # td=(NStates=1) CAM-B3LYP/6-31G(d,p)
 -------------------------------------

 --
 TD
 --
 Symbolic Z-matrix:
 Charge =  0 Multiplicity = 1

                         Standard orientation:
 ---------------------------------------------------------------------
 Center     Atomic      Atomic             Coordinates (Angstroms)
 Number     Number       Type             X           Y           Z
 ---------------------------------------------------------------------
      1         12           0       -7.145323    0.614454    0.035719
      2          6           0       -4.888309   -1.943981    0.470089
      3          6           0       -4.797978    2.848378    1.184583
      4          6           0       -9.351993    3.039993   -0.454263
      5          6           0       -9.552942   -1.804247   -0.899824
      6          7           0       -5.191983    0.435873    0.735487
      7          6           0       -4.376925   -0.673314    0.720052
      8          6           0       -2.960246   -0.419887    1.148161
      9          6           0       -3.031392    1.038851    1.609804
     10          6           0       -4.431393    1.509678    1.166955
     11          6           0       -2.893029    1.289177    3.107861
     12          6           0       -1.918465   -0.669319    0.005420
     13          6           0       -0.513318   -0.414431    0.559938
     14          6           0        0.519204   -0.693334   -0.514934
     15          8           0        0.273912   -1.164502   -1.648860
     16          8           0        1.749629   -0.431572   -0.113117
     17          7           0       -7.070371    2.659873    0.157791
     18          6           0       -6.021632    3.419206    0.613740
     19          6           0       -6.378202    4.860849    0.775507
     20          6           0       -7.661320    4.876070    0.176093
     21          6           0       -8.128430    3.523551   -0.000150
     22          6           0       -5.550354    5.930962    1.252993
     23          6           0       -8.545218    6.031570    0.168173
     24          6           0       -8.437309    7.168640    0.976433
     25          7           0       -9.098478    0.664626   -0.635278
     26          6           0       -9.778452    1.769886   -0.723780
     27          6           0      -11.226304    1.494032   -1.142286
     28          6           0      -11.270919    0.137314   -1.298361
     29          6           0       -9.900112   -0.427343   -0.992018
     30          6           0      -12.162191    2.455136   -1.320692
     31          6           0      -12.371777   -0.813560   -1.802278
     32          6           0      -12.273219   -1.057194   -3.275766
     33          7           0       -7.244698   -1.321820   -0.207396
     34          6           0       -8.303704   -2.161680   -0.549400
     35          6           0       -7.772048   -3.549872   -0.536328
     36          6           0       -6.508970   -3.529423   -0.180334
     37          6           0       -6.212701   -2.083346   -0.017264
     38          6           0       -8.496113   -4.755622   -0.970938
     39          6           0       -5.336963   -4.383889    0.200694
     40          8           0       -5.246302   -5.566012    0.243513
     41          6           0       -4.223840   -3.287023    0.597299
     42          6           0       -3.537689   -3.668827    1.834593
     43          8           0       -3.843765   -3.099788    2.912354
     44          8           0       -2.765791   -4.676318    1.751649
     45          6           0       -2.309384   -5.125882    3.077864
     46          6           0        2.808558   -0.744726   -1.146263
     47          6           0        4.112126   -0.629693   -0.448101
     48          6           0        5.108463    0.269025   -0.833457
     49          6           0        5.068738    1.136773   -2.151759
     50          6           0        6.420197    0.327587   -0.083458
     51          6           0        7.625757   -0.352975   -0.719963
     52          6           0        8.925526   -0.250085    0.061996
     53          6           0       10.241211   -0.675094   -0.582260
     54          6           0       10.117905   -2.138430   -0.946787
     55          6           0       11.474829   -0.327409    0.257083
     56          6           0       12.710328   -0.593414   -0.593200
     57          6           0       13.990143   -0.190956    0.346790
     58          6           0       15.348324   -0.053189   -0.501513
     59          6           0       15.712438   -1.375544   -1.152854
     60          6           0       16.394295    0.524055    0.454117
     61          6           0       17.774307    0.637735   -0.326389
     62          6           0       18.859460    1.369597    0.512949
     63          6           0       20.197555    1.331055    0.077837
     64          6           0       20.336417    2.124089   -1.260945
     65          6           0       21.234002    2.037316    1.004016
     66          1           0       -4.031367    3.543460    1.504431
     67          1           0      -10.144727    3.886867   -0.557147
     68          1           0      -10.494916   -2.339051   -1.293517
     69          1           0       -2.710687   -1.171663    2.071536
     70          1           0       -2.337731    1.588358    1.048297
     71          1           0       -1.825510    1.047236    3.460717
     72          1           0       -3.153189    2.302024    3.381630
     73          1           0       -3.471775    0.663061    3.660460
     74          1           0       -2.161608   -1.583648   -0.241856
     75          1           0       -2.105801   -0.041881   -0.936051
     76          1           0       -0.306312    0.522075    0.998666
     77          1           0       -0.366550   -1.025851    1.339551
     78          1           0       -5.682889    6.833220    0.656576
     79          1           0       -5.534674    6.120187    2.354865
     80          1           0       -4.479288    5.783922    1.084490
     81          1           0       -9.351013    5.967261   -0.495598
     82          1           0       -9.076228    7.952759    0.839244
     83          1           0       -7.665281    7.387311    1.673896
     84          1           0      -11.780059    3.213132   -1.977198
     85          1           0      -13.076659    1.936799   -1.528545
     86          1           0      -12.329712    3.060719   -0.434681
     87          1           0      -12.426068   -1.922512   -1.417868
     88          1           0      -13.369305   -0.377168   -1.430322
     89          1           0      -13.242722   -1.666475   -3.542185
     90          1           0      -12.183594   -0.132027   -3.825497
     91          1           0      -11.202561   -1.338518   -3.465113
     92          1           0       -8.722736   -4.856586   -1.936593
     93          1           0       -8.085655   -5.857769   -0.567192
     94          1           0       -9.455107   -4.597050   -0.364378
     95          1           0       -3.381966   -3.381497   -0.302236
     96          1           0       -1.627690   -4.469255    3.631740
     97          1           0       -2.986604   -5.502314    3.842285
     98          1           0       -1.703827   -5.970611    2.997621
     99          1           0        2.459435   -1.745919   -1.469258
    100          1           0        2.672337   -0.026655   -1.942048
    101          1           0        4.506081   -1.374733    0.379900
    102          1           0        3.871235    1.330760   -2.155567
    103          1           0        5.684703    2.016405   -2.115175
    104          1           0        5.531321    0.612008   -3.052125
    105          1           0        6.501888    1.417009   -0.125545
    106          1           0        6.307030    0.002772    0.863533
    107          1           0        7.511007   -1.358792   -0.770018
    108          1           0        7.953470   -0.038691   -1.843280
    109          1           0        8.870414    0.861474    0.379420
    110          1           0        8.873560   -0.723256    0.992989
    111          1           0       10.357168   -0.090758   -1.456653
    112          1           0        9.271739   -2.481291   -1.557465
    113          1           0       11.187374   -2.467982   -1.431491
    114          1           0        9.744030   -2.675010    0.234859
    115          1           0       11.485641    0.847107    0.635156
    116          1           0       11.649960   -0.871328    1.319538
    117          1           0       12.815474   -1.560174   -0.461702
    118          1           0       12.622560   -0.197995   -1.553660
    119          1           0       13.724112    0.778477    0.703057
    120          1           0       14.263995   -0.877286    1.178440
    121          1           0       15.239348    0.758253   -1.219321
    122          1           0       15.599179   -2.335580   -0.429847
    123          1           0       14.854701   -1.672726   -1.897693
    124          1           0       16.671894   -1.264087   -1.693366
    125          1           0       16.137061    1.453873    0.836104
    126          1           0       16.418349   -0.255621    1.335802
    127          1           0       18.005355   -0.451321   -0.790593
    128          1           0       17.582920    1.101256   -1.341052
    129          1           0       18.358822    2.278363    0.664348
    130          1           0       18.988907    0.782972    1.374186
    131          1           0       20.525914    0.276569   -0.092157
    132          1           0       19.963304    3.079811   -0.987303
    133          1           0       21.312811    2.226013   -1.625400
    134          1           0       19.689854    1.604349   -2.140362
    135          1           0       21.441446    1.618604    1.976011
    136          1           0       22.285702    1.733126    0.481921
    137          1           0       21.033172    3.036699    1.005757
 ---------------------------------------------------------------------

 SCF Done:  E(RCAM-B3LYP) =  -2932.67438565     A.U. after   15 cycles

 Excitation energies and oscillator strengths:

 Excited State   1:      Singlet-A      1.9837 eV  625.00 nm  f=0.2846  <S**2>=0.000
     240 -> 243       -0.22465
     241 -> 242        0.66577
 This state for optimization and/or second-order correction.
 Total Energy, E(TD-HF/TD-KS) =  -2932.60148436
 Copying the excited state density for this state as the 1-particle RhoCI density.

 The electronic state is 1-A.
 Alpha  occ. eigenvalues --  -46.83455 -19.29091 -19.25843 -19.22029 -19.19666
 Alpha  occ. eigenvalues --  -19.19294 -14.41255 -14.39876 -14.39172 -14.39078
 Alpha  occ. eigenvalues --  -10.38997 -10.38566 -10.36565 -10.32224 -10.31627
 Alpha  occ. eigenvalues --  -10.30447 -10.29990 -10.29832 -10.29679 -10.29415
 Alpha  occ. eigenvalues --  -10.29223 -10.29072 -10.28719 -10.28391 -10.28353
 Alpha  occ. eigenvalues --  -10.28082 -10.27877 -10.27634 -10.27567 -10.27552
 Alpha  occ. eigenvalues --  -10.27508 -10.27500 -10.27279 -10.27051 -10.26692
 Alpha  occ. eigenvalues --  -10.26609 -10.26407 -10.26366 -10.26318 -10.26313
 Alpha  occ. eigenvalues --  -10.26269 -10.26229 -10.26144 -10.26085 -10.26031
 Alpha  occ. eigenvalues --  -10.26024 -10.25958 -10.25743 -10.25696 -10.25686
 Alpha  occ. eigenvalues --  -10.25635 -10.25438 -10.25435 -10.25390 -10.25363
 Alpha  occ. eigenvalues --  -10.25158 -10.25071 -10.24734 -10.24733 -10.24701
 Alpha  occ. eigenvalues --  -10.24647 -10.24214 -10.24022 -10.23948 -10.23391
 Alpha  occ. eigenvalues --   -3.12718  -1.87414  -1.86965  -1.86907  -1.21206
 Alpha  occ. eigenvalues --   -1.17313  -1.13838  -1.07073  -1.06462  -1.05287
 Alpha  occ. eigenvalues --   -1.03093  -1.02788  -1.01747  -0.92106  -0.91745
 Alpha  occ. eigenvalues --   -0.90970  -0.90397  -0.89968  -0.89482  -0.88984
 Alpha  occ. eigenvalues --   -0.88541  -0.88384  -0.87969  -0.87030  -0.86327
 Alpha  occ. eigenvalues --   -0.85482  -0.84983  -0.84274  -0.83226  -0.82731
 Alpha  occ. eigenvalues --   -0.82026  -0.81106  -0.80121  -0.79612  -0.78194
 Alpha  occ. eigenvalues --   -0.77842  -0.77488  -0.76801  -0.76129  -0.75356
 Alpha  occ. eigenvalues --   -0.74833  -0.74810  -0.73809  -0.73293  -0.72090
 Alpha  occ. eigenvalues --   -0.71659  -0.70645  -0.70006  -0.68641  -0.68407
 Alpha  occ. eigenvalues --   -0.67623  -0.67234  -0.65266  -0.65141  -0.64763
 Alpha  occ. eigenvalues --   -0.64084  -0.63120  -0.62924  -0.62828  -0.62626
 Alpha  occ. eigenvalues --   -0.61691  -0.60573  -0.60204  -0.59598  -0.59128
 Alpha  occ. eigenvalues --   -0.58685  -0.58206  -0.58034  -0.57203  -0.56768
 Alpha  occ. eigenvalues --   -0.56530  -0.56068  -0.55571  -0.55446  -0.55207
 Alpha  occ. eigenvalues --   -0.54855  -0.54727  -0.54594  -0.54146  -0.53424
 Alpha  occ. eigenvalues --   -0.53067  -0.52665  -0.52432  -0.52237  -0.52035
 Alpha  occ. eigenvalues --   -0.51757  -0.51504  -0.51204  -0.50829  -0.50726
 Alpha  occ. eigenvalues --   -0.50353  -0.50016  -0.49975  -0.49844  -0.49611
 Alpha  occ. eigenvalues --   -0.49256  -0.49092  -0.49005  -0.48787  -0.48402
 Alpha  occ. eigenvalues --   -0.48180  -0.47712  -0.47553  -0.47381  -0.47307
 Alpha  occ. eigenvalues --   -0.46847  -0.46620  -0.46588  -0.46124  -0.45988
 Alpha  occ. eigenvalues --   -0.45871  -0.45738  -0.45706  -0.45576  -0.45293
 Alpha  occ. eigenvalues --   -0.45270  -0.44996  -0.44654  -0.44574  -0.44361
 Alpha  occ. eigenvalues --   -0.44227  -0.44037  -0.43894  -0.43748  -0.43688
 Alpha  occ. eigenvalues --   -0.43253  -0.42952  -0.42817  -0.42605  -0.42509
 Alpha  occ. eigenvalues --   -0.42308  -0.42210  -0.41832  -0.41496  -0.41335
 Alpha  occ. eigenvalues --   -0.41319  -0.40787  -0.40429  -0.40296  -0.40117
 Alpha  occ. eigenvalues --   -0.40018  -0.39813  -0.39200  -0.39093  -0.38897
 Alpha  occ. eigenvalues --   -0.38640  -0.38526  -0.38161  -0.37959  -0.37471
 Alpha  occ. eigenvalues --   -0.37397  -0.36962  -0.36746  -0.36667  -0.36506
 Alpha  occ. eigenvalues --   -0.36348  -0.36178  -0.35795  -0.35548  -0.35476
 Alpha  occ. eigenvalues --   -0.35417  -0.34882  -0.34632  -0.33231  -0.32845
 Alpha  occ. eigenvalues --   -0.32652  -0.32482  -0.31534  -0.31208  -0.30541
 Alpha  occ. eigenvalues --   -0.30166  -0.29529  -0.27801  -0.26388  -0.22910
 Alpha  occ. eigenvalues --   -0.20138
 Alpha virt. eigenvalues --   -0.05800  -0.02174   0.01915   0.03961   0.04011
 Alpha virt. eigenvalues --    0.05722   0.06364   0.06960   0.07072   0.07388
 Alpha virt. eigenvalues --    0.08242   0.10930   0.11082   0.11103   0.11780

 Mulliken charges:
               1
     1  Mg   0.814674
     2  C    0.087866
     3  C   -0.200771
     4  C   -0.187433
     5  C   -0.153206
     6  N   -0.644219
     7  C    0.307805
     8  C   -0.193206
     9  C   -0.127388
    10  C    0.322300
    11  C   -0.307526
    12  C   -0.148318
    13  C   -0.264493
    14  C    0.605722
    15  O   -0.517837
    16  O   -0.480335
    17  N   -0.680335
    18  C    0.276889
    19  C    0.053159
    20  C   -0.007380
    21  C    0.306156
    22  C   -0.409746
    23  C   -0.091352
    24  C   -0.243325
    25  N   -0.691621
    26  C    0.345902
    27  C    0.080075
    28  C   -0.011895
    29  C    0.222225
    30  C   -0.407429
    31  C   -0.247546
    32  C   -0.292829
    33  N   -0.735881
    34  C    0.285344
    35  C   -0.026083
    36  C    0.024049
    37  C    0.310282
    38  C   -0.368909
    39  C    0.408502
    40  O   -0.422588
    41  C   -0.346134
    42  C    0.642564
    43  O   -0.522943
    44  O   -0.409024
    45  C   -0.104889
    46  C   -0.002012
    47  C   -0.115250
    48  C    0.070898
    49  C   -0.344107
    50  C   -0.211219
    51  C   -0.165234
    52  C   -0.180781
    53  C   -0.048773
    54  C   -0.283215
    55  C   -0.167824
    56  C   -0.178671
    57  C   -0.205565
    58  C   -0.064007
    59  C   -0.299274
    60  C   -0.152978
    61  C   -0.208703
    62  C   -0.128534
    63  C   -0.083898
    64  C   -0.298850
    65  C   -0.300314
    66  H    0.077342
    67  H    0.075534
    68  H    0.110931
    69  H    0.122608
    70  H    0.109787
    71  H    0.084449
    72  H    0.111431
    73  H    0.138623
    74  H    0.116335
    75  H    0.113806
    76  H    0.140701
    77  H    0.144424
    78  H    0.131765
    79  H    0.124819
    80  H    0.113877
    81  H    0.085142
    82  H    0.099792
    83  H    0.105853
    84  H    0.129559
    85  H    0.112969
    86  H    0.125994
    87  H    0.095129
    88  H    0.090432
    89  H    0.100607
    90  H    0.111457
    91  H    0.110289
    92  H    0.143061
    93  H    0.119445
    94  H    0.108551
    95  H    0.139738
    96  H    0.132512
    97  H    0.147738
    98  H    0.126680
    99  H    0.147922
   100  H    0.132115
   101  H    0.090464
   102  H    0.104705
   103  H    0.117909
   104  H    0.129328
   105  H    0.103407
   106  H    0.109757
   107  H    0.109688
   108  H    0.065943
   109  H    0.068187
   110  H    0.094635
   111  H    0.092814
   112  H    0.120474
   113  H    0.091578
   114  H    0.043766
   115  H    0.062893
   116  H    0.074061
   117  H    0.129757
   118  H    0.102278
   119  H    0.093077
   120  H    0.093844
   121  H    0.086118
   122  H    0.083942
   123  H    0.090441
   124  H    0.107685
   125  H    0.098275
   126  H    0.069159
   127  H    0.070159
   128  H    0.086483
   129  H    0.094152
   130  H    0.101075
   131  H    0.085046
   132  H    0.099241
   133  H    0.102963
   134  H    0.074321
   135  H    0.102197
   136  H    0.076650
   137  H    0.111550
 Sum of Mulliken charges =   0.00000

 Dipole moment (field-independent basis, Debye):
    X=              3.5575    Y=              2.6671    Z=              0.4846  Tot=              4.4726
 Quadrupole moment (field-independent basis, Debye-Ang):
   XX=           -354.9375   YY=           -390.2408   ZZ=           -396.9624
   XY=            -10.1526   XZ=             11.1786   YZ=             -4.1164

 Normal termination of Gaussian 09 at Sat Jul  6 02:14:21 2019.
