 Gaussian 16, Revision A.03,
 Gaussian 16:  ES64L-G16RevA.03 25-Dec-2016

 ----------------------------------------------------------------------
 # td=(NStates=1) iop(3/107=0140000000,3/108=0140000000) CAM-B3LYP/6-31
 G(d,p)
 ----------------------------------------------------------------------

 --
 TD
 --
 Symbolic Z-matrix:
 Charge =  0 Multiplicity = 1

                         Standard orientation:
 ---------------------------------------------------------------------
 Center     Atomic      Atomic             Coordinates (Angstroms)
 Number     Number       Type             X           Y           Z
 ---------------------------------------------------------------------
      1         12           0       -7.094443    0.669985    0.155935
      2          6           0       -4.877288   -2.005756    0.603774
      3          6           0       -4.753384    2.806563    1.186076
      4          6           0       -9.329067    3.155621   -0.406182
      5          6           0       -9.576661   -1.731474   -0.866200
      6          7           0       -5.046102    0.417722    0.766222
      7          6           0       -4.292428   -0.753254    0.893112
      8          6           0       -2.827313   -0.486853    1.126297
      9          6           0       -2.955306    1.008962    1.580802
     10          6           0       -4.335872    1.446565    1.181298
     11          6           0       -2.707800    1.270870    3.100654
     12          6           0       -2.033020   -0.807156   -0.037644
     13          6           0       -0.512212   -0.575209    0.445798
     14          6           0        0.487466   -0.794786   -0.764884
     15          8           0        0.183341   -1.009228   -1.901237
     16          8           0        1.722635   -0.564959   -0.333154
     17          7           0       -7.093163    2.628007    0.412244
     18          6           0       -6.025965    3.362023    0.821268
     19          6           0       -6.387076    4.737513    0.844837
     20          6           0       -7.728484    4.854619    0.463894
     21          6           0       -8.137265    3.555338    0.241620
     22          6           0       -5.527318    5.935449    1.235063
     23          6           0       -8.501852    6.037233    0.368099
     24          6           0       -8.352691    7.212646    0.945161
     25          7           0       -9.108330    0.746483   -0.540915
     26          6           0       -9.863492    1.910412   -0.733042
     27          6           0      -11.210604    1.474097   -1.269081
     28          6           0      -11.229128    0.162999   -1.344839
     29          6           0       -9.895248   -0.438604   -0.921192
     30          6           0      -12.282359    2.539815   -1.489538
     31          6           0      -12.225831   -0.721354   -1.877023
     32          6           0      -12.025115   -1.101825   -3.410578
     33          7           0       -7.189546   -1.434907   -0.200980
     34          6           0       -8.238855   -2.226576   -0.534616
     35          6           0       -7.866007   -3.597808   -0.421421
     36          6           0       -6.516286   -3.566509    0.049880
     37          6           0       -6.164610   -2.244088    0.239891
     38          6           0       -8.758961   -4.852918   -0.789737
     39          6           0       -5.371443   -4.312375    0.276915
     40          8           0       -5.350229   -5.542806    0.303998
     41          6           0       -4.173403   -3.264553    0.613472
     42          6           0       -3.588107   -3.717794    1.989231
     43          8           0       -3.780849   -3.160810    3.033545
     44          8           0       -2.713636   -4.745052    1.809248
     45          6           0       -2.217822   -5.223568    3.080875
     46          6           0        2.697915   -0.651825   -1.430710
     47          6           0        4.068605   -0.436624   -0.768106
     48          6           0        5.100366    0.389514   -1.104964
     49          6           0        5.055979    1.216272   -2.382977
     50          6           0        6.317113    0.461850   -0.326446
     51          6           0        7.533613   -0.066404   -1.026393
     52          6           0        8.842039   -0.019466   -0.122452
     53          6           0       10.167024   -0.449938   -0.874813
     54          6           0       10.102847   -1.872697   -1.315844
     55          6           0       11.398750   -0.262802    0.055784
     56          6           0       12.725468   -0.474662   -0.688063
     57          6           0       13.983664   -0.043296    0.187633
     58          6           0       15.426793   -0.298297   -0.473425
     59          6           0       15.669127   -1.754957   -0.755568
     60          6           0       16.454497    0.402241    0.331491
     61          6           0       17.809710    0.523026   -0.151736
     62          6           0       18.806751    1.258904    0.731315
     63          6           0       20.268204    1.357694    0.257516
     64          6           0       20.427292    2.156470   -1.040438
     65          6           0       21.140002    1.852038    1.464211
     66          1           0       -4.103741    3.572695    1.552263
     67          1           0      -10.147947    3.859296   -0.866043
     68          1           0      -10.365078   -2.488269   -0.967361
     69          1           0       -2.529884   -1.034776    2.220190
     70          1           0       -2.331179    1.515052    0.887825
     71          1           0       -1.625964    1.031147    3.574525
     72          1           0       -2.741860    2.411009    3.149019
     73          1           0       -3.590653    0.805188    3.621521
     74          1           0       -2.107378   -1.766560   -0.227310
     75          1           0       -2.280069    0.038093   -0.522355
     76          1           0       -0.245272    0.500549    0.895010
     77          1           0       -0.323477   -1.378043    1.238295
     78          1           0       -5.682171    6.970636    0.780285
     79          1           0       -5.795205    6.187862    2.363747
     80          1           0       -4.497016    5.587698    1.057269
     81          1           0       -9.238662    5.902540   -0.579183
     82          1           0       -9.054423    8.068834    0.705133
     83          1           0       -7.439603    7.265557    1.534500
     84          1           0      -12.016891    3.235204   -2.160124
     85          1           0      -13.301170    1.921004   -1.781679
     86          1           0      -12.483943    2.798765   -0.310381
     87          1           0      -12.183430   -1.663786   -1.374978
     88          1           0      -13.159840   -0.145358   -1.580750
     89          1           0      -13.040450   -1.711205   -3.683296
     90          1           0      -11.969921   -0.152985   -4.015839
     91          1           0      -11.383030   -1.906950   -3.458947
     92          1           0       -9.185931   -4.577113   -1.692089
     93          1           0       -8.081646   -5.789055   -0.932019
     94          1           0       -9.571341   -4.727153   -0.044968
     95          1           0       -3.444931   -3.386256   -0.143429
     96          1           0       -1.654121   -4.277475    3.477674
     97          1           0       -3.062869   -5.598343    3.776768
     98          1           0       -1.614339   -6.097981    2.830642
     99          1           0        2.525588   -1.538480   -1.905834
    100          1           0        2.454192    0.161496   -2.147973
    101          1           0        4.200902   -0.947017    0.188593
    102          1           0        3.919888    1.322366   -2.848331
    103          1           0        5.216508    2.409242   -2.374493
    104          1           0        5.794222    0.577935   -3.077483
    105          1           0        6.548093    1.523812   -0.087486
    106          1           0        6.459585   -0.348138    0.383679
    107          1           0        7.215386   -1.058738   -1.368179
    108          1           0        7.761257    0.688473   -1.996916
    109          1           0        9.073153    0.956362    0.323120
    110          1           0        8.672849   -0.844107    0.607654
    111          1           0       10.321921    0.096363   -1.698392
    112          1           0        9.101941   -1.990216   -1.777006
    113          1           0       10.970886   -2.445097   -1.778764
    114          1           0        9.986743   -2.618493   -0.452972
    115          1           0       11.207958    0.830626    0.509890
    116          1           0       11.458087   -0.977315    0.919185
    117          1           0       12.762963   -1.461985   -1.180256
    118          1           0       12.447103    0.218458   -1.653083
    119          1           0       13.863538    1.180395    0.456833
    120          1           0       13.987798   -0.646622    1.104471
    121          1           0       15.373366    0.081732   -1.359103
    122          1           0       15.543788   -2.442827   -0.016502
    123          1           0       14.676658   -1.973307   -1.470624
    124          1           0       16.571396   -1.857862   -1.210301
    125          1           0       16.139346    1.491867    0.796382
    126          1           0       16.397360   -0.318116    1.286165
    127          1           0       18.178699   -0.483181   -0.245094
    128          1           0       17.753892    0.982868   -1.176778
    129          1           0       18.302620    2.226442    0.774244
    130          1           0       18.808916    0.898044    1.733627
    131          1           0       20.626143    0.380469   -0.009451
    132          1           0       20.265589    3.145946   -0.973697
    133          1           0       21.518844    2.066883   -1.227837
    134          1           0       19.904832    1.499664   -1.898173
    135          1           0       21.120893    1.118057    2.309901
    136          1           0       22.085152    1.997465    1.120029
    137          1           0       20.768887    2.756766    1.942281
 ---------------------------------------------------------------------

 SCF Done:  E(RCAM-B3LYP) =  -2933.46881129     A.U. after   16 cycles

 Excitation energies and oscillator strengths:

 Excited State   1:      Singlet-A      1.9580 eV  633.20 nm  f=0.2997  <S**2>=0.000
     240 -> 243       -0.21693
     241 -> 242        0.67369
 This state for optimization and/or second-order correction.
 Total Energy, E(TD-HF/TD-DFT) =  -2933.39685437
 Copying the excited state density for this state as the 1-particle RhoCI density.

 The electronic state is 1-A.
 Alpha  occ. eigenvalues --  -46.80438 -19.22011 -19.21713 -19.16679 -19.16679
 Alpha  occ. eigenvalues --  -19.14459 -14.38185 -14.35359 -14.35262 -14.34542
 Alpha  occ. eigenvalues --  -10.34147 -10.34096 -10.28676 -10.27527 -10.27227
 Alpha  occ. eigenvalues --  -10.26566 -10.25879 -10.25583 -10.25541 -10.25490
 Alpha  occ. eigenvalues --  -10.24878 -10.24798 -10.24760 -10.24567 -10.23947
 Alpha  occ. eigenvalues --  -10.23728 -10.23617 -10.23523 -10.23459 -10.23416
 Alpha  occ. eigenvalues --  -10.23247 -10.23242 -10.23177 -10.23138 -10.23100
 Alpha  occ. eigenvalues --  -10.23020 -10.22956 -10.22882 -10.22860 -10.22494
 Alpha  occ. eigenvalues --  -10.22452 -10.22417 -10.22386 -10.22366 -10.22103
 Alpha  occ. eigenvalues --  -10.22045 -10.21918 -10.21892 -10.21865 -10.21742
 Alpha  occ. eigenvalues --  -10.21705 -10.21480 -10.21364 -10.21362 -10.21341
 Alpha  occ. eigenvalues --  -10.21175 -10.20992 -10.20682 -10.20270 -10.19931
 Alpha  occ. eigenvalues --  -10.19897 -10.19836 -10.19600 -10.19531 -10.19168
 Alpha  occ. eigenvalues --   -3.08830  -1.83788  -1.83280  -1.83237  -1.13802
 Alpha  occ. eigenvalues --   -1.12808  -1.04913  -1.04555  -1.03977  -1.00002
 Alpha  occ. eigenvalues --   -0.98632  -0.97994  -0.94665  -0.88741  -0.87050
 Alpha  occ. eigenvalues --   -0.86577  -0.85942  -0.84935  -0.84601  -0.84399
 Alpha  occ. eigenvalues --   -0.83223  -0.82779  -0.82324  -0.80957  -0.80740
 Alpha  occ. eigenvalues --   -0.79820  -0.78892  -0.78411  -0.78145  -0.77727
 Alpha  occ. eigenvalues --   -0.76987  -0.76243  -0.75711  -0.75334  -0.73642
 Alpha  occ. eigenvalues --   -0.72562  -0.72065  -0.71524  -0.71230  -0.70832
 Alpha  occ. eigenvalues --   -0.70661  -0.70179  -0.69364  -0.68720  -0.68040
 Alpha  occ. eigenvalues --   -0.67025  -0.66481  -0.65530  -0.64763  -0.63798
 Alpha  occ. eigenvalues --   -0.63167  -0.61917  -0.61122  -0.60354  -0.59856
 Alpha  occ. eigenvalues --   -0.59552  -0.59467  -0.59303  -0.59009  -0.58692
 Alpha  occ. eigenvalues --   -0.57211  -0.56354  -0.55807  -0.55355  -0.54911
 Alpha  occ. eigenvalues --   -0.54467  -0.54168  -0.53829  -0.53632  -0.52818
 Alpha  occ. eigenvalues --   -0.52522  -0.52164  -0.51777  -0.51104  -0.50695
 Alpha  occ. eigenvalues --   -0.50438  -0.50358  -0.49847  -0.49711  -0.49313
 Alpha  occ. eigenvalues --   -0.48974  -0.48810  -0.48733  -0.48468  -0.48358
 Alpha  occ. eigenvalues --   -0.47967  -0.47687  -0.47341  -0.47076  -0.46938
 Alpha  occ. eigenvalues --   -0.46645  -0.46562  -0.46111  -0.46032  -0.45967
 Alpha  occ. eigenvalues --   -0.45785  -0.45578  -0.45552  -0.45278  -0.45109
 Alpha  occ. eigenvalues --   -0.44709  -0.44609  -0.44327  -0.43784  -0.43711
 Alpha  occ. eigenvalues --   -0.43359  -0.43308  -0.42972  -0.42943  -0.42622
 Alpha  occ. eigenvalues --   -0.42485  -0.42237  -0.42027  -0.41930  -0.41624
 Alpha  occ. eigenvalues --   -0.41590  -0.41263  -0.40918  -0.40822  -0.40682
 Alpha  occ. eigenvalues --   -0.40443  -0.40159  -0.40099  -0.39882  -0.39464
 Alpha  occ. eigenvalues --   -0.39360  -0.39252  -0.39137  -0.38970  -0.38554
 Alpha  occ. eigenvalues --   -0.38416  -0.38338  -0.38182  -0.38028  -0.37878
 Alpha  occ. eigenvalues --   -0.37745  -0.37690  -0.37550  -0.37535  -0.37211
 Alpha  occ. eigenvalues --   -0.37032  -0.36807  -0.36484  -0.36401  -0.36216
 Alpha  occ. eigenvalues --   -0.35628  -0.35088  -0.34608  -0.34577  -0.34470
 Alpha  occ. eigenvalues --   -0.34375  -0.33961  -0.33955  -0.33727  -0.33445
 Alpha  occ. eigenvalues --   -0.33321  -0.33200  -0.32716  -0.32588  -0.32413
 Alpha  occ. eigenvalues --   -0.32351  -0.32266  -0.32035  -0.30665  -0.30534
 Alpha  occ. eigenvalues --   -0.30192  -0.29719  -0.29378  -0.28478  -0.26802
 Alpha  occ. eigenvalues --   -0.26178  -0.25666  -0.25304  -0.25256  -0.21568
 Alpha  occ. eigenvalues --   -0.20143
 Alpha virt. eigenvalues --   -0.07813  -0.03029  -0.00062   0.02597   0.03653
 Alpha virt. eigenvalues --    0.04417   0.04609   0.04999   0.05187   0.05449
 Alpha virt. eigenvalues --    0.06483   0.08562   0.09049   0.09162   0.09528

 Mulliken charges:
               1
     1  Mg   0.814035
     2  C    0.113044
     3  C   -0.191584
     4  C   -0.179099
     5  C   -0.178819
     6  N   -0.619464
     7  C    0.274541
     8  C   -0.172310
     9  C   -0.161375
    10  C    0.364381
    11  C   -0.300924
    12  C   -0.083355
    13  C   -0.296854
    14  C    0.599869
    15  O   -0.466926
    16  O   -0.458906
    17  N   -0.736791
    18  C    0.349429
    19  C   -0.004502
    20  C    0.062354
    21  C    0.277636
    22  C   -0.386704
    23  C   -0.046341
    24  C   -0.253453
    25  N   -0.681443
    26  C    0.284401
    27  C    0.023210
    28  C    0.044592
    29  C    0.312034
    30  C   -0.355669
    31  C   -0.256457
    32  C   -0.292886
    33  N   -0.715066
    34  C    0.294175
    35  C   -0.046455
    36  C    0.095334
    37  C    0.258249
    38  C   -0.360425
    39  C    0.284667
    40  O   -0.481207
    41  C   -0.367827
    42  C    0.625749
    43  O   -0.459731
    44  O   -0.448268
    45  C   -0.081752
    46  C    0.015199
    47  C   -0.149194
    48  C    0.144166
    49  C   -0.354385
    50  C   -0.202411
    51  C   -0.197018
    52  C   -0.175716
    53  C   -0.044990
    54  C   -0.322583
    55  C   -0.155109
    56  C   -0.186201
    57  C   -0.160590
    58  C   -0.053377
    59  C   -0.305502
    60  C   -0.140841
    61  C   -0.175602
    62  C   -0.157357
    63  C   -0.056571
    64  C   -0.305346
    65  C   -0.324244
    66  H    0.070743
    67  H    0.072622
    68  H    0.088912
    69  H    0.094506
    70  H    0.100614
    71  H    0.102015
    72  H    0.105256
    73  H    0.132982
    74  H    0.119746
    75  H    0.119812
    76  H    0.124199
    77  H    0.125529
    78  H    0.130299
    79  H    0.117784
    80  H    0.110069
    81  H    0.071157
    82  H    0.108351
    83  H    0.085725
    84  H    0.139110
    85  H    0.091462
    86  H    0.123448
    87  H    0.102804
    88  H    0.088753
    89  H    0.078591
    90  H    0.119578
    91  H    0.129121
    92  H    0.129234
    93  H    0.146919
    94  H    0.129309
    95  H    0.160383
    96  H    0.118882
    97  H    0.130271
    98  H    0.126622
    99  H    0.142638
   100  H    0.118798
   101  H    0.088852
   102  H    0.087394
   103  H    0.104449
   104  H    0.122897
   105  H    0.103967
   106  H    0.101791
   107  H    0.106384
   108  H    0.054129
   109  H    0.097339
   110  H    0.096763
   111  H    0.099862
   112  H    0.097543
   113  H    0.102754
   114  H    0.083825
   115  H    0.061510
   116  H    0.084341
   117  H    0.101105
   118  H    0.062601
   119  H    0.068510
   120  H    0.096436
   121  H    0.097950
   122  H    0.111405
   123  H    0.068062
   124  H    0.114324
   125  H    0.053200
   126  H    0.054004
   127  H    0.087365
   128  H    0.083644
   129  H    0.083295
   130  H    0.088597
   131  H    0.088622
   132  H    0.115811
   133  H    0.091766
   134  H    0.091351
   135  H    0.098121
   136  H    0.104492
   137  H    0.103859
 Sum of Mulliken charges =  -0.00000

 Dipole moment (field-independent basis, Debye):
    X=              2.2364    Y=              4.6469    Z=             -0.0119  Tot=              5.1571
 Quadrupole moment (field-independent basis, Debye-Ang):
   XX=           -335.0615   YY=           -395.6844   ZZ=           -402.0420
   XY=            -27.3890   XZ=             14.0078   YZ=             -2.4023

 Normal termination of Gaussian 16 at Tue Sep 17 11:05:25 2019.
