 Gaussian 16, Revision A.03,
 Gaussian 16:  ES64L-G16RevA.03 25-Dec-2016

 ----------------------------------------------------------------------
 # td=(NStates=1) iop(3/107=0140000000,3/108=0140000000) CAM-B3LYP/6-31
 G(d,p)
 ----------------------------------------------------------------------

 --
 TD
 --
 Symbolic Z-matrix:
 Charge =  0 Multiplicity = 1

                         Standard orientation:
 ---------------------------------------------------------------------
 Center     Atomic      Atomic             Coordinates (Angstroms)
 Number     Number       Type             X           Y           Z
 ---------------------------------------------------------------------
      1         12           0       -7.174653    0.644499    0.083031
      2          6           0       -4.823633   -1.998410    0.463704
      3          6           0       -4.798464    2.801576    1.255433
      4          6           0       -9.339759    3.107616   -0.458034
      5          6           0       -9.486150   -1.732798   -0.864161
      6          7           0       -5.127670    0.386607    0.833269
      7          6           0       -4.389121   -0.795500    0.918169
      8          6           0       -2.876285   -0.364487    1.203279
      9          6           0       -3.028822    1.107193    1.774379
     10          6           0       -4.450458    1.459821    1.198191
     11          6           0       -2.982114    1.089180    3.281136
     12          6           0       -1.976596   -0.495577    0.020900
     13          6           0       -0.573324   -0.358628    0.397741
     14          6           0        0.433441   -0.685230   -0.660449
     15          8           0        0.112166   -0.957982   -1.738459
     16          8           0        1.717563   -0.480793   -0.236739
     17          7           0       -7.050113    2.636672    0.282105
     18          6           0       -6.018624    3.359298    0.793941
     19          6           0       -6.356181    4.770945    0.822439
     20          6           0       -7.716104    4.839555    0.395597
     21          6           0       -8.091821    3.503518    0.012852
     22          6           0       -5.472466    5.767444    1.311808
     23          6           0       -8.544358    5.998542    0.202442
     24          6           0       -8.362174    7.195758    0.851551
     25          7           0       -9.106059    0.753373   -0.523797
     26          6           0       -9.791542    1.949203   -0.736085
     27          6           0      -11.204990    1.497260   -1.083801
     28          6           0      -11.200443    0.130104   -1.220710
     29          6           0       -9.887805   -0.346821   -0.875789
     30          6           0      -12.338680    2.389491   -1.365655
     31          6           0      -12.328763   -0.663323   -1.873391
     32          6           0      -12.212292   -0.902420   -3.311363
     33          7           0       -7.165721   -1.351472   -0.234941
     34          6           0       -8.224893   -2.215983   -0.588182
     35          6           0       -7.738869   -3.611134   -0.562162
     36          6           0       -6.454487   -3.442365   -0.189802
     37          6           0       -6.174069   -2.120574    0.144824
     38          6           0       -8.596653   -4.747605   -0.897965
     39          6           0       -5.369727   -4.360356    0.126409
     40          8           0       -5.267674   -5.647727    0.080481
     41          6           0       -4.216241   -3.396302    0.577349
     42          6           0       -3.588514   -3.725696    1.961868
     43          8           0       -3.865025   -3.130401    2.982691
     44          8           0       -2.792470   -4.845318    1.877047
     45          6           0       -2.252610   -5.300655    3.005289
     46          6           0        2.780917   -0.649198   -1.211907
     47          6           0        4.073298   -0.474180   -0.652586
     48          6           0        5.106245    0.290680   -1.000758
     49          6           0        5.084875    1.114556   -2.218762
     50          6           0        6.451711    0.280782   -0.254637
     51          6           0        7.659596   -0.238507   -1.012729
     52          6           0        9.010183   -0.039547   -0.133557
     53          6           0       10.291875   -0.590382   -0.867559
     54          6           0       10.203066   -2.101617   -1.279936
     55          6           0       11.497837   -0.262112   -0.065517
     56          6           0       12.748341   -0.557276   -0.652238
     57          6           0       14.001846   -0.245539    0.194678
     58          6           0       15.343400   -0.280994   -0.506406
     59          6           0       15.696307   -1.789432   -0.569005
     60          6           0       16.349248    0.542161    0.441368
     61          6           0       17.817626    0.576752   -0.150313
     62          6           0       18.721222    1.234022    0.790274
     63          6           0       20.193391    1.467396    0.172693
     64          6           0       20.146951    2.326867   -1.064303
     65          6           0       21.163937    2.165577    1.106325
     66          1           0       -4.196390    3.705099    1.604916
     67          1           0       -9.958991    3.993005   -0.682467
     68          1           0      -10.311702   -2.389024   -1.301422
     69          1           0       -2.260459   -1.070825    2.000962
     70          1           0       -2.072940    1.488078    1.341383
     71          1           0       -1.966335    0.571069    3.527572
     72          1           0       -2.912506    2.188938    3.564514
     73          1           0       -3.707196    0.310488    3.599170
     74          1           0       -2.029111   -1.370182   -0.520648
     75          1           0       -2.142894    0.246996   -0.905866
     76          1           0       -0.492516    0.771443    0.643645
     77          1           0       -0.344159   -1.092110    1.328868
     78          1           0       -5.552160    6.903468    0.857203
     79          1           0       -5.507845    5.767697    2.320717
     80          1           0       -4.307321    5.270400    1.152336
     81          1           0       -9.413085    5.939337   -0.479798
     82          1           0       -8.899903    8.090021    0.424077
     83          1           0       -7.739495    7.312922    1.494115
     84          1           0      -12.148752    3.087331   -2.034165
     85          1           0      -13.349795    2.129608   -1.515849
     86          1           0      -12.628349    3.123365   -0.396609
     87          1           0      -12.519297   -1.563897   -1.046911
     88          1           0      -13.274390   -0.208697   -1.645785
     89          1           0      -13.082315   -1.451787   -3.672373
     90          1           0      -12.094904   -0.144753   -3.926779
     91          1           0      -11.186085   -1.465247   -3.269970
     92          1           0       -8.827709   -4.725499   -1.982652
     93          1           0       -8.132797   -5.779949   -0.840087
     94          1           0       -9.455798   -4.673808   -0.117300
     95          1           0       -3.413397   -3.458304   -0.250099
     96          1           0       -1.861696   -4.382388    3.617516
     97          1           0       -3.032674   -6.038147    3.570171
     98          1           0       -1.295193   -6.052526    2.819576
     99          1           0        2.623860   -1.694795   -1.661605
    100          1           0        2.593935   -0.204237   -2.120531
    101          1           0        4.208654   -1.197386    0.208075
    102          1           0        4.157341    1.176507   -2.873017
    103          1           0        5.530467    2.136959   -2.280363
    104          1           0        5.704610    0.751203   -3.001824
    105          1           0        6.593908    1.361467    0.216717
    106          1           0        6.065313   -0.204232    0.724143
    107          1           0        7.507436   -1.375382   -1.391262
    108          1           0        7.675070    0.370406   -2.011411
    109          1           0        9.137903    0.877324    0.194152
    110          1           0        8.873355   -0.702152    0.809984
    111          1           0       10.462712    0.031798   -1.660554
    112          1           0        9.349048   -2.360985   -1.938333
    113          1           0       10.985448   -2.295821   -1.668858
    114          1           0       10.197309   -2.696555   -0.383286
    115          1           0       11.554345    0.794055    0.075041
    116          1           0       11.463190   -0.732064    0.943528
    117          1           0       12.921274   -1.496995   -0.963106
    118          1           0       12.899934    0.064947   -1.665392
    119          1           0       14.031101    0.768285    0.788947
    120          1           0       14.257876   -0.953438    0.985475
    121          1           0       15.576336    0.175136   -1.532559
    122          1           0       15.720398   -2.424127    0.396205
    123          1           0       14.954134   -2.370277   -1.325395
    124          1           0       16.614261   -2.042474   -1.007194
    125          1           0       16.009278    1.640585    0.548009
    126          1           0       16.448371    0.069869    1.445630
    127          1           0       18.140154   -0.432868   -0.490375
    128          1           0       17.560284    1.234797   -1.005369
    129          1           0       18.162449    2.082922    1.131954
    130          1           0       18.850923    0.667839    1.620719
    131          1           0       20.708876    0.357908   -0.154021
    132          1           0       19.639904    3.298326   -0.911553
    133          1           0       21.148422    2.495360   -1.273031
    134          1           0       19.597252    2.129690   -1.870808
    135          1           0       21.312306    1.536377    1.986221
    136          1           0       22.333067    1.813916    0.776005
    137          1           0       21.104255    3.267608    1.266832
 ---------------------------------------------------------------------

 SCF Done:  E(RCAM-B3LYP) =  -2933.40398801     A.U. after   16 cycles

 Excitation energies and oscillator strengths:

 Excited State   1:      Singlet-A      2.0050 eV  618.38 nm  f=0.2909  <S**2>=0.000
     240 -> 243       -0.20596
     241 -> 242        0.67204
 This state for optimization and/or second-order correction.
 Total Energy, E(TD-HF/TD-DFT) =  -2933.33030589
 Copying the excited state density for this state as the 1-particle RhoCI density.

 The electronic state is 1-A.
 Alpha  occ. eigenvalues --  -46.79537 -19.22638 -19.21199 -19.17885 -19.16998
 Alpha  occ. eigenvalues --  -19.16263 -14.37966 -14.35768 -14.35120 -14.34946
 Alpha  occ. eigenvalues --  -10.35817 -10.33864 -10.30954 -10.28760 -10.26677
 Alpha  occ. eigenvalues --  -10.26639 -10.26447 -10.25464 -10.25401 -10.25370
 Alpha  occ. eigenvalues --  -10.24728 -10.24556 -10.24322 -10.24274 -10.23956
 Alpha  occ. eigenvalues --  -10.23927 -10.23919 -10.23837 -10.23705 -10.23433
 Alpha  occ. eigenvalues --  -10.23391 -10.23359 -10.23163 -10.22943 -10.22924
 Alpha  occ. eigenvalues --  -10.22784 -10.22779 -10.22737 -10.22649 -10.22628
 Alpha  occ. eigenvalues --  -10.22375 -10.22328 -10.22129 -10.22006 -10.21704
 Alpha  occ. eigenvalues --  -10.21655 -10.21622 -10.21562 -10.21404 -10.21361
 Alpha  occ. eigenvalues --  -10.21317 -10.21244 -10.21218 -10.21203 -10.20943
 Alpha  occ. eigenvalues --  -10.20784 -10.20677 -10.20567 -10.20251 -10.20229
 Alpha  occ. eigenvalues --  -10.20199 -10.19412 -10.19290 -10.18400 -10.17801
 Alpha  occ. eigenvalues --   -3.08233  -1.83171  -1.82687  -1.82657  -1.14628
 Alpha  occ. eigenvalues --   -1.13848  -1.06140  -1.05894  -1.02135  -1.00180
 Alpha  occ. eigenvalues --   -0.98642  -0.97912  -0.96416  -0.88188  -0.86722
 Alpha  occ. eigenvalues --   -0.86175  -0.85642  -0.85060  -0.84692  -0.84073
 Alpha  occ. eigenvalues --   -0.83739  -0.83401  -0.83025  -0.82322  -0.81054
 Alpha  occ. eigenvalues --   -0.80353  -0.79489  -0.79235  -0.79128  -0.78864
 Alpha  occ. eigenvalues --   -0.77483  -0.76739  -0.76498  -0.75845  -0.73933
 Alpha  occ. eigenvalues --   -0.73139  -0.72852  -0.72596  -0.71524  -0.71214
 Alpha  occ. eigenvalues --   -0.70814  -0.70418  -0.69937  -0.68901  -0.68337
 Alpha  occ. eigenvalues --   -0.66903  -0.65820  -0.65488  -0.64555  -0.64257
 Alpha  occ. eigenvalues --   -0.63519  -0.61736  -0.61386  -0.60361  -0.60227
 Alpha  occ. eigenvalues --   -0.59812  -0.59657  -0.58778  -0.58645  -0.58283
 Alpha  occ. eigenvalues --   -0.57641  -0.57402  -0.56905  -0.56338  -0.55946
 Alpha  occ. eigenvalues --   -0.55067  -0.54548  -0.54357  -0.53828  -0.52453
 Alpha  occ. eigenvalues --   -0.52391  -0.51916  -0.51520  -0.51462  -0.51231
 Alpha  occ. eigenvalues --   -0.50933  -0.50747  -0.50533  -0.49942  -0.49875
 Alpha  occ. eigenvalues --   -0.49688  -0.49449  -0.48747  -0.48733  -0.48205
 Alpha  occ. eigenvalues --   -0.48096  -0.47711  -0.47549  -0.47242  -0.47175
 Alpha  occ. eigenvalues --   -0.46838  -0.46611  -0.46373  -0.46184  -0.46174
 Alpha  occ. eigenvalues --   -0.45964  -0.45473  -0.45424  -0.45140  -0.44917
 Alpha  occ. eigenvalues --   -0.44688  -0.44500  -0.44093  -0.43675  -0.43603
 Alpha  occ. eigenvalues --   -0.43387  -0.43168  -0.43129  -0.43105  -0.42896
 Alpha  occ. eigenvalues --   -0.42737  -0.42281  -0.42049  -0.41667  -0.41443
 Alpha  occ. eigenvalues --   -0.41254  -0.41177  -0.41132  -0.40971  -0.40876
 Alpha  occ. eigenvalues --   -0.40695  -0.40569  -0.40220  -0.39941  -0.39640
 Alpha  occ. eigenvalues --   -0.39567  -0.39214  -0.39172  -0.39121  -0.38926
 Alpha  occ. eigenvalues --   -0.38471  -0.38040  -0.37996  -0.37942  -0.37674
 Alpha  occ. eigenvalues --   -0.37659  -0.37252  -0.37189  -0.36879  -0.36521
 Alpha  occ. eigenvalues --   -0.36484  -0.36330  -0.36221  -0.35931  -0.35829
 Alpha  occ. eigenvalues --   -0.35736  -0.35253  -0.35097  -0.34769  -0.34595
 Alpha  occ. eigenvalues --   -0.34285  -0.33817  -0.33727  -0.33692  -0.33595
 Alpha  occ. eigenvalues --   -0.33524  -0.33157  -0.32686  -0.32574  -0.32429
 Alpha  occ. eigenvalues --   -0.32251  -0.32189  -0.31517  -0.31226  -0.30604
 Alpha  occ. eigenvalues --   -0.30126  -0.29828  -0.29741  -0.29034  -0.27820
 Alpha  occ. eigenvalues --   -0.27108  -0.26867  -0.25599  -0.24188  -0.22465
 Alpha  occ. eigenvalues --   -0.19992
 Alpha virt. eigenvalues --   -0.07499  -0.03905  -0.01074   0.01839   0.02969
 Alpha virt. eigenvalues --    0.03603   0.04425   0.04694   0.05260   0.05592
 Alpha virt. eigenvalues --    0.06326   0.08677   0.08966   0.09413   0.09697

 Mulliken charges:
               1
     1  Mg   0.815582
     2  C    0.031051
     3  C   -0.153465
     4  C   -0.154639
     5  C   -0.194577
     6  N   -0.627898
     7  C    0.289316
     8  C   -0.158260
     9  C   -0.137211
    10  C    0.354246
    11  C   -0.289157
    12  C   -0.156833
    13  C   -0.263719
    14  C    0.606619
    15  O   -0.430787
    16  O   -0.487668
    17  N   -0.739531
    18  C    0.315918
    19  C    0.054209
    20  C    0.027350
    21  C    0.291240
    22  C   -0.400698
    23  C   -0.097950
    24  C   -0.207069
    25  N   -0.730662
    26  C    0.327524
    27  C    0.054489
    28  C    0.000000
    29  C    0.314495
    30  C   -0.392306
    31  C   -0.240248
    32  C   -0.281425
    33  N   -0.703621
    34  C    0.270052
    35  C    0.067815
    36  C   -0.019723
    37  C    0.357724
    38  C   -0.390200
    39  C    0.372450
    40  O   -0.500286
    41  C   -0.292648
    42  C    0.613625
    43  O   -0.450219
    44  O   -0.392941
    45  C   -0.078909
    46  C    0.019130
    47  C   -0.131485
    48  C    0.157222
    49  C   -0.399487
    50  C   -0.224065
    51  C   -0.168818
    52  C   -0.158663
    53  C   -0.062124
    54  C   -0.300599
    55  C   -0.166615
    56  C   -0.163120
    57  C   -0.162268
    58  C   -0.050801
    59  C   -0.316633
    60  C   -0.200421
    61  C   -0.176419
    62  C   -0.156034
    63  C   -0.039182
    64  C   -0.294988
    65  C   -0.304487
    66  H    0.063881
    67  H    0.078557
    68  H    0.098854
    69  H    0.072153
    70  H    0.087783
    71  H    0.093248
    72  H    0.109000
    73  H    0.136911
    74  H    0.121887
    75  H    0.094332
    76  H    0.128496
    77  H    0.105747
    78  H    0.109625
    79  H    0.153280
    80  H    0.079436
    81  H    0.089816
    82  H    0.091282
    83  H    0.075200
    84  H    0.135792
    85  H    0.127411
    86  H    0.074162
    87  H    0.074806
    88  H    0.102400
    89  H    0.108073
    90  H    0.129944
    91  H    0.089168
    92  H    0.134503
    93  H    0.146286
    94  H    0.126494
    95  H    0.158790
    96  H    0.110349
    97  H    0.103796
    98  H    0.096109
    99  H    0.104807
   100  H    0.120324
   101  H    0.081458
   102  H    0.103911
   103  H    0.111446
   104  H    0.128944
   105  H    0.090526
   106  H    0.092413
   107  H    0.089539
   108  H    0.086303
   109  H    0.099268
   110  H    0.081023
   111  H    0.087162
   112  H    0.096685
   113  H    0.111148
   114  H    0.099418
   115  H    0.095688
   116  H    0.079527
   117  H    0.104645
   118  H    0.060636
   119  H    0.062856
   120  H    0.097158
   121  H    0.078269
   122  H    0.096718
   123  H    0.078747
   124  H    0.106244
   125  H    0.084338
   126  H    0.084787
   127  H    0.090565
   128  H    0.089723
   129  H    0.087022
   130  H    0.095998
   131  H    0.052573
   132  H    0.083945
   133  H    0.104814
   134  H    0.103879
   135  H    0.103631
   136  H    0.059549
   137  H    0.115541
 Sum of Mulliken charges =  -0.00000

 Dipole moment (field-independent basis, Debye):
    X=              1.4252    Y=              3.8011    Z=             -1.0785  Tot=              4.2003
 Quadrupole moment (field-independent basis, Debye-Ang):
   XX=           -328.9219   YY=           -398.4169   ZZ=           -397.3909
   XY=            -21.3451   XZ=             17.5045   YZ=             -1.1149

 Normal termination of Gaussian 16 at Mon Sep 16 01:36:54 2019.
