 Gaussian 16, Revision A.03,
 Gaussian 16:  ES64L-G16RevA.03 25-Dec-2016

 ----------------------------------------------------------------------
 # td=(NStates=1) iop(3/107=0140000000,3/108=0140000000) CAM-B3LYP/6-31
 G(d,p)
 ----------------------------------------------------------------------

 --
 TD
 --
 Symbolic Z-matrix:
 Charge =  0 Multiplicity = 1

                         Standard orientation:
 ---------------------------------------------------------------------
 Center     Atomic      Atomic             Coordinates (Angstroms)
 Number     Number       Type             X           Y           Z
 ---------------------------------------------------------------------
      1         12           0       -7.179955    0.621695    0.054245
      2          6           0       -4.939178   -1.986169    0.534929
      3          6           0       -4.742869    2.820608    1.116660
      4          6           0       -9.360111    3.062523   -0.440985
      5          6           0       -9.481964   -1.659225   -1.017319
      6          7           0       -5.089199    0.366801    0.746074
      7          6           0       -4.291111   -0.647218    0.817529
      8          6           0       -2.863667   -0.364093    1.136417
      9          6           0       -2.998813    1.125463    1.665702
     10          6           0       -4.368323    1.483936    1.111577
     11          6           0       -3.091541    1.183368    3.183619
     12          6           0       -1.898034   -0.587317    0.002771
     13          6           0       -0.481087   -0.507683    0.483200
     14          6           0        0.497868   -0.590814   -0.604920
     15          8           0        0.234238   -0.833522   -1.749113
     16          8           0        1.832688   -0.380418   -0.187001
     17          7           0       -7.074240    2.604710    0.317584
     18          6           0       -5.979187    3.361599    0.767166
     19          6           0       -6.463957    4.752752    0.855132
     20          6           0       -7.772801    4.827087    0.402285
     21          6           0       -8.093581    3.417161    0.064732
     22          6           0       -5.665290    5.890427    1.281746
     23          6           0       -8.610089    5.946092    0.236897
     24          6           0       -8.564170    7.209447    0.810005
     25          7           0       -9.058266    0.686995   -0.564283
     26          6           0       -9.900768    1.810557   -0.701823
     27          6           0      -11.250258    1.495452   -1.174479
     28          6           0      -11.221568    0.106881   -1.363857
     29          6           0       -9.849640   -0.374570   -0.961096
     30          6           0      -12.284139    2.507449   -1.353520
     31          6           0      -12.341860   -0.779847   -1.812345
     32          6           0      -12.202483   -1.126546   -3.363255
     33          7           0       -7.176480   -1.407475   -0.157988
     34          6           0       -8.303113   -2.257719   -0.532780
     35          6           0       -7.946872   -3.630697   -0.502584
     36          6           0       -6.563347   -3.626807   -0.008282
     37          6           0       -6.144537   -2.180307    0.134224
     38          6           0       -8.716584   -4.854869   -0.887203
     39          6           0       -5.367161   -4.402031    0.299134
     40          8           0       -5.199790   -5.593569    0.326435
     41          6           0       -4.200904   -3.260508    0.623978
     42          6           0       -3.587084   -3.667659    2.008606
     43          8           0       -3.866441   -3.164663    3.032601
     44          8           0       -2.750804   -4.624229    1.815187
     45          6           0       -2.304976   -5.341011    3.051575
     46          6           0        2.736163   -0.659192   -1.189298
     47          6           0        4.128356   -0.420413   -0.464001
     48          6           0        5.100739    0.433760   -0.913884
     49          6           0        5.075196    1.177613   -2.153008
     50          6           0        6.500261    0.325823   -0.165751
     51          6           0        7.663976   -0.253878   -0.943412
     52          6           0        8.915096   -0.137520   -0.210937
     53          6           0       10.171726   -0.458872   -0.889031
     54          6           0       10.104126   -1.872266   -1.571272
     55          6           0       11.421871   -0.330892   -0.074646
     56          6           0       12.779994   -0.342046   -0.755991
     57          6           0       13.997007   -0.121265    0.117223
     58          6           0       15.437697   -0.207182   -0.517758
     59          6           0       15.752945   -1.608126   -0.988431
     60          6           0       16.407991    0.468386    0.397278
     61          6           0       17.856397    0.597916   -0.105903
     62          6           0       18.805457    1.412673    0.818734
     63          6           0       20.295167    1.300693    0.294935
     64          6           0       20.517790    1.972037   -0.973671
     65          6           0       21.318894    1.775215    1.357506
     66          1           0       -4.061243    3.564639    1.677664
     67          1           0      -10.062029    3.890187   -0.515300
     68          1           0      -10.313213   -2.153569   -1.297297
     69          1           0       -2.479795   -1.096170    1.880576
     70          1           0       -2.092026    1.564708    1.371389
     71          1           0       -1.973979    1.010448    3.530953
     72          1           0       -3.351964    2.170371    3.607441
     73          1           0       -3.708506    0.354969    3.482081
     74          1           0       -2.135022   -1.471577   -0.484340
     75          1           0       -2.010453    0.360616   -0.640739
     76          1           0       -0.443194    0.589799    1.028859
     77          1           0       -0.324123   -1.116171    1.396882
     78          1           0       -5.827515    6.691280    0.576904
     79          1           0       -5.860210    6.200168    2.401219
     80          1           0       -4.602484    5.483312    1.254813
     81          1           0       -9.530814    6.102103   -0.525151
     82          1           0       -9.404905    7.791912    0.451157
     83          1           0       -7.809210    7.593084    1.379276
     84          1           0      -12.154287    2.603476   -2.601227
     85          1           0      -13.227363    2.038117   -1.244776
     86          1           0      -11.963190    3.204944   -0.541783
     87          1           0      -12.196834   -1.694554   -1.309659
     88          1           0      -13.464620   -0.248415   -1.438618
     89          1           0      -12.972373   -1.869709   -3.669247
     90          1           0      -12.295144   -0.121994   -3.975553
     91          1           0      -11.344428   -1.606129   -3.592476
     92          1           0       -9.216147   -4.749679   -1.820912
     93          1           0       -8.055569   -5.756730   -0.873071
     94          1           0       -9.659031   -4.958913   -0.162046
     95          1           0       -3.488529   -3.409922   -0.188701
     96          1           0       -1.818228   -4.655303    3.713107
     97          1           0       -3.126363   -5.864899    3.611483
     98          1           0       -1.538604   -6.054760    2.535662
     99          1           0        2.743122   -1.718284   -1.575928
    100          1           0        2.629150   -0.084640   -2.154662
    101          1           0        4.478868   -0.898358    0.384049
    102          1           0        3.966972    1.266622   -2.604839
    103          1           0        5.280583    2.180835   -1.837768
    104          1           0        5.654469    0.784294   -3.007133
    105          1           0        6.647170    1.342978    0.145972
    106          1           0        6.297738   -0.184547    0.786330
    107          1           0        7.660911   -1.344080   -1.141997
    108          1           0        7.551039    0.400284   -1.983045
    109          1           0        9.220373    0.857222    0.177296
    110          1           0        8.868900   -0.553555    0.657829
    111          1           0       10.514078    0.258204   -1.737936
    112          1           0        9.478080   -2.079185   -2.391974
    113          1           0       11.063497   -2.207331   -2.182892
    114          1           0        9.959223   -2.683883   -0.775397
    115          1           0       11.125570    0.771292    0.460393
    116          1           0       11.447716   -1.030113    0.733822
    117          1           0       12.875030   -1.371713   -1.306974
    118          1           0       12.800880    0.483758   -1.690285
    119          1           0       13.763465    0.771164    0.703574
    120          1           0       14.046544   -0.866176    0.932061
    121          1           0       15.323874    0.445691   -1.246028
    122          1           0       15.679897   -2.305745   -0.013310
    123          1           0       14.976129   -1.989835   -1.786739
    124          1           0       16.803549   -1.661263   -1.354526
    125          1           0       16.083496    1.313236    0.862777
    126          1           0       16.524400   -0.217137    1.201930
    127          1           0       18.176663   -0.539853   -0.113922
    128          1           0       17.941368    1.086382   -0.969781
    129          1           0       18.545213    2.433448    1.003475
    130          1           0       18.576934    0.745890    1.848159
    131          1           0       20.463760    0.181440   -0.006927
    132          1           0       20.402131    3.054852   -0.890420
    133          1           0       21.513118    1.874115   -1.274876
    134          1           0       19.901975    1.597120   -1.894272
    135          1           0       21.448375    1.233590    2.176785
    136          1           0       22.084789    1.820540    0.780557
    137          1           0       21.138059    2.751715    1.529801
 ---------------------------------------------------------------------

 SCF Done:  E(RCAM-B3LYP) =  -2933.49777631     A.U. after   16 cycles

 Excitation energies and oscillator strengths:

 Excited State   1:      Singlet-A      1.9759 eV  627.49 nm  f=0.3033  <S**2>=0.000
     240 -> 243        0.24220
     241 -> 242        0.66188
 This state for optimization and/or second-order correction.
 Total Energy, E(TD-HF/TD-DFT) =  -2933.42516430
 Copying the excited state density for this state as the 1-particle RhoCI density.

 The electronic state is 1-A.
 Alpha  occ. eigenvalues --  -46.79604 -19.22202 -19.21809 -19.18135 -19.15788
 Alpha  occ. eigenvalues --  -19.15687 -14.38556 -14.35476 -14.34806 -14.34634
 Alpha  occ. eigenvalues --  -10.35185 -10.33302 -10.29938 -10.28226 -10.27571
 Alpha  occ. eigenvalues --  -10.26929 -10.26221 -10.25547 -10.25260 -10.25036
 Alpha  occ. eigenvalues --  -10.24849 -10.24828 -10.24574 -10.24354 -10.24281
 Alpha  occ. eigenvalues --  -10.23556 -10.23442 -10.23435 -10.23256 -10.23143
 Alpha  occ. eigenvalues --  -10.23016 -10.22879 -10.22846 -10.22741 -10.22619
 Alpha  occ. eigenvalues --  -10.22486 -10.22324 -10.22247 -10.22178 -10.22118
 Alpha  occ. eigenvalues --  -10.22112 -10.22100 -10.21943 -10.21899 -10.21883
 Alpha  occ. eigenvalues --  -10.21882 -10.21856 -10.21835 -10.21814 -10.21769
 Alpha  occ. eigenvalues --  -10.21753 -10.21445 -10.21418 -10.21241 -10.20894
 Alpha  occ. eigenvalues --  -10.20893 -10.20638 -10.20520 -10.20278 -10.19941
 Alpha  occ. eigenvalues --  -10.19938 -10.19884 -10.19003 -10.18625 -10.16713
 Alpha  occ. eigenvalues --   -3.08323  -1.83249  -1.82823  -1.82713  -1.14647
 Alpha  occ. eigenvalues --   -1.13516  -1.06162  -1.05900  -1.05352  -1.01220
 Alpha  occ. eigenvalues --   -0.98193  -0.97123  -0.96046  -0.87070  -0.86942
 Alpha  occ. eigenvalues --   -0.86873  -0.85477  -0.84301  -0.84105  -0.83958
 Alpha  occ. eigenvalues --   -0.83867  -0.83718  -0.83316  -0.82098  -0.81420
 Alpha  occ. eigenvalues --   -0.80558  -0.79315  -0.78632  -0.78204  -0.77635
 Alpha  occ. eigenvalues --   -0.77003  -0.76615  -0.75489  -0.74661  -0.73478
 Alpha  occ. eigenvalues --   -0.73088  -0.72752  -0.72358  -0.71659  -0.71038
 Alpha  occ. eigenvalues --   -0.70880  -0.70294  -0.70198  -0.68955  -0.67984
 Alpha  occ. eigenvalues --   -0.67400  -0.66225  -0.65573  -0.64619  -0.63298
 Alpha  occ. eigenvalues --   -0.62603  -0.62470  -0.61757  -0.61232  -0.60247
 Alpha  occ. eigenvalues --   -0.59507  -0.59399  -0.59233  -0.58168  -0.58114
 Alpha  occ. eigenvalues --   -0.57966  -0.57621  -0.55744  -0.55483  -0.54571
 Alpha  occ. eigenvalues --   -0.54295  -0.54025  -0.53707  -0.53146  -0.52849
 Alpha  occ. eigenvalues --   -0.52437  -0.51803  -0.51439  -0.51134  -0.50878
 Alpha  occ. eigenvalues --   -0.50557  -0.50437  -0.50300  -0.49684  -0.49475
 Alpha  occ. eigenvalues --   -0.49084  -0.48923  -0.48711  -0.48643  -0.48413
 Alpha  occ. eigenvalues --   -0.48231  -0.47963  -0.47802  -0.47558  -0.46980
 Alpha  occ. eigenvalues --   -0.46867  -0.46720  -0.46254  -0.46200  -0.46020
 Alpha  occ. eigenvalues --   -0.45955  -0.45686  -0.45394  -0.45155  -0.44904
 Alpha  occ. eigenvalues --   -0.44735  -0.44469  -0.44142  -0.43918  -0.43660
 Alpha  occ. eigenvalues --   -0.43530  -0.42998  -0.42802  -0.42649  -0.42618
 Alpha  occ. eigenvalues --   -0.42297  -0.42004  -0.41978  -0.41806  -0.41684
 Alpha  occ. eigenvalues --   -0.41423  -0.41417  -0.41174  -0.41030  -0.40746
 Alpha  occ. eigenvalues --   -0.40627  -0.40560  -0.40431  -0.40100  -0.39889
 Alpha  occ. eigenvalues --   -0.39748  -0.39550  -0.39409  -0.39295  -0.39192
 Alpha  occ. eigenvalues --   -0.38972  -0.38747  -0.38663  -0.38563  -0.38333
 Alpha  occ. eigenvalues --   -0.38212  -0.37947  -0.37826  -0.37411  -0.37334
 Alpha  occ. eigenvalues --   -0.37291  -0.36996  -0.36697  -0.36652  -0.36406
 Alpha  occ. eigenvalues --   -0.35963  -0.35605  -0.35133  -0.34826  -0.34571
 Alpha  occ. eigenvalues --   -0.34290  -0.34143  -0.33682  -0.33674  -0.33418
 Alpha  occ. eigenvalues --   -0.33355  -0.33179  -0.32838  -0.32420  -0.32261
 Alpha  occ. eigenvalues --   -0.32036  -0.31997  -0.31886  -0.31401  -0.30636
 Alpha  occ. eigenvalues --   -0.30390  -0.30321  -0.29539  -0.28411  -0.26160
 Alpha  occ. eigenvalues --   -0.26148  -0.25867  -0.25263  -0.24422  -0.21584
 Alpha  occ. eigenvalues --   -0.19429
 Alpha virt. eigenvalues --   -0.07079  -0.03780  -0.00480   0.01850   0.02492
 Alpha virt. eigenvalues --    0.04621   0.05065   0.05289   0.05529   0.06046
 Alpha virt. eigenvalues --    0.06454   0.07756   0.08628   0.09601   0.09852

 Mulliken charges:
               1
     1  Mg   0.816199
     2  C    0.091907
     3  C   -0.190791
     4  C   -0.197076
     5  C   -0.144861
     6  N   -0.583268
     7  C    0.338326
     8  C   -0.165009
     9  C   -0.149057
    10  C    0.306820
    11  C   -0.291891
    12  C   -0.149783
    13  C   -0.283174
    14  C    0.633279
    15  O   -0.443557
    16  O   -0.464000
    17  N   -0.740549
    18  C    0.308667
    19  C   -0.002017
    20  C    0.087936
    21  C    0.330451
    22  C   -0.382847
    23  C   -0.140670
    24  C   -0.225906
    25  N   -0.720874
    26  C    0.299317
    27  C    0.040848
    28  C    0.014962
    29  C    0.327399
    30  C   -0.345088
    31  C   -0.251666
    32  C   -0.306924
    33  N   -0.754761
    34  C    0.253100
    35  C    0.055763
    36  C   -0.002124
    37  C    0.335583
    38  C   -0.379645
    39  C    0.330741
    40  O   -0.454618
    41  C   -0.369896
    42  C    0.603685
    43  O   -0.467139
    44  O   -0.421212
    45  C   -0.104421
    46  C    0.010862
    47  C   -0.111238
    48  C    0.097117
    49  C   -0.366281
    50  C   -0.232692
    51  C   -0.148320
    52  C   -0.150273
    53  C   -0.038814
    54  C   -0.330016
    55  C   -0.151437
    56  C   -0.161862
    57  C   -0.183084
    58  C   -0.036707
    59  C   -0.307743
    60  C   -0.185036
    61  C   -0.173768
    62  C   -0.158728
    63  C   -0.058692
    64  C   -0.318009
    65  C   -0.294683
    66  H    0.086646
    67  H    0.070350
    68  H    0.042020
    69  H    0.109419
    70  H    0.096370
    71  H    0.078743
    72  H    0.114100
    73  H    0.141657
    74  H    0.131839
    75  H    0.108453
    76  H    0.114932
    77  H    0.142831
    78  H    0.131732
    79  H    0.113149
    80  H    0.097203
    81  H    0.087311
    82  H    0.091074
    83  H    0.095321
    84  H    0.118434
    85  H    0.126697
    86  H    0.130641
    87  H    0.120913
    88  H    0.071193
    89  H    0.103071
    90  H    0.097059
    91  H    0.129877
    92  H    0.132073
    93  H    0.149958
    94  H    0.112471
    95  H    0.143356
    96  H    0.142471
    97  H    0.146555
    98  H    0.126294
    99  H    0.110476
   100  H    0.113229
   101  H    0.074956
   102  H    0.086208
   103  H    0.120179
   104  H    0.130014
   105  H    0.103745
   106  H    0.087344
   107  H    0.106904
   108  H    0.069145
   109  H    0.078113
   110  H    0.105430
   111  H    0.074362
   112  H    0.114133
   113  H    0.074650
   114  H    0.086799
   115  H    0.042489
   116  H    0.093169
   117  H    0.085713
   118  H    0.054945
   119  H    0.089427
   120  H    0.080655
   121  H    0.097437
   122  H    0.081032
   123  H    0.099965
   124  H    0.108731
   125  H    0.094921
   126  H    0.085260
   127  H    0.079022
   128  H    0.098876
   129  H    0.091230
   130  H    0.049965
   131  H    0.066837
   132  H    0.094623
   133  H    0.111664
   134  H    0.094965
   135  H    0.111830
   136  H    0.102031
   137  H    0.102555
 Sum of Mulliken charges =  -0.00000

 Dipole moment (field-independent basis, Debye):
    X=              0.8902    Y=              2.6957    Z=              0.2170  Tot=              2.8471
 Quadrupole moment (field-independent basis, Debye-Ang):
   XX=           -335.1563   YY=           -395.1090   ZZ=           -396.1943
   XY=             -6.8700   XZ=             12.7468   YZ=             -0.8999

 Normal termination of Gaussian 16 at Tue Sep 17 23:16:21 2019.
