 Gaussian 09, Revision D.01,
 Gaussian 09:  ES64L-G09RevD.01 24-Apr-2013

 -------------------------------------
 # td=(NStates=1) CAM-B3LYP/6-31G(d,p)
 -------------------------------------

 --
 TD
 --
 Symbolic Z-matrix:
 Charge =  0 Multiplicity = 1

                         Standard orientation:
 ---------------------------------------------------------------------
 Center     Atomic      Atomic             Coordinates (Angstroms)
 Number     Number       Type             X           Y           Z
 ---------------------------------------------------------------------
      1         12           0       -7.238621    0.599594    0.284885
      2          6           0       -4.811190   -1.910092    0.480289
      3          6           0       -4.888139    2.795011    1.141159
      4          6           0       -9.380861    3.049882   -0.474226
      5          6           0       -9.541951   -1.803238   -0.895473
      6          7           0       -5.114886    0.523054    0.649885
      7          6           0       -4.375392   -0.717391    0.878370
      8          6           0       -2.991683   -0.339319    1.134920
      9          6           0       -3.039096    1.057342    1.582992
     10          6           0       -4.414867    1.495103    1.222626
     11          6           0       -2.862638    1.162436    3.231847
     12          6           0       -1.905710   -0.569065   -0.077463
     13          6           0       -0.453804   -0.324878    0.464646
     14          6           0        0.659520   -0.621290   -0.694802
     15          8           0        0.339491   -1.000449   -1.766876
     16          8           0        1.849256   -0.637208   -0.094915
     17          7           0       -7.170002    2.607607    0.391908
     18          6           0       -6.101009    3.414028    0.907193
     19          6           0       -6.466078    4.765517    0.752181
     20          6           0       -7.713510    4.872898    0.429594
     21          6           0       -8.202952    3.486271    0.076052
     22          6           0       -5.448491    5.831559    1.092066
     23          6           0       -8.518315    6.023380    0.164325
     24          6           0       -8.562178    7.282686    0.845169
     25          7           0       -9.171752    0.674215   -0.491627
     26          6           0       -9.901921    1.815515   -0.640468
     27          6           0      -11.105544    1.415540   -1.228287
     28          6           0      -11.223104    0.075033   -1.370075
     29          6           0       -9.899203   -0.444790   -0.954881
     30          6           0      -12.123465    2.405836   -1.560110
     31          6           0      -12.329931   -0.838049   -1.790208
     32          6           0      -12.290084   -1.077781   -3.228465
     33          7           0       -7.240326   -1.401389   -0.226229
     34          6           0       -8.292617   -2.246100   -0.576828
     35          6           0       -7.782826   -3.625138   -0.371647
     36          6           0       -6.496668   -3.596198   -0.006649
     37          6           0       -6.187957   -2.143634    0.076373
     38          6           0       -8.582967   -4.828723   -0.769909
     39          6           0       -5.310727   -4.328630    0.246972
     40          8           0       -5.174738   -5.579001    0.382266
     41          6           0       -4.157826   -3.295625    0.526842
     42          6           0       -3.618830   -3.631594    1.954858
     43          8           0       -3.916510   -2.971206    2.951411
     44          8           0       -2.642185   -4.615412    1.765127
     45          6           0       -2.344522   -5.134479    3.074937
     46          6           0        2.800310   -0.672716   -1.205157
     47          6           0        4.142375   -0.447335   -0.504656
     48          6           0        5.163371    0.309242   -1.059263
     49          6           0        5.084221    1.167164   -2.253893
     50          6           0        6.550323    0.376078   -0.383225
     51          6           0        7.691820   -0.288530   -1.082318
     52          6           0        8.995997   -0.256762   -0.199013
     53          6           0       10.243019   -0.656149   -0.883280
     54          6           0       10.187346   -2.094805   -1.284206
     55          6           0       11.404209   -0.242142    0.002687
     56          6           0       12.761611   -0.509921   -0.654703
     57          6           0       13.960056   -0.143153    0.268290
     58          6           0       15.300420   -0.334249   -0.334051
     59          6           0       15.621791   -1.808486   -0.834391
     60          6           0       16.395115    0.354724    0.401585
     61          6           0       17.760402    0.434752   -0.054365
     62          6           0       18.718147    1.391043    0.741961
     63          6           0       20.226404    1.566425    0.246664
     64          6           0       20.254070    2.221476   -1.103445
     65          6           0       21.067499    2.126410    1.243898
     66          1           0       -4.040268    3.487123    1.321727
     67          1           0       -9.990119    3.899708   -0.810537
     68          1           0      -10.207798   -2.537958   -1.268390
     69          1           0       -2.648902   -1.024797    2.047397
     70          1           0       -2.163980    1.727664    1.190729
     71          1           0       -2.022230    0.349205    3.541998
     72          1           0       -2.514905    2.302327    3.664668
     73          1           0       -3.822903    0.899249    3.617067
     74          1           0       -2.096088   -1.645465   -0.386027
     75          1           0       -2.307262    0.058344   -0.716217
     76          1           0       -0.309377    0.715946    0.655243
     77          1           0       -0.222071   -0.824207    1.283609
     78          1           0       -5.678695    6.551208    0.393534
     79          1           0       -5.393541    6.360617    2.207183
     80          1           0       -4.218541    5.732435    0.931292
     81          1           0       -9.222060    5.972372   -0.511354
     82          1           0       -9.363397    7.983812    0.655757
     83          1           0       -7.781621    7.398787    1.623708
     84          1           0      -11.701498    3.061847   -2.255758
     85          1           0      -13.067304    2.132906   -1.980967
     86          1           0      -12.586530    3.125272   -0.844605
     87          1           0      -12.276340   -1.730308   -1.295337
     88          1           0      -13.368166   -0.118557   -1.854184
     89          1           0      -13.028019   -1.801829   -3.478984
     90          1           0      -12.408719   -0.195748   -3.921899
     91          1           0      -11.420053   -1.650710   -3.376936
     92          1           0       -9.379314   -4.574618   -1.591710
     93          1           0       -7.829420   -5.625934   -0.798043
     94          1           0       -9.152676   -4.921418    0.110265
     95          1           0       -3.496512   -3.307800   -0.405951
     96          1           0       -2.111517   -4.200066    3.830189
     97          1           0       -3.282603   -5.491373    3.385887
     98          1           0       -1.531059   -5.881004    2.648252
     99          1           0        2.658943   -1.601436   -1.860456
    100          1           0        2.699864    0.210784   -1.807981
    101          1           0        4.518291   -1.049500    0.427283
    102          1           0        4.140149    1.399631   -2.733398
    103          1           0        5.551564    2.027182   -2.092275
    104          1           0        5.642337    0.640516   -3.131759
    105          1           0        6.894953    1.358916   -0.257409
    106          1           0        6.689537   -0.073402    0.683482
    107          1           0        7.387024   -1.293417   -1.370961
    108          1           0        7.899919    0.239205   -2.042959
    109          1           0        9.122659    0.664300    0.285743
    110          1           0        8.787386   -0.919132    0.733391
    111          1           0       10.223982    0.074630   -1.720551
    112          1           0        9.249714   -2.348792   -1.939094
    113          1           0       11.210001   -2.416171   -1.883220
    114          1           0       10.391123   -2.775855   -0.465415
    115          1           0       11.271890    0.863845    0.273701
    116          1           0       11.267394   -0.737607    0.910646
    117          1           0       12.845278   -1.579091   -1.004678
    118          1           0       12.932550   -0.092816   -1.703977
    119          1           0       13.908970    0.906091    0.817050
    120          1           0       14.014794   -0.842903    1.128694
    121          1           0       15.447853    0.094332   -1.307622
    122          1           0       15.370718   -2.397874    0.074433
    123          1           0       14.897789   -2.016661   -1.804714
    124          1           0       16.879586   -1.761844   -1.156055
    125          1           0       16.232033    1.506090    0.701075
    126          1           0       16.497447   -0.209702    1.379627
    127          1           0       18.253819   -0.529071   -0.290103
    128          1           0       17.799301    0.891998   -1.054992
    129          1           0       18.313418    2.438628    0.844226
    130          1           0       18.461019    0.993163    1.673586
    131          1           0       20.575414    0.526382   -0.096771
    132          1           0       19.951288    3.246944   -0.926369
    133          1           0       21.294288    2.319111   -1.444989
    134          1           0       19.676806    1.782604   -1.969184
    135          1           0       21.276945    1.516431    2.259515
    136          1           0       21.939143    2.167002    0.773376
    137          1           0       20.596174    3.166599    1.626988
 ---------------------------------------------------------------------

 SCF Done:  E(RCAM-B3LYP) =  -2932.59341965     A.U. after   18 cycles

 Excitation energies and oscillator strengths:

 Excited State   1:      Singlet-A      1.9442 eV  637.70 nm  f=0.2484  <S**2>=0.000
     240 -> 243       -0.21405
     241 -> 242        0.66817
 This state for optimization and/or second-order correction.
 Total Energy, E(TD-HF/TD-KS) =  -2932.52196999
 Copying the excited state density for this state as the 1-particle RhoCI density.

 The electronic state is 1-A.
 Alpha  occ. eigenvalues --  -46.84111 -19.27481 -19.26801 -19.23330 -19.21903
 Alpha  occ. eigenvalues --  -19.19980 -14.41428 -14.39855 -14.38772 -14.38479
 Alpha  occ. eigenvalues --  -10.40942 -10.39467 -10.35154 -10.32813 -10.32225
 Alpha  occ. eigenvalues --  -10.30720 -10.29760 -10.29629 -10.29533 -10.29436
 Alpha  occ. eigenvalues --  -10.29389 -10.28639 -10.28583 -10.28426 -10.28372
 Alpha  occ. eigenvalues --  -10.28303 -10.28178 -10.28067 -10.27941 -10.27645
 Alpha  occ. eigenvalues --  -10.27603 -10.27538 -10.27355 -10.27225 -10.27130
 Alpha  occ. eigenvalues --  -10.26944 -10.26845 -10.26814 -10.26690 -10.26582
 Alpha  occ. eigenvalues --  -10.26504 -10.26495 -10.26302 -10.26297 -10.25999
 Alpha  occ. eigenvalues --  -10.25994 -10.25993 -10.25891 -10.25775 -10.25619
 Alpha  occ. eigenvalues --  -10.25480 -10.25347 -10.25324 -10.25283 -10.25190
 Alpha  occ. eigenvalues --  -10.25184 -10.25106 -10.24949 -10.24718 -10.24717
 Alpha  occ. eigenvalues --  -10.24683 -10.24606 -10.24323 -10.23858 -10.23796
 Alpha  occ. eigenvalues --   -3.13069  -1.87771  -1.87300  -1.87241  -1.20050
 Alpha  occ. eigenvalues --   -1.17443  -1.11642  -1.10307  -1.08304  -1.04309
 Alpha  occ. eigenvalues --   -1.03445  -1.02448  -1.01377  -0.92475  -0.92080
 Alpha  occ. eigenvalues --   -0.91129  -0.90329  -0.89898  -0.89532  -0.89463
 Alpha  occ. eigenvalues --   -0.89003  -0.88397  -0.87979  -0.87144  -0.85961
 Alpha  occ. eigenvalues --   -0.84939  -0.84722  -0.84208  -0.83726  -0.82752
 Alpha  occ. eigenvalues --   -0.81673  -0.81062  -0.80407  -0.80347  -0.77976
 Alpha  occ. eigenvalues --   -0.77101  -0.76811  -0.76481  -0.76094  -0.75452
 Alpha  occ. eigenvalues --   -0.75059  -0.74739  -0.74116  -0.73322  -0.72704
 Alpha  occ. eigenvalues --   -0.71414  -0.71056  -0.69520  -0.69290  -0.68572
 Alpha  occ. eigenvalues --   -0.67562  -0.66570  -0.66044  -0.64889  -0.64590
 Alpha  occ. eigenvalues --   -0.64291  -0.64206  -0.63706  -0.62852  -0.62013
 Alpha  occ. eigenvalues --   -0.61552  -0.60874  -0.60603  -0.59938  -0.59354
 Alpha  occ. eigenvalues --   -0.58393  -0.58376  -0.57939  -0.57630  -0.57310
 Alpha  occ. eigenvalues --   -0.56340  -0.55642  -0.55360  -0.54940  -0.54654
 Alpha  occ. eigenvalues --   -0.54545  -0.54305  -0.54134  -0.53778  -0.53643
 Alpha  occ. eigenvalues --   -0.53289  -0.52795  -0.52669  -0.52339  -0.52085
 Alpha  occ. eigenvalues --   -0.51605  -0.51503  -0.51312  -0.50899  -0.50829
 Alpha  occ. eigenvalues --   -0.50459  -0.50124  -0.49847  -0.49762  -0.49561
 Alpha  occ. eigenvalues --   -0.49300  -0.49017  -0.48874  -0.48614  -0.48510
 Alpha  occ. eigenvalues --   -0.48293  -0.47947  -0.47645  -0.47163  -0.47088
 Alpha  occ. eigenvalues --   -0.46718  -0.46417  -0.46318  -0.46267  -0.46153
 Alpha  occ. eigenvalues --   -0.45897  -0.45731  -0.45431  -0.45229  -0.45018
 Alpha  occ. eigenvalues --   -0.44911  -0.44617  -0.44488  -0.44267  -0.44167
 Alpha  occ. eigenvalues --   -0.43974  -0.43780  -0.43431  -0.43363  -0.43242
 Alpha  occ. eigenvalues --   -0.43186  -0.42834  -0.42620  -0.42489  -0.42309
 Alpha  occ. eigenvalues --   -0.42106  -0.41882  -0.41702  -0.41517  -0.41225
 Alpha  occ. eigenvalues --   -0.41120  -0.40866  -0.40737  -0.40672  -0.40396
 Alpha  occ. eigenvalues --   -0.40156  -0.39902  -0.39696  -0.39542  -0.39454
 Alpha  occ. eigenvalues --   -0.39181  -0.38984  -0.38232  -0.37709  -0.37630
 Alpha  occ. eigenvalues --   -0.37471  -0.37320  -0.37030  -0.36760  -0.36539
 Alpha  occ. eigenvalues --   -0.36479  -0.36144  -0.36108  -0.35487  -0.35452
 Alpha  occ. eigenvalues --   -0.35204  -0.35005  -0.34818  -0.34302  -0.33570
 Alpha  occ. eigenvalues --   -0.32912  -0.32545  -0.32123  -0.30666  -0.30141
 Alpha  occ. eigenvalues --   -0.29817  -0.29322  -0.27763  -0.27207  -0.23676
 Alpha  occ. eigenvalues --   -0.20432
 Alpha virt. eigenvalues --   -0.06186  -0.03046   0.00704   0.02997   0.04351
 Alpha virt. eigenvalues --    0.04835   0.05228   0.06510   0.07140   0.07423
 Alpha virt. eigenvalues --    0.08763   0.10422   0.10482   0.10788   0.11372

 Mulliken charges:
               1
     1  Mg   0.825408
     2  C    0.046457
     3  C   -0.221770
     4  C   -0.186676
     5  C   -0.153645
     6  N   -0.609151
     7  C    0.272096
     8  C   -0.172447
     9  C   -0.165903
    10  C    0.377381
    11  C   -0.295542
    12  C   -0.143880
    13  C   -0.267337
    14  C    0.587652
    15  O   -0.437054
    16  O   -0.449750
    17  N   -0.717514
    18  C    0.294729
    19  C    0.054570
    20  C    0.040605
    21  C    0.300689
    22  C   -0.364335
    23  C   -0.108479
    24  C   -0.244020
    25  N   -0.714409
    26  C    0.362510
    27  C    0.002651
    28  C    0.054610
    29  C    0.254264
    30  C   -0.398567
    31  C   -0.224874
    32  C   -0.296760
    33  N   -0.721086
    34  C    0.276916
    35  C   -0.053472
    36  C    0.107286
    37  C    0.284355
    38  C   -0.364449
    39  C    0.319390
    40  O   -0.497987
    41  C   -0.303474
    42  C    0.640374
    43  O   -0.460070
    44  O   -0.452762
    45  C   -0.093705
    46  C   -0.008162
    47  C   -0.148710
    48  C    0.114910
    49  C   -0.372528
    50  C   -0.231539
    51  C   -0.176862
    52  C   -0.178670
    53  C   -0.042091
    54  C   -0.302820
    55  C   -0.175419
    56  C   -0.185392
    57  C   -0.160622
    58  C   -0.064866
    59  C   -0.292333
    60  C   -0.156133
    61  C   -0.193628
    62  C   -0.177040
    63  C   -0.055910
    64  C   -0.310671
    65  C   -0.275778
    66  H    0.067262
    67  H    0.081564
    68  H    0.085306
    69  H    0.103913
    70  H    0.103972
    71  H    0.097792
    72  H    0.082806
    73  H    0.136129
    74  H    0.106243
    75  H    0.126515
    76  H    0.124722
    77  H    0.138555
    78  H    0.136192
    79  H    0.101683
    80  H    0.096569
    81  H    0.089044
    82  H    0.117615
    83  H    0.107185
    84  H    0.120924
    85  H    0.104694
    86  H    0.108889
    87  H    0.109004
    88  H    0.079189
    89  H    0.101498
    90  H    0.110343
    91  H    0.100218
    92  H    0.111849
    93  H    0.150742
    94  H    0.143485
    95  H    0.171849
    96  H    0.123757
    97  H    0.149319
    98  H    0.128781
    99  H    0.148809
   100  H    0.128041
   101  H    0.091902
   102  H    0.117246
   103  H    0.131181
   104  H    0.113725
   105  H    0.105242
   106  H    0.088216
   107  H    0.101622
   108  H    0.084033
   109  H    0.093580
   110  H    0.069747
   111  H    0.086364
   112  H    0.104777
   113  H    0.068440
   114  H    0.113791
   115  H    0.085263
   116  H    0.101883
   117  H    0.091636
   118  H    0.089119
   119  H    0.082777
   120  H    0.087281
   121  H    0.087631
   122  H    0.104053
   123  H    0.092676
   124  H    0.078317
   125  H    0.076003
   126  H    0.067708
   127  H    0.085970
   128  H    0.080465
   129  H    0.073803
   130  H    0.096659
   131  H    0.077982
   132  H    0.097903
   133  H    0.096856
   134  H    0.111595
   135  H    0.091571
   136  H    0.110298
   137  H    0.079666
 Sum of Mulliken charges =   0.00000

 Dipole moment (field-independent basis, Debye):
    X=              2.8433    Y=              4.4523    Z=              0.0478  Tot=              5.2829
 Quadrupole moment (field-independent basis, Debye-Ang):
   XX=           -349.8956   YY=           -395.5829   ZZ=           -396.9840
   XY=            -15.5473   XZ=              3.3001   YZ=             -2.3763

 Normal termination of Gaussian 09 at Wed Jul  3 13:01:56 2019.
