 Gaussian 16, Revision A.03,
 Gaussian 16:  ES64L-G16RevA.03 25-Dec-2016

 ----------------------------------------------------------------------
 # td=(NStates=1) iop(3/107=0140000000,3/108=0140000000) CAM-B3LYP/6-31
 G(d,p)
 ----------------------------------------------------------------------

 --
 TD
 --
 Symbolic Z-matrix:
 Charge =  0 Multiplicity = 1

                         Standard orientation:
 ---------------------------------------------------------------------
 Center     Atomic      Atomic             Coordinates (Angstroms)
 Number     Number       Type             X           Y           Z
 ---------------------------------------------------------------------
      1         12           0       -7.142576    0.594907    0.057928
      2          6           0       -4.964488   -2.017675    0.552930
      3          6           0       -4.825399    2.808275    1.253152
      4          6           0       -9.354336    3.169181   -0.477196
      5          6           0       -9.513466   -1.675863   -1.006417
      6          7           0       -5.242068    0.373510    0.847509
      7          6           0       -4.398935   -0.787736    0.862259
      8          6           0       -3.037344   -0.445275    1.285818
      9          6           0       -3.115147    1.087199    1.815070
     10          6           0       -4.434885    1.435574    1.247797
     11          6           0       -3.032519    1.232217    3.296401
     12          6           0       -2.015841   -0.538234    0.208938
     13          6           0       -0.603050   -0.535202    0.678593
     14          6           0        0.470622   -0.784256   -0.437244
     15          8           0        0.126453   -1.179625   -1.491743
     16          8           0        1.686443   -0.548384   -0.011505
     17          7           0       -7.008186    2.637154    0.283146
     18          6           0       -5.958467    3.329716    0.793509
     19          6           0       -6.333760    4.746599    0.757145
     20          6           0       -7.590188    4.916926    0.289668
     21          6           0       -8.053440    3.527469   -0.090169
     22          6           0       -5.359701    5.838825    1.323380
     23          6           0       -8.446415    6.097409    0.190508
     24          6           0       -8.440802    7.256564    0.756195
     25          7           0       -9.091536    0.660981   -0.771125
     26          6           0       -9.902749    1.880086   -0.751877
     27          6           0      -11.188725    1.508904   -1.228167
     28          6           0      -11.228472    0.135799   -1.505813
     29          6           0       -9.929694   -0.339481   -1.031213
     30          6           0      -12.172728    2.651155   -1.508273
     31          6           0      -12.446408   -0.549014   -1.860723
     32          6           0      -12.384443   -1.010308   -3.334748
     33          7           0       -7.356714   -1.331891   -0.128781
     34          6           0       -8.380159   -2.229027   -0.508565
     35          6           0       -7.959340   -3.582769   -0.546353
     36          6           0       -6.588962   -3.488289   -0.057360
     37          6           0       -6.279591   -2.173475    0.061971
     38          6           0       -8.814059   -4.794388   -0.911288
     39          6           0       -5.404049   -4.349997    0.317550
     40          8           0       -5.372914   -5.608912    0.223467
     41          6           0       -4.285086   -3.343123    0.532402
     42          6           0       -3.571191   -3.611832    1.905205
     43          8           0       -3.758842   -3.067128    2.955538
     44          8           0       -2.863034   -4.836187    1.797257
     45          6           0       -2.291652   -5.197986    3.045205
     46          6           0        2.719775   -0.720282   -0.982084
     47          6           0        4.005395   -0.393318   -0.268111
     48          6           0        5.030807    0.212019   -0.784243
     49          6           0        5.158715    0.920552   -2.089631
     50          6           0        6.445730    0.109634   -0.054232
     51          6           0        7.669409   -0.306763   -1.028314
     52          6           0        8.922144   -0.254202   -0.201199
     53          6           0       10.219781   -0.547816   -1.044220
     54          6           0       10.237927   -1.955818   -1.420667
     55          6           0       11.565085   -0.261542   -0.216364
     56          6           0       12.859182   -0.312525   -0.881944
     57          6           0       14.068835    0.021029    0.008163
     58          6           0       15.524385   -0.073365   -0.619573
     59          6           0       15.756239   -1.489951   -1.016618
     60          6           0       16.430201    0.578849    0.327203
     61          6           0       17.944767    0.547348   -0.284899
     62          6           0       18.904771    1.219927    0.733239
     63          6           0       20.480368    1.272652    0.326775
     64          6           0       20.720874    2.046596   -1.032447
     65          6           0       21.300249    1.861290    1.444698
     66          1           0       -4.170082    3.413250    1.699118
     67          1           0      -10.069773    3.898151   -0.408423
     68          1           0      -10.436502   -2.269076   -1.412891
     69          1           0       -2.816044   -1.206055    2.069788
     70          1           0       -2.203692    1.626367    1.157930
     71          1           0       -2.011571    1.164000    3.645048
     72          1           0       -3.332063    2.234458    3.507973
     73          1           0       -3.885106    0.582955    3.624961
     74          1           0       -2.076879   -1.436964   -0.294425
     75          1           0       -2.152849    0.117223   -0.648281
     76          1           0       -0.389544    0.404272    1.248502
     77          1           0       -0.214467   -1.152316    1.420037
     78          1           0       -5.693371    6.716449    0.639128
     79          1           0       -5.467415    6.070370    2.267260
     80          1           0       -4.384031    5.762207    1.061163
     81          1           0       -9.225976    5.882965   -0.700776
     82          1           0       -9.110012    7.940401    0.572612
     83          1           0       -7.524214    7.374365    1.532421
     84          1           0      -11.808840    3.343412   -2.177509
     85          1           0      -13.030904    2.164878   -2.141732
     86          1           0      -12.379044    3.083186   -0.375157
     87          1           0      -12.596219   -1.441474   -1.226288
     88          1           0      -13.376755   -0.029046   -1.801304
     89          1           0      -13.238200   -1.783151   -3.662991
     90          1           0      -12.334301   -0.165811   -4.058531
     91          1           0      -11.240621   -1.490037   -3.413181
     92          1           0       -8.895970   -4.666021   -1.931093
     93          1           0       -8.030978   -5.672047   -0.583142
     94          1           0       -9.679737   -4.705222   -0.346086
     95          1           0       -3.678283   -3.492620   -0.445890
     96          1           0       -1.847813   -4.231821    3.641991
     97          1           0       -3.209450   -5.552679    3.530361
     98          1           0       -1.617813   -6.052350    2.819606
     99          1           0        2.511176   -1.703563   -1.403783
    100          1           0        2.595937   -0.212276   -1.866071
    101          1           0        4.281835   -1.015517    0.678653
    102          1           0        4.245537    1.110047   -2.461460
    103          1           0        5.847997    1.855636   -1.901454
    104          1           0        5.898409    0.405806   -2.674240
    105          1           0        6.393034    1.103535    0.313802
    106          1           0        6.372239   -0.381427    0.873929
    107          1           0        7.479009   -1.157654   -1.564792
    108          1           0        7.635637    0.650136   -1.700944
    109          1           0        8.994916    0.651996    0.197707
    110          1           0        9.013096   -0.829657    0.749911
    111          1           0       10.256654    0.065739   -2.040272
    112          1           0        9.583022   -2.136903   -2.343770
    113          1           0       11.049312   -2.414232   -1.824456
    114          1           0       10.058740   -2.577862   -0.582140
    115          1           0       11.255647    0.985606    0.282485
    116          1           0       11.660985   -0.905085    0.553977
    117          1           0       13.038984   -1.297322   -1.328442
    118          1           0       12.937998    0.145988   -1.795965
    119          1           0       13.860258    0.982355    0.498863
    120          1           0       14.061801   -0.773422    0.825862
    121          1           0       15.533664    0.590994   -1.455513
    122          1           0       15.764368   -2.289770   -0.251420
    123          1           0       15.059782   -1.932492   -1.742976
    124          1           0       16.916441   -1.485639   -1.407677
    125          1           0       16.038011    1.641195    0.524459
    126          1           0       16.345828    0.092069    1.234336
    127          1           0       18.332194   -0.374746   -0.762633
    128          1           0       18.025659    1.123143   -1.173791
    129          1           0       18.523883    2.391746    0.920798
    130          1           0       18.612811    0.733331    1.710513
    131          1           0       20.613466    0.194315    0.021365
    132          1           0       20.127987    3.038908   -1.001318
    133          1           0       21.766814    2.116910   -1.578864
    134          1           0       19.928249    1.558187   -1.724413
    135          1           0       21.306409    1.308385    2.564847
    136          1           0       22.412101    1.936921    1.256158
    137          1           0       21.065574    2.923420    1.471120
 ---------------------------------------------------------------------

 SCF Done:  E(RCAM-B3LYP) =  -2933.44994831     A.U. after   16 cycles

 Excitation energies and oscillator strengths:

 Excited State   1:      Singlet-A      2.0604 eV  601.76 nm  f=0.1957  <S**2>=0.000
     240 -> 243        0.23933
     241 -> 242        0.65842
 This state for optimization and/or second-order correction.
 Total Energy, E(TD-HF/TD-DFT) =  -2933.37423165
 Copying the excited state density for this state as the 1-particle RhoCI density.

 The electronic state is 1-A.
 Alpha  occ. eigenvalues --  -46.78752 -19.22396 -19.21339 -19.18817 -19.16492
 Alpha  occ. eigenvalues --  -19.16048 -14.37885 -14.35005 -14.34520 -14.34125
 Alpha  occ. eigenvalues --  -10.35770 -10.33908 -10.30811 -10.27041 -10.27027
 Alpha  occ. eigenvalues --  -10.26696 -10.25989 -10.25754 -10.25646 -10.24494
 Alpha  occ. eigenvalues --  -10.24428 -10.24161 -10.23927 -10.23820 -10.23680
 Alpha  occ. eigenvalues --  -10.23663 -10.23384 -10.23129 -10.23081 -10.22855
 Alpha  occ. eigenvalues --  -10.22849 -10.22834 -10.22805 -10.22804 -10.22753
 Alpha  occ. eigenvalues --  -10.22676 -10.22617 -10.22603 -10.22593 -10.22430
 Alpha  occ. eigenvalues --  -10.22277 -10.22223 -10.21941 -10.21663 -10.21654
 Alpha  occ. eigenvalues --  -10.21581 -10.21554 -10.21527 -10.21525 -10.21490
 Alpha  occ. eigenvalues --  -10.21486 -10.21480 -10.21465 -10.21324 -10.21236
 Alpha  occ. eigenvalues --  -10.21222 -10.21083 -10.20987 -10.20860 -10.20662
 Alpha  occ. eigenvalues --  -10.20649 -10.20570 -10.20099 -10.19713 -10.19127
 Alpha  occ. eigenvalues --   -3.07467  -1.82404  -1.81962  -1.81863  -1.15187
 Alpha  occ. eigenvalues --   -1.12905  -1.06500  -1.05325  -1.03384  -0.98208
 Alpha  occ. eigenvalues --   -0.97294  -0.96682  -0.95813  -0.88447  -0.86592
 Alpha  occ. eigenvalues --   -0.86001  -0.85398  -0.84800  -0.84333  -0.83536
 Alpha  occ. eigenvalues --   -0.83258  -0.82700  -0.82351  -0.81547  -0.81313
 Alpha  occ. eigenvalues --   -0.80716  -0.79602  -0.78833  -0.78521  -0.77783
 Alpha  occ. eigenvalues --   -0.77125  -0.76106  -0.75897  -0.75539  -0.73968
 Alpha  occ. eigenvalues --   -0.73552  -0.72734  -0.71718  -0.71202  -0.70964
 Alpha  occ. eigenvalues --   -0.70564  -0.70255  -0.69804  -0.69115  -0.68096
 Alpha  occ. eigenvalues --   -0.67227  -0.66518  -0.65139  -0.64234  -0.63749
 Alpha  occ. eigenvalues --   -0.63583  -0.62711  -0.61853  -0.61400  -0.60631
 Alpha  occ. eigenvalues --   -0.60158  -0.60064  -0.59475  -0.59186  -0.57623
 Alpha  occ. eigenvalues --   -0.57510  -0.56251  -0.56102  -0.55254  -0.54524
 Alpha  occ. eigenvalues --   -0.54127  -0.53823  -0.53367  -0.53173  -0.52933
 Alpha  occ. eigenvalues --   -0.52305  -0.51746  -0.51515  -0.51155  -0.50924
 Alpha  occ. eigenvalues --   -0.50640  -0.50376  -0.50285  -0.50154  -0.49478
 Alpha  occ. eigenvalues --   -0.49277  -0.48976  -0.48739  -0.48327  -0.48150
 Alpha  occ. eigenvalues --   -0.48072  -0.48008  -0.47619  -0.47510  -0.47234
 Alpha  occ. eigenvalues --   -0.47124  -0.46731  -0.46367  -0.46200  -0.46035
 Alpha  occ. eigenvalues --   -0.45638  -0.45593  -0.45169  -0.44846  -0.44648
 Alpha  occ. eigenvalues --   -0.44383  -0.44215  -0.44078  -0.43877  -0.43795
 Alpha  occ. eigenvalues --   -0.43618  -0.43431  -0.43296  -0.43124  -0.42929
 Alpha  occ. eigenvalues --   -0.42479  -0.42361  -0.42257  -0.41922  -0.41806
 Alpha  occ. eigenvalues --   -0.41689  -0.41000  -0.40884  -0.40814  -0.40607
 Alpha  occ. eigenvalues --   -0.40585  -0.40199  -0.40144  -0.39980  -0.39799
 Alpha  occ. eigenvalues --   -0.39651  -0.39293  -0.39010  -0.38982  -0.38685
 Alpha  occ. eigenvalues --   -0.38531  -0.38394  -0.38368  -0.38207  -0.38013
 Alpha  occ. eigenvalues --   -0.37809  -0.37683  -0.37366  -0.37347  -0.37145
 Alpha  occ. eigenvalues --   -0.36683  -0.36522  -0.36493  -0.36122  -0.36094
 Alpha  occ. eigenvalues --   -0.35781  -0.35611  -0.35329  -0.35164  -0.34686
 Alpha  occ. eigenvalues --   -0.34159  -0.34064  -0.33986  -0.33914  -0.33549
 Alpha  occ. eigenvalues --   -0.33205  -0.33178  -0.33049  -0.32902  -0.32208
 Alpha  occ. eigenvalues --   -0.32021  -0.31928  -0.31588  -0.31539  -0.30451
 Alpha  occ. eigenvalues --   -0.30047  -0.29940  -0.29886  -0.28222  -0.27391
 Alpha  occ. eigenvalues --   -0.26806  -0.25910  -0.25666  -0.24708  -0.21751
 Alpha  occ. eigenvalues --   -0.19859
 Alpha virt. eigenvalues --   -0.06704  -0.04015  -0.00557   0.01911   0.03016
 Alpha virt. eigenvalues --    0.04597   0.04856   0.05031   0.05659   0.06434
 Alpha virt. eigenvalues --    0.06601   0.08697   0.09041   0.09488   0.09888

 Mulliken charges:
               1
     1  Mg   0.795769
     2  C    0.044555
     3  C   -0.174196
     4  C   -0.170248
     5  C   -0.170933
     6  N   -0.635113
     7  C    0.309328
     8  C   -0.179709
     9  C   -0.147506
    10  C    0.330979
    11  C   -0.294206
    12  C   -0.171360
    13  C   -0.273170
    14  C    0.590969
    15  O   -0.460960
    16  O   -0.441736
    17  N   -0.726279
    18  C    0.393726
    19  C   -0.048581
    20  C    0.051190
    21  C    0.275314
    22  C   -0.373451
    23  C   -0.048223
    24  C   -0.230953
    25  N   -0.660051
    26  C    0.274273
    27  C   -0.015806
    28  C    0.055225
    29  C    0.301393
    30  C   -0.355850
    31  C   -0.248816
    32  C   -0.299962
    33  N   -0.734867
    34  C    0.282044
    35  C   -0.026234
    36  C   -0.014083
    37  C    0.328704
    38  C   -0.354496
    39  C    0.376809
    40  O   -0.482239
    41  C   -0.315318
    42  C    0.615537
    43  O   -0.438610
    44  O   -0.457595
    45  C   -0.084335
    46  C   -0.007004
    47  C   -0.139525
    48  C    0.118181
    49  C   -0.362182
    50  C   -0.247256
    51  C   -0.177656
    52  C   -0.150648
    53  C   -0.068993
    54  C   -0.301409
    55  C   -0.125597
    56  C   -0.185099
    57  C   -0.183832
    58  C   -0.042962
    59  C   -0.306241
    60  C   -0.167877
    61  C   -0.205728
    62  C   -0.163253
    63  C   -0.046916
    64  C   -0.317435
    65  C   -0.290851
    66  H    0.057503
    67  H    0.079418
    68  H    0.076843
    69  H    0.122208
    70  H    0.088088
    71  H    0.119040
    72  H    0.112592
    73  H    0.132523
    74  H    0.121506
    75  H    0.117547
    76  H    0.106407
    77  H    0.133188
    78  H    0.107133
    79  H    0.138688
    80  H    0.123253
    81  H    0.067802
    82  H    0.099606
    83  H    0.084280
    84  H    0.139607
    85  H    0.094174
    86  H    0.107295
    87  H    0.110184
    88  H    0.114206
    89  H    0.086790
    90  H    0.113373
    91  H    0.077536
    92  H    0.143889
    93  H    0.139162
    94  H    0.136732
    95  H    0.179652
    96  H    0.111815
    97  H    0.134696
    98  H    0.124463
    99  H    0.127717
   100  H    0.121409
   101  H    0.078004
   102  H    0.114770
   103  H    0.100043
   104  H    0.139926
   105  H    0.118641
   106  H    0.095732
   107  H    0.121415
   108  H    0.088491
   109  H    0.102507
   110  H    0.087042
   111  H    0.067486
   112  H    0.081457
   113  H    0.108354
   114  H    0.103251
   115  H    0.008273
   116  H    0.098632
   117  H    0.084752
   118  H    0.096352
   119  H    0.084928
   120  H    0.074134
   121  H    0.093498
   122  H    0.103602
   123  H    0.108712
   124  H    0.069966
   125  H    0.092170
   126  H    0.101287
   127  H    0.096446
   128  H    0.102432
   129  H    0.052528
   130  H    0.095185
   131  H    0.089508
   132  H    0.095625
   133  H    0.108185
   134  H    0.087688
   135  H    0.075615
   136  H    0.093948
   137  H    0.110443
 Sum of Mulliken charges =  -0.00000

 Dipole moment (field-independent basis, Debye):
    X=              3.8658    Y=              4.1754    Z=              0.0421  Tot=              5.6903
 Quadrupole moment (field-independent basis, Debye-Ang):
   XX=           -356.3781   YY=           -402.0943   ZZ=           -394.5059
   XY=            -29.4539   XZ=             -2.0729   YZ=             -0.3912

 Normal termination of Gaussian 16 at Wed Sep 11 17:04:38 2019.
