 Gaussian 16, Revision A.03,
 Gaussian 16:  ES64L-G16RevA.03 25-Dec-2016

 -------------------------------------
 # td=(NStates=1) CAM-B3LYP/6-31G(d,p)
 -------------------------------------

 --
 TD
 --
 Symbolic Z-matrix:
 Charge =  0 Multiplicity = 1

                         Standard orientation:
 ---------------------------------------------------------------------
 Center     Atomic      Atomic             Coordinates (Angstroms)
 Number     Number       Type             X           Y           Z
 ---------------------------------------------------------------------
      1         12           0       -7.146938    0.597738    0.089738
      2          6           0       -4.923763   -1.980595    0.657691
      3          6           0       -4.836912    2.874335    1.213905
      4          6           0       -9.448145    3.130923   -0.301030
      5          6           0       -9.440249   -1.759944   -0.954487
      6          7           0       -5.067631    0.456432    0.683989
      7          6           0       -4.274808   -0.707277    0.778649
      8          6           0       -2.967370   -0.286281    1.281822
      9          6           0       -3.011455    1.064966    1.697340
     10          6           0       -4.369122    1.558037    1.091563
     11          6           0       -3.105574    1.397289    3.198921
     12          6           0       -1.917178   -0.587385    0.097924
     13          6           0       -0.450232   -0.497657    0.543536
     14          6           0        0.553296   -0.668612   -0.670514
     15          8           0        0.259789   -0.979836   -1.828998
     16          8           0        1.749782   -0.497420   -0.172367
     17          7           0       -7.115642    2.634238    0.326862
     18          6           0       -6.080280    3.355327    0.787903
     19          6           0       -6.394263    4.751796    0.784428
     20          6           0       -7.734799    4.823728    0.323239
     21          6           0       -8.161935    3.459075   -0.007557
     22          6           0       -5.415579    5.947188    1.089441
     23          6           0       -8.623360    5.994707    0.196336
     24          6           0       -8.455235    7.227752    0.819493
     25          7           0       -9.081654    0.613418   -0.541885
     26          6           0       -9.872122    1.745588   -0.721397
     27          6           0      -11.178393    1.395204   -1.229455
     28          6           0      -11.194447    0.026368   -1.348298
     29          6           0       -9.895659   -0.481918   -0.927886
     30          6           0      -12.277306    2.328275   -1.432342
     31          6           0      -12.333114   -0.863974   -1.687496
     32          6           0      -12.287097   -1.257789   -3.193315
     33          7           0       -7.192873   -1.422039   -0.098160
     34          6           0       -8.289075   -2.219708   -0.564157
     35          6           0       -7.821045   -3.622827   -0.617430
     36          6           0       -6.494490   -3.561479    0.041510
     37          6           0       -6.248790   -2.194942    0.194130
     38          6           0       -8.424236   -4.850133   -1.128428
     39          6           0       -5.397260   -4.359437    0.360657
     40          8           0       -5.171598   -5.574801    0.275129
     41          6           0       -4.230358   -3.393118    0.652361
     42          6           0       -3.566293   -3.670071    1.971526
     43          8           0       -3.907115   -3.115861    2.980809
     44          8           0       -2.626762   -4.601007    1.880661
     45          6           0       -1.964744   -5.110339    3.101901
     46          6           0        2.805381   -0.514714   -1.141711
     47          6           0        4.109524   -0.285113   -0.546749
     48          6           0        5.146473    0.434656   -1.071646
     49          6           0        5.071479    1.349334   -2.238802
     50          6           0        6.474269    0.476066   -0.361741
     51          6           0        7.683742   -0.081724   -1.052342
     52          6           0        8.965546    0.020894   -0.158966
     53          6           0       10.172320   -0.493770   -0.954699
     54          6           0       10.053801   -2.044679   -1.278808
     55          6           0       11.458470   -0.208392   -0.145531
     56          6           0       12.785854   -0.562010   -0.836806
     57          6           0       13.900877   -0.081878    0.117393
     58          6           0       15.319621   -0.355554   -0.487738
     59          6           0       15.718412   -1.789550   -0.693622
     60          6           0       16.356740    0.327262    0.466974
     61          6           0       17.722458    0.458287   -0.158247
     62          6           0       18.826750    1.061791    0.839002
     63          6           0       20.180732    1.361144    0.229623
     64          6           0       20.221257    2.192158   -1.038054
     65          6           0       21.148968    1.892441    1.239672
     66          1           0       -4.099901    3.606126    1.478757
     67          1           0      -10.179204    3.832898   -0.380967
     68          1           0      -10.127445   -2.521784   -1.301016
     69          1           0       -2.666617   -0.805195    2.062016
     70          1           0       -2.251459    1.709773    1.376047
     71          1           0       -2.124128    0.778115    3.507217
     72          1           0       -2.975613    2.314607    3.463638
     73          1           0       -4.068534    1.026224    3.857483
     74          1           0       -2.074219   -1.589668   -0.179752
     75          1           0       -2.145261    0.068718   -0.889785
     76          1           0       -0.390662    0.403985    1.110890
     77          1           0        0.001191   -1.255379    1.388638
     78          1           0       -5.662987    6.731747    0.446924
     79          1           0       -5.534719    6.324211    1.973759
     80          1           0       -4.420734    5.883626    0.749547
     81          1           0       -9.549825    5.590801   -0.303346
     82          1           0       -9.295107    8.009894    0.917791
     83          1           0       -7.445961    7.446504    1.362639
     84          1           0      -11.923657    3.200671   -2.147170
     85          1           0      -13.260512    1.904335   -1.872703
     86          1           0      -12.491004    2.834747   -0.395044
     87          1           0      -12.285578   -1.866118   -1.153768
     88          1           0      -13.255430   -0.247327   -1.501944
     89          1           0      -13.386783   -1.767088   -3.417957
     90          1           0      -12.261163   -0.522771   -4.051960
     91          1           0      -11.387434   -1.970448   -3.409211
     92          1           0       -8.445627   -4.918284   -2.317973
     93          1           0       -8.059283   -5.901224   -0.743653
     94          1           0       -9.576849   -4.969792   -0.728794
     95          1           0       -3.428396   -3.379566   -0.178325
     96          1           0       -1.713579   -4.194368    3.746558
     97          1           0       -2.806587   -5.817805    3.616959
     98          1           0       -1.115125   -5.702739    2.721533
     99          1           0        2.712116   -1.590579   -1.683353
    100          1           0        2.567040    0.247869   -1.876767
    101          1           0        4.415384   -0.807044    0.343866
    102          1           0        4.072902    1.405363   -2.692695
    103          1           0        5.306021    2.365851   -1.874654
    104          1           0        6.002055    1.125853   -2.887627
    105          1           0        6.719824    1.559500   -0.005414
    106          1           0        6.181176    0.041076    0.700777
    107          1           0        7.479294   -1.020648   -1.518729
    108          1           0        7.831477    0.722716   -1.905946
    109          1           0        9.161463    1.039340    0.380265
    110          1           0        8.997207   -0.623445    0.689355
    111          1           0       10.055870   -0.074035   -1.978481
    112          1           0        8.939975   -2.404839   -1.678154
    113          1           0       10.687866   -2.370950   -1.825818
    114          1           0       10.030077   -2.544791   -0.308377
    115          1           0       11.510570    0.965510    0.102885
    116          1           0       11.305510   -0.776382    0.865212
    117          1           0       12.859779   -1.676775   -1.215273
    118          1           0       12.900674    0.150491   -1.637757
    119          1           0       13.827401    1.012202    0.141939
    120          1           0       13.907532   -0.762655    0.975508
    121          1           0       15.332531    0.342094   -1.569747
    122          1           0       15.834680   -2.424385    0.450749
    123          1           0       14.866637   -2.398778   -1.008308
    124          1           0       16.688711   -2.170781   -1.160629
    125          1           0       16.096156    1.326239    0.731180
    126          1           0       16.406382   -0.222402    1.205511
    127          1           0       18.241569   -0.403475   -0.285646
    128          1           0       17.776237    1.081563   -1.113575
    129          1           0       18.508931    2.148598    1.082200
    130          1           0       18.720757    0.568941    1.850750
    131          1           0       20.595577    0.422584   -0.052500
    132          1           0       19.899764    3.168479   -0.578277
    133          1           0       21.225078    2.332588   -1.363289
    134          1           0       19.571046    2.069583   -1.993095
    135          1           0       21.236228    1.168134    2.096489
    136          1           0       22.207230    2.052706    0.652806
    137          1           0       20.716850    2.739128    1.417128
 ---------------------------------------------------------------------

 SCF Done:  E(RCAM-B3LYP) =  -2932.62682466     A.U. after   17 cycles

 Excitation energies and oscillator strengths:

 Excited State   1:      Singlet-A      2.1620 eV  573.46 nm  f=0.1838  <S**2>=0.000
     240 -> 242        0.17269
     240 -> 243       -0.26959
     241 -> 242        0.60853
     241 -> 243        0.11207
 This state for optimization and/or second-order correction.
 Total Energy, E(TD-HF/TD-DFT) =  -2932.54737079
 Copying the excited state density for this state as the 1-particle RhoCI density.

 The electronic state is 1-A.
 Alpha  occ. eigenvalues --  -46.83889 -19.27289 -19.25387 -19.21069 -19.19330
 Alpha  occ. eigenvalues --  -19.18441 -14.40957 -14.39434 -14.38998 -14.38932
 Alpha  occ. eigenvalues --  -10.39738 -10.37745 -10.33333 -10.33188 -10.32783
 Alpha  occ. eigenvalues --  -10.30868 -10.30657 -10.29880 -10.29764 -10.29741
 Alpha  occ. eigenvalues --  -10.29512 -10.28707 -10.28585 -10.28530 -10.28477
 Alpha  occ. eigenvalues --  -10.28442 -10.28035 -10.27917 -10.27797 -10.27792
 Alpha  occ. eigenvalues --  -10.27726 -10.27503 -10.27467 -10.27434 -10.27380
 Alpha  occ. eigenvalues --  -10.27364 -10.27350 -10.27263 -10.27168 -10.27165
 Alpha  occ. eigenvalues --  -10.27112 -10.27032 -10.26797 -10.26651 -10.26582
 Alpha  occ. eigenvalues --  -10.26573 -10.26553 -10.26405 -10.26115 -10.25969
 Alpha  occ. eigenvalues --  -10.25861 -10.25836 -10.25696 -10.25631 -10.25625
 Alpha  occ. eigenvalues --  -10.25574 -10.25088 -10.25048 -10.24944 -10.24739
 Alpha  occ. eigenvalues --  -10.24464 -10.24422 -10.24262 -10.24192 -10.22718
 Alpha  occ. eigenvalues --   -3.12904  -1.87623  -1.87122  -1.87093  -1.19884
 Alpha  occ. eigenvalues --   -1.17294  -1.08884  -1.08442  -1.08297  -1.04908
 Alpha  occ. eigenvalues --   -1.03861  -1.02715  -1.01073  -0.91914  -0.91768
 Alpha  occ. eigenvalues --   -0.90914  -0.90447  -0.90046  -0.89216  -0.88991
 Alpha  occ. eigenvalues --   -0.88428  -0.88257  -0.87592  -0.86974  -0.86353
 Alpha  occ. eigenvalues --   -0.85279  -0.84466  -0.83455  -0.83189  -0.82200
 Alpha  occ. eigenvalues --   -0.81687  -0.81086  -0.80307  -0.79778  -0.78288
 Alpha  occ. eigenvalues --   -0.78130  -0.76873  -0.76664  -0.75759  -0.75558
 Alpha  occ. eigenvalues --   -0.75293  -0.75215  -0.74653  -0.73733  -0.72155
 Alpha  occ. eigenvalues --   -0.71539  -0.70333  -0.69016  -0.68449  -0.68122
 Alpha  occ. eigenvalues --   -0.67329  -0.66863  -0.65393  -0.65036  -0.64868
 Alpha  occ. eigenvalues --   -0.63869  -0.63489  -0.63013  -0.62787  -0.61390
 Alpha  occ. eigenvalues --   -0.61183  -0.60829  -0.59792  -0.59713  -0.59449
 Alpha  occ. eigenvalues --   -0.58326  -0.57720  -0.57562  -0.56933  -0.56626
 Alpha  occ. eigenvalues --   -0.56372  -0.56321  -0.55516  -0.55206  -0.54955
 Alpha  occ. eigenvalues --   -0.54743  -0.54455  -0.54357  -0.53966  -0.53473
 Alpha  occ. eigenvalues --   -0.52890  -0.52577  -0.52111  -0.51946  -0.51896
 Alpha  occ. eigenvalues --   -0.51168  -0.51060  -0.50994  -0.50831  -0.50748
 Alpha  occ. eigenvalues --   -0.50589  -0.50286  -0.49931  -0.49579  -0.49384
 Alpha  occ. eigenvalues --   -0.49148  -0.48690  -0.48530  -0.48254  -0.48042
 Alpha  occ. eigenvalues --   -0.48002  -0.47725  -0.47503  -0.47269  -0.46836
 Alpha  occ. eigenvalues --   -0.46713  -0.46528  -0.46167  -0.46131  -0.45906
 Alpha  occ. eigenvalues --   -0.45722  -0.45645  -0.45231  -0.44906  -0.44860
 Alpha  occ. eigenvalues --   -0.44835  -0.44619  -0.44526  -0.44245  -0.44156
 Alpha  occ. eigenvalues --   -0.43610  -0.43431  -0.43319  -0.43128  -0.42952
 Alpha  occ. eigenvalues --   -0.42870  -0.42815  -0.42555  -0.42452  -0.42240
 Alpha  occ. eigenvalues --   -0.42196  -0.42036  -0.41601  -0.41453  -0.41191
 Alpha  occ. eigenvalues --   -0.40924  -0.40690  -0.40609  -0.40411  -0.40103
 Alpha  occ. eigenvalues --   -0.40056  -0.39854  -0.39749  -0.39442  -0.39066
 Alpha  occ. eigenvalues --   -0.38999  -0.38819  -0.38456  -0.38409  -0.38300
 Alpha  occ. eigenvalues --   -0.37959  -0.37811  -0.37194  -0.36658  -0.36608
 Alpha  occ. eigenvalues --   -0.36360  -0.36074  -0.35911  -0.35670  -0.35456
 Alpha  occ. eigenvalues --   -0.35151  -0.34785  -0.34213  -0.33818  -0.33145
 Alpha  occ. eigenvalues --   -0.33062  -0.32712  -0.32324  -0.29744  -0.29283
 Alpha  occ. eigenvalues --   -0.29120  -0.28549  -0.27589  -0.26915  -0.22678
 Alpha  occ. eigenvalues --   -0.21509
 Alpha virt. eigenvalues --   -0.06107  -0.03506   0.01434   0.03875   0.05011
 Alpha virt. eigenvalues --    0.06069   0.06368   0.06893   0.07456   0.08176
 Alpha virt. eigenvalues --    0.08392   0.10675   0.10873   0.11143   0.11660

 Mulliken charges:
               1
     1  Mg   0.818177
     2  C    0.054417
     3  C   -0.198008
     4  C   -0.152300
     5  C   -0.160484
     6  N   -0.630478
     7  C    0.289727
     8  C   -0.134270
     9  C   -0.141928
    10  C    0.326338
    11  C   -0.281670
    12  C   -0.183734
    13  C   -0.274945
    14  C    0.615988
    15  O   -0.491666
    16  O   -0.443388
    17  N   -0.732461
    18  C    0.347380
    19  C   -0.017510
    20  C   -0.019608
    21  C    0.333297
    22  C   -0.374860
    23  C   -0.047129
    24  C   -0.261479
    25  N   -0.691644
    26  C    0.257976
    27  C    0.041615
    28  C    0.057435
    29  C    0.263667
    30  C   -0.387310
    31  C   -0.242606
    32  C   -0.297573
    33  N   -0.742841
    34  C    0.263648
    35  C    0.074936
    36  C    0.010969
    37  C    0.364564
    38  C   -0.399053
    39  C    0.340887
    40  O   -0.496470
    41  C   -0.321277
    42  C    0.626319
    43  O   -0.472726
    44  O   -0.463852
    45  C   -0.082848
    46  C    0.019168
    47  C   -0.139080
    48  C    0.129162
    49  C   -0.362525
    50  C   -0.231366
    51  C   -0.165892
    52  C   -0.164086
    53  C   -0.073737
    54  C   -0.290705
    55  C   -0.158354
    56  C   -0.182562
    57  C   -0.169015
    58  C   -0.051388
    59  C   -0.305707
    60  C   -0.133620
    61  C   -0.183436
    62  C   -0.186408
    63  C   -0.076359
    64  C   -0.307644
    65  C   -0.280851
    66  H    0.077445
    67  H    0.086172
    68  H    0.094709
    69  H    0.117803
    70  H    0.112971
    71  H    0.073431
    72  H    0.126878
    73  H    0.111761
    74  H    0.126902
    75  H    0.113606
    76  H    0.129872
    77  H    0.115032
    78  H    0.130795
    79  H    0.137172
    80  H    0.121362
    81  H    0.081296
    82  H    0.113062
    83  H    0.099261
    84  H    0.108345
    85  H    0.111427
    86  H    0.113788
    87  H    0.115378
    88  H    0.103152
    89  H    0.072531
    90  H    0.113192
    91  H    0.100085
    92  H    0.125388
    93  H    0.154428
    94  H    0.096741
    95  H    0.154697
    96  H    0.136341
    97  H    0.128476
    98  H    0.138411
    99  H    0.121235
   100  H    0.121067
   101  H    0.088748
   102  H    0.111956
   103  H    0.122277
   104  H    0.112568
   105  H    0.089071
   106  H    0.078004
   107  H    0.115973
   108  H    0.084272
   109  H    0.083410
   110  H    0.098656
   111  H    0.081830
   112  H    0.066800
   113  H    0.112385
   114  H    0.096314
   115  H    0.071927
   116  H    0.079494
   117  H    0.090003
   118  H    0.102857
   119  H    0.107151
   120  H    0.098308
   121  H    0.036027
   122  H    0.038565
   123  H    0.108247
   124  H    0.124470
   125  H    0.088639
   126  H    0.094430
   127  H    0.106742
   128  H    0.084880
   129  H    0.055597
   130  H    0.087360
   131  H    0.085137
   132  H    0.085536
   133  H    0.109291
   134  H    0.100514
   135  H    0.102641
   136  H    0.074455
   137  H    0.112439
 Sum of Mulliken charges =  -0.00000

 Dipole moment (field-independent basis, Debye):
    X=              3.0991    Y=              4.9222    Z=              0.4714  Tot=              5.8356
 Quadrupole moment (field-independent basis, Debye-Ang):
   XX=           -343.8167   YY=           -392.4379   ZZ=           -400.0528
   XY=            -28.5065   XZ=             11.6150   YZ=              0.0546

 Normal termination of Gaussian 16 at Sun Jun 30 04:06:39 2019.
