 Gaussian 09, Revision D.01,
 Gaussian 09:  ES64L-G09RevD.01 24-Apr-2013

 -------------------------------------
 # td=(NStates=1) CAM-B3LYP/6-31G(d,p)
 -------------------------------------

 --
 TD
 --
 Symbolic Z-matrix:
 Charge =  0 Multiplicity = 1

                         Standard orientation:
 ---------------------------------------------------------------------
 Center     Atomic      Atomic             Coordinates (Angstroms)
 Number     Number       Type             X           Y           Z
 ---------------------------------------------------------------------
      1         12           0       -7.098208    0.633423    0.077434
      2          6           0       -4.896647   -1.945060    0.465137
      3          6           0       -4.732779    2.884081    1.081100
      4          6           0       -9.361247    3.104584   -0.563099
      5          6           0       -9.528583   -1.730154   -0.870382
      6          7           0       -5.105668    0.400573    0.699055
      7          6           0       -4.357421   -0.664008    0.871868
      8          6           0       -2.976671   -0.398396    1.296215
      9          6           0       -3.093904    1.077269    1.775275
     10          6           0       -4.304245    1.516145    1.126974
     11          6           0       -3.117453    1.120166    3.300167
     12          6           0       -1.944474   -0.638003    0.192231
     13          6           0       -0.441657   -0.431581    0.709173
     14          6           0        0.578027   -0.707843   -0.500742
     15          8           0        0.239156   -1.162101   -1.624839
     16          8           0        1.796416   -0.496308   -0.106938
     17          7           0       -6.990162    2.672510    0.367528
     18          6           0       -6.020533    3.414345    0.802304
     19          6           0       -6.384886    4.768208    0.795865
     20          6           0       -7.670605    4.837039    0.311800
     21          6           0       -8.141023    3.532922   -0.012060
     22          6           0       -5.513194    5.998678    1.207704
     23          6           0       -8.464352    6.123715    0.184969
     24          6           0       -8.461711    7.263824    0.903755
     25          7           0       -9.095245    0.658634   -0.532422
     26          6           0       -9.928864    1.773542   -0.673316
     27          6           0      -11.170010    1.438865   -1.133475
     28          6           0      -11.202350    0.134428   -1.289572
     29          6           0       -9.879725   -0.407875   -0.962627
     30          6           0      -12.302096    2.501410   -1.462979
     31          6           0      -12.329321   -0.764845   -1.814568
     32          6           0      -12.293296   -1.025145   -3.323199
     33          7           0       -7.257590   -1.361734   -0.209693
     34          6           0       -8.263520   -2.205551   -0.495520
     35          6           0       -7.878511   -3.626827   -0.430079
     36          6           0       -6.526146   -3.602361   -0.094941
     37          6           0       -6.201297   -2.189663    0.114572
     38          6           0       -8.752149   -4.851760   -0.782655
     39          6           0       -5.420016   -4.383699    0.211587
     40          8           0       -5.389853   -5.560811    0.208689
     41          6           0       -4.277152   -3.335573    0.581374
     42          6           0       -3.583098   -3.659685    1.906170
     43          8           0       -3.582795   -3.051108    2.915128
     44          8           0       -2.820045   -4.742359    1.706966
     45          6           0       -2.384439   -5.403188    2.854386
     46          6           0        2.793621   -0.711075   -1.139426
     47          6           0        4.162102   -0.352230   -0.576362
     48          6           0        5.112112    0.358736   -1.159946
     49          6           0        5.119015    1.147793   -2.440710
     50          6           0        6.444867    0.443109   -0.344809
     51          6           0        7.660206   -0.121656   -0.982086
     52          6           0        8.945367   -0.066295   -0.163980
     53          6           0       10.272516   -0.508555   -0.896638
     54          6           0       10.101985   -2.059951   -1.161163
     55          6           0       11.502493   -0.364305   -0.094633
     56          6           0       12.832655   -0.470457   -0.705676
     57          6           0       14.026941   -0.044286    0.096779
     58          6           0       15.437590   -0.288290   -0.510143
     59          6           0       15.639594   -1.806249   -0.744073
     60          6           0       16.457439    0.541459    0.312653
     61          6           0       17.825966    0.646906   -0.213087
     62          6           0       18.765956    1.414218    0.811840
     63          6           0       20.267052    1.341334    0.277784
     64          6           0       20.379400    1.919614   -1.108660
     65          6           0       21.191188    2.036618    1.332341
     66          1           0       -3.890078    3.643811    1.472542
     67          1           0      -10.067292    4.032291   -0.819104
     68          1           0      -10.461763   -2.451716   -1.202662
     69          1           0       -2.652223   -0.943583    2.085609
     70          1           0       -2.245281    1.551700    1.366070
     71          1           0       -2.344405    0.591526    3.623781
     72          1           0       -3.329550    2.017239    3.733177
     73          1           0       -3.910195    0.421276    3.650629
     74          1           0       -1.874544   -1.516534   -0.384350
     75          1           0       -1.997402    0.163567   -0.661092
     76          1           0       -0.225196    0.509364    1.059622
     77          1           0       -0.127421   -1.083568    1.575719
     78          1           0       -5.615048    6.839695    0.564111
     79          1           0       -5.717413    6.224685    2.283526
     80          1           0       -4.456364    5.601278    0.965186
     81          1           0       -9.289428    6.289652   -0.516534
     82          1           0       -9.024791    8.387673    0.558857
     83          1           0       -7.781124    7.094565    1.891823
     84          1           0      -11.995573    3.174606   -2.468630
     85          1           0      -13.315559    2.026070   -1.709477
     86          1           0      -12.467922    3.188148   -0.534603
     87          1           0      -12.435549   -1.711521   -1.110301
     88          1           0      -13.356346   -0.351506   -1.502125
     89          1           0      -13.190441   -1.662549   -3.598994
     90          1           0      -12.454375   -0.137942   -3.771425
     91          1           0      -11.381747   -1.541541   -3.849713
     92          1           0       -9.452136   -4.646398   -1.678784
     93          1           0       -8.225550   -5.703364   -0.904656
     94          1           0       -9.382943   -4.948439   -0.030835
     95          1           0       -3.469712   -3.463818    0.076769
     96          1           0       -1.690668   -4.713036    3.394596
     97          1           0       -3.326329   -5.706870    3.449096
     98          1           0       -1.832732   -6.236856    2.629569
     99          1           0        2.769723   -1.652000   -1.414951
    100          1           0        2.549223   -0.236959   -1.982626
    101          1           0        4.336397   -0.791417    0.451971
    102          1           0        4.019206    1.232735   -2.733322
    103          1           0        5.478964    2.202349   -2.166756
    104          1           0        5.746937    0.639632   -3.096519
    105          1           0        6.534235    1.461469   -0.122863
    106          1           0        6.322611   -0.015015    0.630371
    107          1           0        7.399177   -1.132686   -1.454681
    108          1           0        7.996033    0.406660   -1.956285
    109          1           0        9.212764    0.846015    0.276867
    110          1           0        8.923851   -0.700522    0.770720
    111          1           0       10.168548    0.043132   -1.992866
    112          1           0        9.442393   -2.267737   -2.064224
    113          1           0       10.992686   -2.492201   -1.609243
    114          1           0        9.945551   -2.692901   -0.235630
    115          1           0       11.585533    0.678965    0.491170
    116          1           0       11.542519   -1.260816    0.717777
    117          1           0       13.078037   -1.547589   -0.961575
    118          1           0       12.904885    0.231104   -1.596348
    119          1           0       13.991703    1.112778    0.511015
    120          1           0       14.014484   -0.594222    1.000240
    121          1           0       15.599205    0.159104   -1.529832
    122          1           0       15.867051   -2.323808    0.237644
    123          1           0       14.627164   -2.411882   -1.098215
    124          1           0       16.495049   -1.926703   -1.409906
    125          1           0       16.029790    1.370738    0.486420
    126          1           0       16.561038   -0.085487    1.335534
    127          1           0       18.178688   -0.450245   -0.383583
    128          1           0       17.697661    1.303137   -1.137072
    129          1           0       18.318624    2.420772    0.868322
    130          1           0       18.787654    0.974402    1.733739
    131          1           0       20.589749    0.217308    0.248357
    132          1           0       19.754041    2.972421   -1.281860
    133          1           0       21.416724    2.081963   -1.419747
    134          1           0       19.972208    1.265291   -1.888412
    135          1           0       21.152139    1.550709    2.483776
    136          1           0       22.270553    1.851884    0.882813
    137          1           0       20.814110    3.085595    1.539319
 ---------------------------------------------------------------------

 SCF Done:  E(RCAM-B3LYP) =  -2932.68150610     A.U. after   15 cycles

 Excitation energies and oscillator strengths:

 Excited State   1:      Singlet-A      1.9870 eV  623.98 nm  f=0.2643  <S**2>=0.000
     240 -> 243        0.25300
     241 -> 242        0.65371
 This state for optimization and/or second-order correction.
 Total Energy, E(TD-HF/TD-KS) =  -2932.60848578
 Copying the excited state density for this state as the 1-particle RhoCI density.

 The electronic state is 1-A.
 Alpha  occ. eigenvalues --  -46.84209 -19.27886 -19.25533 -19.21017 -19.20658
 Alpha  occ. eigenvalues --  -19.20173 -14.42039 -14.39148 -14.39034 -14.38943
 Alpha  occ. eigenvalues --  -10.39861 -10.38667 -10.34184 -10.31189 -10.30942
 Alpha  occ. eigenvalues --  -10.30796 -10.30359 -10.29376 -10.29233 -10.29183
 Alpha  occ. eigenvalues --  -10.29139 -10.28892 -10.28854 -10.28810 -10.28526
 Alpha  occ. eigenvalues --  -10.28250 -10.28001 -10.27954 -10.27921 -10.27763
 Alpha  occ. eigenvalues --  -10.27559 -10.27522 -10.27326 -10.27268 -10.27256
 Alpha  occ. eigenvalues --  -10.27215 -10.27058 -10.27046 -10.26988 -10.26936
 Alpha  occ. eigenvalues --  -10.26746 -10.26745 -10.26602 -10.26493 -10.26421
 Alpha  occ. eigenvalues --  -10.26359 -10.26278 -10.26249 -10.26230 -10.25921
 Alpha  occ. eigenvalues --  -10.25870 -10.25689 -10.25585 -10.25438 -10.25416
 Alpha  occ. eigenvalues --  -10.25333 -10.25309 -10.25247 -10.25224 -10.25194
 Alpha  occ. eigenvalues --  -10.25010 -10.24859 -10.24708 -10.24134 -10.23983
 Alpha  occ. eigenvalues --   -3.13173  -1.87887  -1.87426  -1.87335  -1.19990
 Alpha  occ. eigenvalues --   -1.19752  -1.13171  -1.10752  -1.07539  -1.05043
 Alpha  occ. eigenvalues --   -1.03592  -1.03053  -1.01930  -0.92737  -0.91656
 Alpha  occ. eigenvalues --   -0.90980  -0.90609  -0.89671  -0.88511  -0.87864
 Alpha  occ. eigenvalues --   -0.87591  -0.87342  -0.87208  -0.86748  -0.86230
 Alpha  occ. eigenvalues --   -0.85159  -0.84503  -0.83691  -0.82886  -0.82158
 Alpha  occ. eigenvalues --   -0.81911  -0.81204  -0.80260  -0.80018  -0.79112
 Alpha  occ. eigenvalues --   -0.77747  -0.76784  -0.76650  -0.75543  -0.75328
 Alpha  occ. eigenvalues --   -0.74880  -0.74667  -0.74539  -0.73990  -0.72777
 Alpha  occ. eigenvalues --   -0.72238  -0.70824  -0.69516  -0.69130  -0.68658
 Alpha  occ. eigenvalues --   -0.66693  -0.66482  -0.65611  -0.65182  -0.64285
 Alpha  occ. eigenvalues --   -0.63932  -0.63117  -0.62487  -0.61801  -0.61546
 Alpha  occ. eigenvalues --   -0.61390  -0.60882  -0.59847  -0.59669  -0.58755
 Alpha  occ. eigenvalues --   -0.57834  -0.57693  -0.57554  -0.57510  -0.56887
 Alpha  occ. eigenvalues --   -0.56131  -0.56039  -0.55373  -0.55039  -0.54944
 Alpha  occ. eigenvalues --   -0.54454  -0.54246  -0.54195  -0.54043  -0.53320
 Alpha  occ. eigenvalues --   -0.52801  -0.52697  -0.52094  -0.51750  -0.51664
 Alpha  occ. eigenvalues --   -0.51402  -0.51144  -0.50716  -0.50449  -0.50377
 Alpha  occ. eigenvalues --   -0.50280  -0.50159  -0.49945  -0.49904  -0.49559
 Alpha  occ. eigenvalues --   -0.49065  -0.48850  -0.48620  -0.48482  -0.48445
 Alpha  occ. eigenvalues --   -0.48203  -0.47996  -0.47788  -0.47355  -0.47007
 Alpha  occ. eigenvalues --   -0.46808  -0.46783  -0.46510  -0.46208  -0.45675
 Alpha  occ. eigenvalues --   -0.45557  -0.45369  -0.45171  -0.45118  -0.44944
 Alpha  occ. eigenvalues --   -0.44639  -0.44463  -0.44384  -0.44057  -0.43934
 Alpha  occ. eigenvalues --   -0.43853  -0.43798  -0.43663  -0.43484  -0.43344
 Alpha  occ. eigenvalues --   -0.43218  -0.43200  -0.42815  -0.42757  -0.42542
 Alpha  occ. eigenvalues --   -0.42268  -0.42066  -0.41848  -0.41619  -0.41478
 Alpha  occ. eigenvalues --   -0.41290  -0.40877  -0.40629  -0.40387  -0.39996
 Alpha  occ. eigenvalues --   -0.39986  -0.39794  -0.39196  -0.38971  -0.38794
 Alpha  occ. eigenvalues --   -0.38619  -0.38371  -0.38293  -0.37977  -0.37950
 Alpha  occ. eigenvalues --   -0.37228  -0.37177  -0.37150  -0.37092  -0.36721
 Alpha  occ. eigenvalues --   -0.36551  -0.36165  -0.35929  -0.35924  -0.35731
 Alpha  occ. eigenvalues --   -0.35596  -0.35032  -0.34911  -0.33857  -0.33812
 Alpha  occ. eigenvalues --   -0.33416  -0.33165  -0.31899  -0.30916  -0.30417
 Alpha  occ. eigenvalues --   -0.30099  -0.29707  -0.28747  -0.27126  -0.23203
 Alpha  occ. eigenvalues --   -0.20440
 Alpha virt. eigenvalues --   -0.06014  -0.03046   0.01649   0.04893   0.06190
 Alpha virt. eigenvalues --    0.06428   0.06750   0.07046   0.07167   0.07412
 Alpha virt. eigenvalues --    0.08826   0.11010   0.11128   0.11190   0.11949

 Mulliken charges:
               1
     1  Mg   0.815950
     2  C    0.012014
     3  C   -0.222870
     4  C   -0.175992
     5  C   -0.191832
     6  N   -0.621816
     7  C    0.354864
     8  C   -0.154691
     9  C   -0.157277
    10  C    0.316785
    11  C   -0.303213
    12  C   -0.186880
    13  C   -0.279990
    14  C    0.592448
    15  O   -0.510579
    16  O   -0.441086
    17  N   -0.717548
    18  C    0.381742
    19  C   -0.029356
    20  C    0.020426
    21  C    0.261267
    22  C   -0.352205
    23  C   -0.075767
    24  C   -0.253359
    25  N   -0.676889
    26  C    0.259145
    27  C    0.068152
    28  C    0.005625
    29  C    0.295380
    30  C   -0.353197
    31  C   -0.251909
    32  C   -0.297468
    33  N   -0.705420
    34  C    0.285302
    35  C    0.007399
    36  C    0.026846
    37  C    0.266908
    38  C   -0.348680
    39  C    0.349091
    40  O   -0.434178
    41  C   -0.302714
    42  C    0.579912
    43  O   -0.453305
    44  O   -0.440354
    45  C   -0.073382
    46  C    0.019482
    47  C   -0.160038
    48  C    0.099729
    49  C   -0.346650
    50  C   -0.215155
    51  C   -0.173706
    52  C   -0.159208
    53  C   -0.051199
    54  C   -0.319589
    55  C   -0.151660
    56  C   -0.154342
    57  C   -0.174122
    58  C   -0.056207
    59  C   -0.311164
    60  C   -0.137947
    61  C   -0.184963
    62  C   -0.163089
    63  C   -0.049254
    64  C   -0.296225
    65  C   -0.288797
    66  H    0.078705
    67  H    0.098672
    68  H    0.094123
    69  H    0.129627
    70  H    0.109664
    71  H    0.120846
    72  H    0.121300
    73  H    0.120081
    74  H    0.146801
    75  H    0.105210
    76  H    0.136579
    77  H    0.126294
    78  H    0.137830
    79  H    0.124780
    80  H    0.097637
    81  H    0.087999
    82  H    0.103631
    83  H    0.081817
    84  H    0.098383
    85  H    0.110989
    86  H    0.116370
    87  H    0.088364
    88  H    0.097449
    89  H    0.095417
    90  H    0.128294
    91  H    0.104122
    92  H    0.111346
    93  H    0.148267
    94  H    0.143941
    95  H    0.154944
    96  H    0.113952
    97  H    0.115932
    98  H    0.129912
    99  H    0.141824
   100  H    0.125883
   101  H    0.094358
   102  H    0.109169
   103  H    0.116903
   104  H    0.140896
   105  H    0.104261
   106  H    0.099928
   107  H    0.098497
   108  H    0.074968
   109  H    0.096489
   110  H    0.079992
   111  H    0.063445
   112  H    0.093021
   113  H    0.100158
   114  H    0.104113
   115  H    0.067506
   116  H    0.071017
   117  H    0.085049
   118  H    0.085473
   119  H    0.053311
   120  H    0.095867
   121  H    0.072371
   122  H    0.094709
   123  H    0.086975
   124  H    0.108870
   125  H    0.096498
   126  H    0.053947
   127  H    0.083418
   128  H    0.087271
   129  H    0.089812
   130  H    0.101929
   131  H    0.079403
   132  H    0.071713
   133  H    0.098106
   134  H    0.114175
   135  H    0.070670
   136  H    0.090019
   137  H    0.105514
 Sum of Mulliken charges =   0.00000

 Dipole moment (field-independent basis, Debye):
    X=              3.0251    Y=              2.8143    Z=              0.4902  Tot=              4.1607
 Quadrupole moment (field-independent basis, Debye-Ang):
   XX=           -343.7280   YY=           -394.1587   ZZ=           -396.4968
   XY=            -13.9142   XZ=              6.8480   YZ=             -5.4849

 Normal termination of Gaussian 09 at Sat Jul  6 03:44:04 2019.
