 Gaussian 16, Revision A.03,
 Gaussian 16:  ES64L-G16RevA.03 25-Dec-2016

 ----------------------------------------------------------------------
 # td=(NStates=1) iop(3/107=0140000000,3/108=0140000000) CAM-B3LYP/6-31
 G(d,p)
 ----------------------------------------------------------------------

 --
 TD
 --
 Symbolic Z-matrix:
 Charge =  0 Multiplicity = 1

                         Standard orientation:
 ---------------------------------------------------------------------
 Center     Atomic      Atomic             Coordinates (Angstroms)
 Number     Number       Type             X           Y           Z
 ---------------------------------------------------------------------
      1         12           0       -7.144435    0.608067    0.106458
      2          6           0       -4.767358   -1.988829    0.338368
      3          6           0       -4.753356    2.727427    1.254784
      4          6           0       -9.378982    3.089820   -0.310624
      5          6           0       -9.574159   -1.728827   -0.858893
      6          7           0       -5.109651    0.466581    0.775737
      7          6           0       -4.283378   -0.771461    0.799705
      8          6           0       -2.955406   -0.533556    1.219039
      9          6           0       -3.036550    0.877911    1.774948
     10          6           0       -4.302370    1.440467    1.173238
     11          6           0       -3.064579    0.962610    3.285834
     12          6           0       -2.012607   -0.657086    0.060453
     13          6           0       -0.513236   -0.515120    0.555813
     14          6           0        0.578276   -0.637861   -0.623637
     15          8           0        0.230531   -0.998893   -1.727140
     16          8           0        1.724960   -0.227445   -0.205417
     17          7           0       -7.023216    2.649786    0.263333
     18          6           0       -5.933978    3.368134    0.793374
     19          6           0       -6.252354    4.732666    0.790068
     20          6           0       -7.636434    4.810780    0.371150
     21          6           0       -8.002264    3.469098    0.112453
     22          6           0       -5.442319    5.858418    1.252553
     23          6           0       -8.412758    5.970335    0.188601
     24          6           0       -8.348218    7.165969    0.963286
     25          7           0       -9.095283    0.682881   -0.459643
     26          6           0       -9.855062    1.840901   -0.614471
     27          6           0      -11.137589    1.587739   -1.164034
     28          6           0      -11.194878    0.227650   -1.371528
     29          6           0       -9.917354   -0.357432   -0.983511
     30          6           0      -12.181407    2.610143   -1.392294
     31          6           0      -12.403528   -0.545999   -1.863851
     32          6           0      -12.129894   -0.976529   -3.384242
     33          7           0       -7.206303   -1.376787   -0.120879
     34          6           0       -8.341044   -2.263961   -0.471051
     35          6           0       -7.877568   -3.580542   -0.551787
     36          6           0       -6.492938   -3.610448   -0.169992
     37          6           0       -6.153091   -2.214417    0.092814
     38          6           0       -8.700209   -4.803548   -0.582455
     39          6           0       -5.354632   -4.350540    0.019272
     40          8           0       -5.088031   -5.614822    0.086329
     41          6           0       -4.207040   -3.292223    0.549631
     42          6           0       -3.599886   -3.686664    1.846574
     43          8           0       -3.854620   -3.236671    2.956600
     44          8           0       -2.747484   -4.757636    1.679780
     45          6           0       -2.280876   -5.382893    2.858037
     46          6           0        2.711423   -0.409340   -1.299121
     47          6           0        4.042954   -0.292446   -0.674650
     48          6           0        5.122680    0.501205   -0.908043
     49          6           0        4.972354    1.367848   -2.145441
     50          6           0        6.383885    0.530539   -0.195274
     51          6           0        7.543481   -0.084592   -0.979610
     52          6           0        8.886318   -0.019909   -0.158164
     53          6           0       10.110530   -0.570820   -0.896455
     54          6           0        9.986024   -2.101945   -1.218612
     55          6           0       11.355916   -0.361582   -0.113061
     56          6           0       12.756744   -0.374153   -0.759049
     57          6           0       13.937540   -0.178848    0.142533
     58          6           0       15.410552   -0.131214   -0.485277
     59          6           0       15.531220   -1.605987   -0.913834
     60          6           0       16.413282    0.489597    0.390848
     61          6           0       17.895357    0.461002   -0.156543
     62          6           0       18.906223    1.102894    0.844207
     63          6           0       20.237580    1.261197    0.244502
     64          6           0       20.256970    1.991016   -1.085650
     65          6           0       21.245880    1.933811    1.331886
     66          1           0       -4.020720    3.434731    1.918963
     67          1           0      -10.286719    3.815311   -0.294736
     68          1           0      -10.159005   -2.587418   -1.220558
     69          1           0       -2.559232   -1.397554    1.887707
     70          1           0       -2.231669    1.399606    1.321202
     71          1           0       -2.156378    0.674792    3.724628
     72          1           0       -3.246856    2.094629    3.611787
     73          1           0       -3.982992    0.442231    3.619731
     74          1           0       -2.064343   -1.763737   -0.462003
     75          1           0       -2.056196    0.035390   -0.603618
     76          1           0       -0.253728    0.346198    0.910505
     77          1           0       -0.151056   -1.380362    1.170316
     78          1           0       -5.327088    6.765291    0.425056
     79          1           0       -5.587578    6.219536    2.191594
     80          1           0       -4.181670    5.679502    0.989943
     81          1           0       -9.127106    5.809433   -0.622432
     82          1           0       -9.088569    7.957522    0.642791
     83          1           0       -7.544017    7.161669    1.611270
     84          1           0      -12.088822    3.350301   -2.163218
     85          1           0      -13.233984    1.973153   -1.470187
     86          1           0      -12.269155    3.208709   -0.366759
     87          1           0      -12.633833   -1.374838   -1.163974
     88          1           0      -13.267065    0.218887   -1.912078
     89          1           0      -13.010831   -1.456832   -3.839497
     90          1           0      -11.593831    0.001302   -3.990187
     91          1           0      -11.219253   -1.782632   -3.316004
     92          1           0       -9.172875   -5.444152   -1.691542
     93          1           0       -8.222655   -5.676124   -0.436460
     94          1           0       -9.665313   -4.758483    0.083360
     95          1           0       -3.368302   -3.707949   -0.218173
     96          1           0       -1.730263   -4.655913    3.332719
     97          1           0       -3.163903   -5.465447    3.703557
     98          1           0       -1.652311   -6.251623    2.478231
     99          1           0        2.529703   -1.405600   -1.703066
    100          1           0        2.372157    0.267077   -2.108291
    101          1           0        4.261664   -0.634573    0.439364
    102          1           0        3.906359    1.547123   -2.525555
    103          1           0        5.607442    2.359985   -2.020599
    104          1           0        5.376950    0.921129   -2.950165
    105          1           0        6.632740    1.531856    0.213643
    106          1           0        6.192093    0.002144    0.708026
    107          1           0        7.220487   -1.132268   -1.131412
    108          1           0        7.556605    0.352155   -1.920394
    109          1           0        8.977529    0.887160    0.205107
    110          1           0        8.840092   -0.617810    0.945340
    111          1           0       10.110328    0.020528   -1.941365
    112          1           0        9.364599   -2.257460   -2.057276
    113          1           0       11.044226   -2.586641   -1.396073
    114          1           0        9.668982   -2.507434   -0.367022
    115          1           0       11.189131    0.658142    0.548259
    116          1           0       11.530236   -1.041442    0.689207
    117          1           0       12.869804   -1.524729   -1.274345
    118          1           0       12.679893    0.257807   -1.626335
    119          1           0       13.679279    0.765859    0.816502
    120          1           0       14.116403   -0.945389    0.966341
    121          1           0       15.286349    0.590021   -1.446146
    122          1           0       15.776393   -2.278931    0.003011
    123          1           0       14.777325   -2.046863   -1.482495
    124          1           0       16.530135   -1.695112   -1.542602
    125          1           0       16.189247    1.485313    0.819290
    126          1           0       16.393423   -0.200881    1.266784
    127          1           0       18.160481   -0.651738   -0.314987
    128          1           0       17.744531    0.998294   -1.230657
    129          1           0       18.670423    2.332640    1.112572
    130          1           0       18.801263    0.562392    1.742061
    131          1           0       20.502216    0.232257   -0.061906
    132          1           0       20.016049    3.164251   -0.984262
    133          1           0       21.389978    2.029943   -1.494824
    134          1           0       19.456209    1.843160   -1.824232
    135          1           0       21.543291    1.120851    2.248677
    136          1           0       22.346992    2.139014    0.879782
    137          1           0       20.930515    2.899917    1.602659
 ---------------------------------------------------------------------

 SCF Done:  E(RCAM-B3LYP) =  -2933.39349027     A.U. after   16 cycles

 Excitation energies and oscillator strengths:

 Excited State   1:      Singlet-A      1.8006 eV  688.57 nm  f=0.2797  <S**2>=0.000
     240 -> 243       -0.16049
     241 -> 242        0.68349
 This state for optimization and/or second-order correction.
 Total Energy, E(TD-HF/TD-DFT) =  -2933.32731962
 Copying the excited state density for this state as the 1-particle RhoCI density.

 The electronic state is 1-A.
 Alpha  occ. eigenvalues --  -46.79746 -19.23712 -19.20694 -19.16089 -19.16076
 Alpha  occ. eigenvalues --  -19.14548 -14.37986 -14.35719 -14.35598 -14.35233
 Alpha  occ. eigenvalues --  -10.33973 -10.33852 -10.29737 -10.28726 -10.26330
 Alpha  occ. eigenvalues --  -10.26308 -10.26129 -10.26013 -10.25887 -10.25592
 Alpha  occ. eigenvalues --  -10.25484 -10.25238 -10.24791 -10.24617 -10.24280
 Alpha  occ. eigenvalues --  -10.24184 -10.24152 -10.23920 -10.23798 -10.23798
 Alpha  occ. eigenvalues --  -10.23633 -10.23421 -10.23303 -10.23117 -10.23091
 Alpha  occ. eigenvalues --  -10.23040 -10.23021 -10.23012 -10.22991 -10.22980
 Alpha  occ. eigenvalues --  -10.22816 -10.22682 -10.22662 -10.22637 -10.22561
 Alpha  occ. eigenvalues --  -10.22482 -10.22451 -10.22396 -10.22344 -10.22180
 Alpha  occ. eigenvalues --  -10.22179 -10.22168 -10.22136 -10.22067 -10.22049
 Alpha  occ. eigenvalues --  -10.21954 -10.21878 -10.21751 -10.21735 -10.21587
 Alpha  occ. eigenvalues --  -10.21536 -10.21518 -10.21514 -10.21195 -10.19826
 Alpha  occ. eigenvalues --   -3.08386  -1.83327  -1.82859  -1.82795  -1.15474
 Alpha  occ. eigenvalues --   -1.11576  -1.04777  -1.03104  -1.00738  -1.00217
 Alpha  occ. eigenvalues --   -0.98760  -0.97272  -0.96373  -0.88112  -0.87177
 Alpha  occ. eigenvalues --   -0.86043  -0.85535  -0.84756  -0.84110  -0.83615
 Alpha  occ. eigenvalues --   -0.83490  -0.83422  -0.82707  -0.82372  -0.81667
 Alpha  occ. eigenvalues --   -0.80340  -0.79398  -0.78850  -0.78291  -0.76874
 Alpha  occ. eigenvalues --   -0.76709  -0.76128  -0.75908  -0.75058  -0.73721
 Alpha  occ. eigenvalues --   -0.73047  -0.72372  -0.71823  -0.71031  -0.70576
 Alpha  occ. eigenvalues --   -0.70315  -0.70260  -0.69650  -0.69182  -0.68789
 Alpha  occ. eigenvalues --   -0.67259  -0.66659  -0.65251  -0.64916  -0.64426
 Alpha  occ. eigenvalues --   -0.63530  -0.63283  -0.61386  -0.60831  -0.60642
 Alpha  occ. eigenvalues --   -0.60172  -0.59560  -0.58924  -0.57994  -0.57235
 Alpha  occ. eigenvalues --   -0.57162  -0.56486  -0.56419  -0.56047  -0.55554
 Alpha  occ. eigenvalues --   -0.54785  -0.54460  -0.53846  -0.53715  -0.52895
 Alpha  occ. eigenvalues --   -0.52106  -0.51920  -0.51330  -0.51171  -0.50754
 Alpha  occ. eigenvalues --   -0.50270  -0.49989  -0.49754  -0.49212  -0.49111
 Alpha  occ. eigenvalues --   -0.49012  -0.48981  -0.48595  -0.48354  -0.48066
 Alpha  occ. eigenvalues --   -0.47784  -0.47733  -0.47461  -0.47205  -0.46932
 Alpha  occ. eigenvalues --   -0.46701  -0.46579  -0.46469  -0.45990  -0.45921
 Alpha  occ. eigenvalues --   -0.45583  -0.45114  -0.44934  -0.44709  -0.44505
 Alpha  occ. eigenvalues --   -0.44463  -0.44166  -0.44087  -0.43903  -0.43658
 Alpha  occ. eigenvalues --   -0.43515  -0.43076  -0.42715  -0.42494  -0.42386
 Alpha  occ. eigenvalues --   -0.42069  -0.41894  -0.41722  -0.41548  -0.41323
 Alpha  occ. eigenvalues --   -0.41074  -0.41057  -0.40807  -0.40622  -0.40548
 Alpha  occ. eigenvalues --   -0.40327  -0.40229  -0.40134  -0.40088  -0.39991
 Alpha  occ. eigenvalues --   -0.39806  -0.39233  -0.38980  -0.38959  -0.38727
 Alpha  occ. eigenvalues --   -0.38419  -0.38376  -0.38207  -0.37891  -0.37823
 Alpha  occ. eigenvalues --   -0.37713  -0.37497  -0.37274  -0.37000  -0.36919
 Alpha  occ. eigenvalues --   -0.36807  -0.36461  -0.36394  -0.36036  -0.35947
 Alpha  occ. eigenvalues --   -0.35670  -0.35494  -0.35072  -0.34876  -0.34833
 Alpha  occ. eigenvalues --   -0.34640  -0.34521  -0.34128  -0.34002  -0.33809
 Alpha  occ. eigenvalues --   -0.33724  -0.33180  -0.33133  -0.32601  -0.32261
 Alpha  occ. eigenvalues --   -0.31929  -0.31622  -0.31109  -0.30777  -0.30682
 Alpha  occ. eigenvalues --   -0.30047  -0.29537  -0.29129  -0.28376  -0.26819
 Alpha  occ. eigenvalues --   -0.26715  -0.26005  -0.25582  -0.24639  -0.22106
 Alpha  occ. eigenvalues --   -0.20340
 Alpha virt. eigenvalues --   -0.08786  -0.04458  -0.01308   0.01352   0.03216
 Alpha virt. eigenvalues --    0.03321   0.04235   0.04632   0.05491   0.05833
 Alpha virt. eigenvalues --    0.06277   0.07925   0.08671   0.09140   0.09315

 Mulliken charges:
               1
     1  Mg   0.809795
     2  C    0.073922
     3  C   -0.223550
     4  C   -0.189432
     5  C   -0.163485
     6  N   -0.602169
     7  C    0.311951
     8  C   -0.158019
     9  C   -0.136497
    10  C    0.356378
    11  C   -0.292646
    12  C   -0.155269
    13  C   -0.268341
    14  C    0.567891
    15  O   -0.482770
    16  O   -0.424208
    17  N   -0.710584
    18  C    0.299842
    19  C    0.059248
    20  C    0.020987
    21  C    0.348085
    22  C   -0.402786
    23  C   -0.108906
    24  C   -0.229919
    25  N   -0.697149
    26  C    0.331378
    27  C    0.076187
    28  C    0.023320
    29  C    0.278710
    30  C   -0.385689
    31  C   -0.238427
    32  C   -0.292850
    33  N   -0.719616
    34  C    0.247749
    35  C    0.048092
    36  C    0.117046
    37  C    0.284886
    38  C   -0.369049
    39  C    0.272837
    40  O   -0.507088
    41  C   -0.321208
    42  C    0.624231
    43  O   -0.491878
    44  O   -0.442989
    45  C   -0.077055
    46  C   -0.020414
    47  C   -0.122943
    48  C    0.119370
    49  C   -0.369490
    50  C   -0.236397
    51  C   -0.181866
    52  C   -0.154036
    53  C   -0.046018
    54  C   -0.306593
    55  C   -0.164718
    56  C   -0.158400
    57  C   -0.165048
    58  C   -0.044760
    59  C   -0.307397
    60  C   -0.165894
    61  C   -0.184350
    62  C   -0.126031
    63  C   -0.035406
    64  C   -0.300803
    65  C   -0.303512
    66  H    0.073606
    67  H    0.082403
    68  H    0.100329
    69  H    0.119938
    70  H    0.101489
    71  H    0.124634
    72  H    0.087152
    73  H    0.134253
    74  H    0.111116
    75  H    0.116019
    76  H    0.128005
    77  H    0.121861
    78  H    0.109934
    79  H    0.145839
    80  H    0.071079
    81  H    0.088960
    82  H    0.110586
    83  H    0.097947
    84  H    0.140872
    85  H    0.094911
    86  H    0.109661
    87  H    0.116135
    88  H    0.091796
    89  H    0.116029
    90  H    0.093212
    91  H    0.093481
    92  H    0.051990
    93  H    0.164672
    94  H    0.120208
    95  H    0.141659
    96  H    0.126461
    97  H    0.113843
    98  H    0.125428
    99  H    0.152220
   100  H    0.137311
   101  H    0.072423
   102  H    0.100079
   103  H    0.088937
   104  H    0.138128
   105  H    0.102499
   106  H    0.101374
   107  H    0.107783
   108  H    0.109509
   109  H    0.108952
   110  H    0.051202
   111  H    0.061002
   112  H    0.108750
   113  H    0.086783
   114  H    0.119310
   115  H    0.049758
   116  H    0.101352
   117  H    0.049137
   118  H    0.103321
   119  H    0.062973
   120  H    0.084037
   121  H    0.058147
   122  H    0.090420
   123  H    0.126961
   124  H    0.079066
   125  H    0.103940
   126  H    0.075400
   127  H    0.093487
   128  H    0.078258
   129  H    0.040484
   130  H    0.105829
   131  H    0.088366
   132  H    0.065709
   133  H    0.090487
   134  H    0.114676
   135  H    0.079115
   136  H    0.078271
   137  H    0.122783
 Sum of Mulliken charges =  -0.00000

 Dipole moment (field-independent basis, Debye):
    X=              1.5809    Y=              5.4181    Z=              0.1418  Tot=              5.6458
 Quadrupole moment (field-independent basis, Debye-Ang):
   XX=           -333.4205   YY=           -405.3604   ZZ=           -400.3122
   XY=            -29.9851   XZ=             14.3745   YZ=             -1.1788

 Normal termination of Gaussian 16 at Thu Sep 12 07:37:55 2019.
