 Gaussian 09, Revision D.01,
 Gaussian 09:  ES64L-G09RevD.01 24-Apr-2013

 -------------------------------------
 # td=(NStates=1) CAM-B3LYP/6-31G(d,p)
 -------------------------------------

 --
 TD
 --
 Symbolic Z-matrix:
 Charge =  0 Multiplicity = 1

                         Standard orientation:
 ---------------------------------------------------------------------
 Center     Atomic      Atomic             Coordinates (Angstroms)
 Number     Number       Type             X           Y           Z
 ---------------------------------------------------------------------
      1         12           0       -7.127289    0.589228   -0.010893
      2          6           0       -4.933254   -1.989459    0.380587
      3          6           0       -4.867925    2.768109    1.153214
      4          6           0       -9.482900    2.988102   -0.421944
      5          6           0       -9.628823   -1.766675   -0.818482
      6          7           0       -5.117130    0.461130    0.661652
      7          6           0       -4.329928   -0.669774    0.621667
      8          6           0       -2.936630   -0.315085    1.235027
      9          6           0       -3.036017    1.137584    1.678393
     10          6           0       -4.440932    1.499646    1.106366
     11          6           0       -2.901815    1.214805    3.189287
     12          6           0       -1.923279   -0.537286    0.046731
     13          6           0       -0.465860   -0.421295    0.607205
     14          6           0        0.522472   -0.633972   -0.526744
     15          8           0        0.201027   -1.019073   -1.618304
     16          8           0        1.756119   -0.349150   -0.117706
     17          7           0       -7.175930    2.601027    0.212145
     18          6           0       -6.166127    3.405622    0.676922
     19          6           0       -6.499885    4.750499    0.798829
     20          6           0       -7.889955    4.829169    0.418906
     21          6           0       -8.268836    3.468539    0.146828
     22          6           0       -5.508588    5.869443    1.279998
     23          6           0       -8.646276    5.981238    0.149705
     24          6           0       -8.636188    7.250775    0.636930
     25          7           0       -9.154919    0.594566   -0.579409
     26          6           0       -9.880147    1.669142   -0.757145
     27          6           0      -11.231453    1.466279   -1.053494
     28          6           0      -11.310537    0.062446   -1.197511
     29          6           0       -9.935225   -0.381645   -0.902498
     30          6           0      -12.390290    2.405142   -1.345490
     31          6           0      -12.384525   -0.817204   -1.649903
     32          6           0      -12.181611   -1.090716   -3.239250
     33          7           0       -7.262478   -1.418414   -0.175212
     34          6           0       -8.269634   -2.295173   -0.480421
     35          6           0       -7.853512   -3.629954   -0.556049
     36          6           0       -6.616213   -3.547465   -0.083750
     37          6           0       -6.240756   -2.128280    0.126547
     38          6           0       -8.585590   -4.915260   -0.813827
     39          6           0       -5.380139   -4.405336    0.170850
     40          8           0       -5.195797   -5.588522    0.012264
     41          6           0       -4.127190   -3.330446    0.461720
     42          6           0       -3.484935   -3.690947    1.841465
     43          8           0       -3.632229   -3.020198    2.869948
     44          8           0       -2.750833   -4.808423    1.700477
     45          6           0       -2.221602   -5.221964    2.975515
     46          6           0        2.849183   -0.565074   -1.159008
     47          6           0        4.135755   -0.400161   -0.458514
     48          6           0        5.119049    0.513463   -0.873506
     49          6           0        5.021133    1.347497   -2.156015
     50          6           0        6.422315    0.578851   -0.184678
     51          6           0        7.566070   -0.125108   -0.869308
     52          6           0        8.945312   -0.137442    0.019927
     53          6           0       10.211115   -0.469884   -0.779996
     54          6           0       10.245453   -2.001962   -1.235150
     55          6           0       11.487360   -0.298028    0.130855
     56          6           0       12.838619   -0.445354   -0.666279
     57          6           0       13.999096   -0.149944    0.279393
     58          6           0       15.420276   -0.204407   -0.473361
     59          6           0       15.788897   -1.707306   -0.812230
     60          6           0       16.514103    0.260750    0.491526
     61          6           0       17.870799    0.416070   -0.154260
     62          6           0       18.885259    1.162013    0.729104
     63          6           0       20.357725    1.323306    0.034051
     64          6           0       20.275506    2.207403   -1.273874
     65          6           0       21.436935    1.960627    1.004829
     66          1           0       -4.101764    3.538411    1.482907
     67          1           0      -10.466893    3.833058   -0.555987
     68          1           0      -10.386911   -2.338366   -0.957677
     69          1           0       -2.819700   -0.925831    2.054126
     70          1           0       -2.321999    1.720045    1.217183
     71          1           0       -1.744315    1.036580    3.508670
     72          1           0       -3.205748    2.195018    3.699417
     73          1           0       -3.462363    0.308161    3.608752
     74          1           0       -2.090656   -1.425989   -0.498455
     75          1           0       -2.047575    0.328339   -0.741927
     76          1           0       -0.346225    0.481810    1.071173
     77          1           0       -0.270830   -1.215467    1.248532
     78          1           0       -5.750865    6.725025    0.530231
     79          1           0       -5.398397    6.137043    2.430619
     80          1           0       -4.427134    5.690253    1.131769
     81          1           0       -9.455142    5.696239   -0.630754
     82          1           0       -9.197567    8.123413    0.238397
     83          1           0       -8.297700    7.479568    1.636903
     84          1           0      -12.415915    2.978676   -2.288978
     85          1           0      -13.456118    1.738221   -1.220416
     86          1           0      -12.585817    3.286404   -0.479968
     87          1           0      -12.333305   -1.673604   -1.040017
     88          1           0      -13.384940   -0.313228   -1.541402
     89          1           0      -12.943172   -1.914381   -3.673040
     90          1           0      -12.379415   -0.183005   -3.834046
     91          1           0      -11.059246   -1.558045   -3.444272
     92          1           0       -8.977195   -4.920920   -1.846529
     93          1           0       -7.872560   -5.785244   -0.664267
     94          1           0       -9.379719   -5.252938   -0.188512
     95          1           0       -3.407511   -3.295282   -0.228088
     96          1           0       -1.505782   -4.335005    3.359709
     97          1           0       -2.978614   -5.418057    3.671694
     98          1           0       -1.556672   -6.270169    2.782850
     99          1           0        2.516213   -1.518898   -1.733163
    100          1           0        2.476954    0.318279   -1.923739
    101          1           0        4.316981   -0.916819    0.522289
    102          1           0        4.069827    1.557315   -2.452372
    103          1           0        5.388667    2.370919   -1.746089
    104          1           0        5.670304    0.759382   -2.812469
    105          1           0        6.863713    1.672108    0.031921
    106          1           0        6.110435    0.199922    0.810291
    107          1           0        7.378524   -1.281838   -1.071148
    108          1           0        7.858341    0.263653   -1.870573
    109          1           0        9.053175    0.808698    0.175491
    110          1           0        8.681636   -0.778458    0.871757
    111          1           0       10.450382    0.025508   -1.579115
    112          1           0        9.334072   -2.288699   -2.015325
    113          1           0       11.182292   -2.213521   -1.841279
    114          1           0       10.293464   -2.703650   -0.360925
    115          1           0       11.755508    0.814605    0.438569
    116          1           0       11.485804   -1.136374    0.955262
    117          1           0       12.916757   -1.367084   -1.160035
    118          1           0       13.122913    0.304781   -1.446388
    119          1           0       13.851876    0.929567    0.491958
    120          1           0       14.022559   -0.719804    1.114446
    121          1           0       15.321623    0.470673   -1.401991
    122          1           0       15.682216   -2.237711    0.134233
    123          1           0       15.180208   -2.051123   -1.608401
    124          1           0       16.749053   -1.757590   -1.240878
    125          1           0       16.272470    1.262033    1.161542
    126          1           0       16.743049   -0.385903    1.374183
    127          1           0       18.412230   -0.414415   -0.640211
    128          1           0       17.853929    0.966303   -1.149515
    129          1           0       18.689074    2.079629    1.021830
    130          1           0       19.146790    0.562504    1.650343
    131          1           0       20.752534    0.403146   -0.179226
    132          1           0       20.271898    3.309629   -0.941481
    133          1           0       21.389807    2.303415   -1.422765
    134          1           0       19.587764    1.707496   -2.006449
    135          1           0       21.427255    1.521650    2.019249
    136          1           0       22.548859    1.807446    0.673227
    137          1           0       21.137846    2.963059    1.143258
 ---------------------------------------------------------------------

 SCF Done:  E(RCAM-B3LYP) =  -2932.63549280     A.U. after   16 cycles

 Excitation energies and oscillator strengths:

 Excited State   1:      Singlet-A      1.9962 eV  621.10 nm  f=0.3382  <S**2>=0.000
     240 -> 243        0.23622
     241 -> 242        0.65336
 This state for optimization and/or second-order correction.
 Total Energy, E(TD-HF/TD-KS) =  -2932.56213343
 Copying the excited state density for this state as the 1-particle RhoCI density.

 The electronic state is 1-A.
 Alpha  occ. eigenvalues --  -46.84924 -19.27924 -19.25499 -19.21883 -19.21649
 Alpha  occ. eigenvalues --  -19.20225 -14.41443 -14.39478 -14.39207 -14.38872
 Alpha  occ. eigenvalues --  -10.40220 -10.38052 -10.36584 -10.33856 -10.33592
 Alpha  occ. eigenvalues --  -10.31743 -10.30035 -10.29246 -10.29131 -10.29114
 Alpha  occ. eigenvalues --  -10.29009 -10.28833 -10.28690 -10.28603 -10.28566
 Alpha  occ. eigenvalues --  -10.28212 -10.27970 -10.27968 -10.27717 -10.27485
 Alpha  occ. eigenvalues --  -10.27457 -10.27346 -10.27297 -10.27233 -10.27214
 Alpha  occ. eigenvalues --  -10.27201 -10.27138 -10.27122 -10.26894 -10.26850
 Alpha  occ. eigenvalues --  -10.26730 -10.26713 -10.26616 -10.26443 -10.26404
 Alpha  occ. eigenvalues --  -10.26382 -10.26351 -10.26275 -10.26221 -10.26068
 Alpha  occ. eigenvalues --  -10.25926 -10.25925 -10.25848 -10.25700 -10.25645
 Alpha  occ. eigenvalues --  -10.25566 -10.25528 -10.25521 -10.25366 -10.24967
 Alpha  occ. eigenvalues --  -10.24879 -10.24618 -10.24322 -10.24134 -10.23971
 Alpha  occ. eigenvalues --   -3.13912  -1.88623  -1.88157  -1.88084  -1.18945
 Alpha  occ. eigenvalues --   -1.17364  -1.12291  -1.09205  -1.08754  -1.06870
 Alpha  occ. eigenvalues --   -1.06146  -1.04094  -1.02175  -0.91444  -0.91341
 Alpha  occ. eigenvalues --   -0.90190  -0.89823  -0.89129  -0.88931  -0.88517
 Alpha  occ. eigenvalues --   -0.88061  -0.87547  -0.87264  -0.86390  -0.85480
 Alpha  occ. eigenvalues --   -0.84645  -0.83614  -0.82972  -0.82503  -0.81133
 Alpha  occ. eigenvalues --   -0.81031  -0.80636  -0.79985  -0.78948  -0.78121
 Alpha  occ. eigenvalues --   -0.76931  -0.76524  -0.76161  -0.75226  -0.74866
 Alpha  occ. eigenvalues --   -0.74812  -0.74564  -0.73477  -0.72845  -0.72464
 Alpha  occ. eigenvalues --   -0.70707  -0.70072  -0.69562  -0.68726  -0.68217
 Alpha  occ. eigenvalues --   -0.67235  -0.66678  -0.65644  -0.65174  -0.64709
 Alpha  occ. eigenvalues --   -0.64308  -0.63965  -0.63639  -0.62797  -0.62663
 Alpha  occ. eigenvalues --   -0.61744  -0.60532  -0.60087  -0.59424  -0.58674
 Alpha  occ. eigenvalues --   -0.58599  -0.58147  -0.57486  -0.56819  -0.56379
 Alpha  occ. eigenvalues --   -0.55911  -0.55540  -0.55506  -0.55216  -0.54806
 Alpha  occ. eigenvalues --   -0.54723  -0.54216  -0.54108  -0.53256  -0.52661
 Alpha  occ. eigenvalues --   -0.52527  -0.52205  -0.51956  -0.51495  -0.51432
 Alpha  occ. eigenvalues --   -0.51349  -0.51244  -0.51119  -0.50690  -0.50682
 Alpha  occ. eigenvalues --   -0.50401  -0.50219  -0.50065  -0.49802  -0.49278
 Alpha  occ. eigenvalues --   -0.48699  -0.48590  -0.48376  -0.48209  -0.48061
 Alpha  occ. eigenvalues --   -0.47996  -0.47370  -0.47112  -0.47049  -0.46769
 Alpha  occ. eigenvalues --   -0.46698  -0.46249  -0.46097  -0.45696  -0.45396
 Alpha  occ. eigenvalues --   -0.45361  -0.45091  -0.44927  -0.44765  -0.44711
 Alpha  occ. eigenvalues --   -0.44586  -0.44513  -0.44325  -0.44167  -0.44008
 Alpha  occ. eigenvalues --   -0.43725  -0.43633  -0.43477  -0.43443  -0.42931
 Alpha  occ. eigenvalues --   -0.42880  -0.42747  -0.42672  -0.42441  -0.42199
 Alpha  occ. eigenvalues --   -0.41947  -0.41808  -0.41572  -0.41473  -0.41328
 Alpha  occ. eigenvalues --   -0.41008  -0.40924  -0.40712  -0.40374  -0.40206
 Alpha  occ. eigenvalues --   -0.40058  -0.39989  -0.39864  -0.39802  -0.39349
 Alpha  occ. eigenvalues --   -0.39017  -0.38928  -0.38644  -0.38592  -0.38285
 Alpha  occ. eigenvalues --   -0.37852  -0.37560  -0.37204  -0.37134  -0.36616
 Alpha  occ. eigenvalues --   -0.36149  -0.35969  -0.35641  -0.35562  -0.35489
 Alpha  occ. eigenvalues --   -0.35250  -0.34813  -0.34221  -0.34055  -0.33678
 Alpha  occ. eigenvalues --   -0.33268  -0.32936  -0.32352  -0.31009  -0.30445
 Alpha  occ. eigenvalues --   -0.29743  -0.29275  -0.28190  -0.26053  -0.22724
 Alpha  occ. eigenvalues --   -0.20689
 Alpha virt. eigenvalues --   -0.06491  -0.02807   0.01415   0.04103   0.04256
 Alpha virt. eigenvalues --    0.05506   0.05766   0.06673   0.06995   0.08165
 Alpha virt. eigenvalues --    0.08943   0.10426   0.11160   0.11631   0.11872

 Mulliken charges:
               1
     1  Mg   0.824258
     2  C   -0.008227
     3  C   -0.200836
     4  C   -0.177509
     5  C   -0.146040
     6  N   -0.628298
     7  C    0.270680
     8  C   -0.160919
     9  C   -0.103530
    10  C    0.348787
    11  C   -0.307138
    12  C   -0.188119
    13  C   -0.258247
    14  C    0.599504
    15  O   -0.481087
    16  O   -0.489930
    17  N   -0.683214
    18  C    0.287263
    19  C    0.015304
    20  C    0.033256
    21  C    0.257203
    22  C   -0.365675
    23  C   -0.090475
    24  C   -0.269187
    25  N   -0.644752
    26  C    0.290582
    27  C    0.067140
    28  C   -0.001014
    29  C    0.297493
    30  C   -0.370119
    31  C   -0.243598
    32  C   -0.296101
    33  N   -0.728975
    34  C    0.214141
    35  C    0.070898
    36  C   -0.060218
    37  C    0.401680
    38  C   -0.389347
    39  C    0.375804
    40  O   -0.428781
    41  C   -0.275750
    42  C    0.606255
    43  O   -0.482879
    44  O   -0.425420
    45  C   -0.079661
    46  C   -0.006937
    47  C   -0.119881
    48  C    0.075973
    49  C   -0.333655
    50  C   -0.205742
    51  C   -0.200220
    52  C   -0.149200
    53  C   -0.054240
    54  C   -0.317174
    55  C   -0.167404
    56  C   -0.200503
    57  C   -0.172598
    58  C   -0.083280
    59  C   -0.306627
    60  C   -0.157570
    61  C   -0.181963
    62  C   -0.163437
    63  C   -0.080755
    64  C   -0.310389
    65  C   -0.336664
    66  H    0.067474
    67  H    0.077552
    68  H    0.054478
    69  H    0.137193
    70  H    0.109583
    71  H    0.082905
    72  H    0.108688
    73  H    0.125484
    74  H    0.126512
    75  H    0.102332
    76  H    0.134335
    77  H    0.139862
    78  H    0.119970
    79  H    0.110062
    80  H    0.114148
    81  H    0.085681
    82  H    0.105143
    83  H    0.110825
    84  H    0.136007
    85  H    0.089224
    86  H    0.090827
    87  H    0.116737
    88  H    0.100490
    89  H    0.082978
    90  H    0.121303
    91  H    0.094433
    92  H    0.122110
    93  H    0.144045
    94  H    0.136417
    95  H    0.159210
    96  H    0.117289
    97  H    0.151439
    98  H    0.106389
    99  H    0.144890
   100  H    0.116258
   101  H    0.099988
   102  H    0.120587
   103  H    0.103244
   104  H    0.137450
   105  H    0.083005
   106  H    0.103102
   107  H    0.085410
   108  H    0.097459
   109  H    0.105851
   110  H    0.102260
   111  H    0.098364
   112  H    0.075800
   113  H    0.099061
   114  H    0.101106
   115  H    0.078630
   116  H    0.085455
   117  H    0.099720
   118  H    0.082617
   119  H    0.088676
   120  H    0.095788
   121  H    0.077329
   122  H    0.108003
   123  H    0.102591
   124  H    0.108515
   125  H    0.065963
   126  H    0.095581
   127  H    0.097189
   128  H    0.073668
   129  H    0.101639
   130  H    0.075969
   131  H    0.097406
   132  H    0.095814
   133  H    0.098331
   134  H    0.111407
   135  H    0.099144
   136  H    0.093525
   137  H    0.109139
 Sum of Mulliken charges =   0.00000

 Dipole moment (field-independent basis, Debye):
    X=              3.2461    Y=              1.7430    Z=              0.5077  Tot=              3.7192
 Quadrupole moment (field-independent basis, Debye-Ang):
   XX=           -342.0449   YY=           -396.5701   ZZ=           -397.2135
   XY=             -7.4698   XZ=              9.6244   YZ=             -6.2935

 Normal termination of Gaussian 09 at Tue Jul  2 22:16:48 2019.
