 Gaussian 16, Revision A.03,
 Gaussian 16:  ES64L-G16RevA.03 25-Dec-2016

 ----------------------------------------------------------------------
 # td=(NStates=1) iop(3/107=0140000000,3/108=0140000000) CAM-B3LYP/6-31
 G(d,p)
 ----------------------------------------------------------------------

 --
 TD
 --
 Symbolic Z-matrix:
 Charge =  0 Multiplicity = 1

                         Standard orientation:
 ---------------------------------------------------------------------
 Center     Atomic      Atomic             Coordinates (Angstroms)
 Number     Number       Type             X           Y           Z
 ---------------------------------------------------------------------
      1         12           0       -7.180214    0.585556    0.155531
      2          6           0       -4.827445   -1.927269    0.521843
      3          6           0       -4.716727    2.919807    1.220461
      4          6           0       -9.402772    3.108377   -0.340127
      5          6           0       -9.533562   -1.756563   -0.878840
      6          7           0       -5.068330    0.467863    0.671640
      7          6           0       -4.312828   -0.702552    0.779205
      8          6           0       -2.869912   -0.406401    1.250780
      9          6           0       -3.040781    1.045795    1.707136
     10          6           0       -4.338656    1.586128    1.185311
     11          6           0       -3.070998    0.978664    3.206948
     12          6           0       -1.847879   -0.592815    0.049706
     13          6           0       -0.519498   -0.385964    0.526273
     14          6           0        0.549428   -0.686711   -0.532208
     15          8           0        0.257739   -0.977008   -1.674966
     16          8           0        1.778513   -0.298620   -0.104368
     17          7           0       -7.026315    2.598495    0.407026
     18          6           0       -5.923757    3.356011    0.743893
     19          6           0       -6.281441    4.768835    0.706244
     20          6           0       -7.574295    4.832028    0.254062
     21          6           0       -8.051107    3.429410    0.078768
     22          6           0       -5.482568    5.909035    1.176897
     23          6           0       -8.480443    6.007854   -0.095640
     24          6           0       -8.405240    7.219181    0.588110
     25          7           0       -9.111838    0.684566   -0.453511
     26          6           0       -9.876731    1.845121   -0.579077
     27          6           0      -11.157115    1.506326   -0.981691
     28          6           0      -11.145750    0.150368   -1.154285
     29          6           0       -9.856922   -0.344170   -0.845789
     30          6           0      -12.369407    2.423833   -1.199027
     31          6           0      -12.394576   -0.664896   -1.690922
     32          6           0      -12.327156   -0.917708   -3.234369
     33          7           0       -7.213590   -1.447925   -0.051838
     34          6           0       -8.332605   -2.197882   -0.591226
     35          6           0       -7.814387   -3.620253   -0.522773
     36          6           0       -6.472729   -3.552429   -0.208928
     37          6           0       -6.229441   -2.225805    0.155372
     38          6           0       -8.673786   -4.849834   -0.900045
     39          6           0       -5.369872   -4.461248    0.182141
     40          8           0       -5.163564   -5.611724    0.137131
     41          6           0       -4.222553   -3.345952    0.504475
     42          6           0       -3.536190   -3.733032    1.848339
     43          8           0       -3.663206   -3.141242    2.944465
     44          8           0       -2.797170   -4.849266    1.744274
     45          6           0       -2.154753   -5.443832    2.822250
     46          6           0        2.756435   -0.371689   -1.184407
     47          6           0        4.127706   -0.413675   -0.503220
     48          6           0        5.182481    0.384763   -0.945255
     49          6           0        5.136813    1.284153   -2.213508
     50          6           0        6.491840    0.382593   -0.193899
     51          6           0        7.728458   -0.009184   -1.163316
     52          6           0        8.961078   -0.031621   -0.375865
     53          6           0       10.202557   -0.674322   -1.052848
     54          6           0        9.965351   -2.288432   -1.394765
     55          6           0       11.506296   -0.459719   -0.192019
     56          6           0       12.779305   -0.697112   -0.873210
     57          6           0       13.935434   -0.204541    0.007653
     58          6           0       15.322362   -0.251232   -0.511097
     59          6           0       15.733480   -1.694737   -0.829116
     60          6           0       16.329134    0.432864    0.444420
     61          6           0       17.754368    0.476153   -0.042693
     62          6           0       18.593706    1.385743    0.769368
     63          6           0       20.035687    1.386985    0.436892
     64          6           0       20.334520    2.152632   -0.894781
     65          6           0       20.929647    2.053146    1.523643
     66          1           0       -4.019782    3.520635    1.735929
     67          1           0       -9.899781    3.917550   -0.211125
     68          1           0      -10.250622   -2.379666   -1.046103
     69          1           0       -2.739170   -0.906550    2.206450
     70          1           0       -2.273159    1.874155    1.081264
     71          1           0       -2.113295    0.674700    3.425824
     72          1           0       -3.051349    2.076978    3.731919
     73          1           0       -3.731555    0.469325    3.616825
     74          1           0       -2.011649   -1.599754   -0.175324
     75          1           0       -2.188893    0.012298   -0.812996
     76          1           0       -0.123969    0.593683    0.993078
     77          1           0       -0.436322   -1.045694    1.432082
     78          1           0       -5.629779    6.899224    0.554244
     79          1           0       -5.507892    6.176903    2.206970
     80          1           0       -4.431101    5.715394    0.784248
     81          1           0       -9.200897    5.815969   -1.001119
     82          1           0       -9.173420    8.003756    0.599498
     83          1           0       -7.617950    7.333188    1.502362
     84          1           0      -12.250643    3.053692   -2.213176
     85          1           0      -13.313962    1.876293   -1.257874
     86          1           0      -12.473669    3.079904   -0.300905
     87          1           0      -12.487779   -1.675473   -1.203970
     88          1           0      -13.293823   -0.090143   -1.284165
     89          1           0      -13.085265   -1.398584   -3.518266
     90          1           0      -12.258322    0.092529   -3.733809
     91          1           0      -11.367196   -1.500772   -3.550090
     92          1           0       -9.305562   -4.676922   -1.814129
     93          1           0       -7.860190   -5.611754   -0.914629
     94          1           0       -9.553043   -5.101100   -0.045403
     95          1           0       -3.362651   -3.349879   -0.128295
     96          1           0       -1.807684   -4.545503    3.296373
     97          1           0       -3.071944   -5.962840    3.244434
     98          1           0       -1.416424   -6.141899    2.473370
     99          1           0        2.561765   -1.245131   -1.729957
    100          1           0        2.629280    0.430201   -1.919163
    101          1           0        4.315616   -1.227751    0.113544
    102          1           0        4.222262    1.634326   -2.536282
    103          1           0        5.783079    2.268110   -2.181590
    104          1           0        5.789219    0.687687   -2.862131
    105          1           0        6.653730    1.576890    0.176045
    106          1           0        6.504288   -0.283415    0.634625
    107          1           0        7.375545   -0.980567   -1.706160
    108          1           0        7.913312    0.863065   -2.000958
    109          1           0        9.284839    0.871191    0.262338
    110          1           0        8.862924   -0.571239    0.537611
    111          1           0       10.322554   -0.313837   -2.029823
    112          1           0        9.013911   -2.251025   -2.010685
    113          1           0       10.958690   -2.612301   -1.945640
    114          1           0        9.720969   -3.095834   -0.652196
    115          1           0       11.211454    0.492740    0.180828
    116          1           0       11.331506   -0.971542    0.704080
    117          1           0       13.132343   -1.833670   -0.988220
    118          1           0       12.677751   -0.152737   -2.021307
    119          1           0       13.743266    0.885523    0.285319
    120          1           0       13.905522   -0.611668    1.232974
    121          1           0       15.286336    0.387709   -1.383237
    122          1           0       15.644573   -2.223987    0.183920
    123          1           0       15.156513   -2.159224   -1.757498
    124          1           0       16.893223   -1.687064   -0.960287
    125          1           0       15.952744    1.436721    0.504747
    126          1           0       16.331700   -0.001403    1.476174
    127          1           0       18.176541   -0.459811   -0.328978
    128          1           0       17.619642    0.843377   -1.094216
    129          1           0       18.234330    2.476069    0.599134
    130          1           0       18.404889    1.081135    1.846868
    131          1           0       20.198441    0.419243    0.360873
    132          1           0       20.196262    3.389486   -0.744254
    133          1           0       21.415286    2.019093   -1.213112
    134          1           0       19.638410    1.922982   -1.723461
    135          1           0       20.893235    1.775924    2.516123
    136          1           0       21.914920    1.972249    1.264425
    137          1           0       20.789246    3.238700    1.592686
 ---------------------------------------------------------------------

 SCF Done:  E(RCAM-B3LYP) =  -2933.47152650     A.U. after   16 cycles

 Excitation energies and oscillator strengths:

 Excited State   1:      Singlet-A      2.0052 eV  618.31 nm  f=0.2452  <S**2>=0.000
     240 -> 243       -0.19735
     241 -> 242        0.67073
 This state for optimization and/or second-order correction.
 Total Energy, E(TD-HF/TD-DFT) =  -2933.39783692
 Copying the excited state density for this state as the 1-particle RhoCI density.

 The electronic state is 1-A.
 Alpha  occ. eigenvalues --  -46.79208 -19.21957 -19.20899 -19.17972 -19.16695
 Alpha  occ. eigenvalues --  -19.15600 -14.36699 -14.35205 -14.34924 -14.34403
 Alpha  occ. eigenvalues --  -10.34244 -10.34111 -10.31736 -10.26510 -10.26484
 Alpha  occ. eigenvalues --  -10.25738 -10.25733 -10.25019 -10.24952 -10.24880
 Alpha  occ. eigenvalues --  -10.24640 -10.24628 -10.24594 -10.24242 -10.24119
 Alpha  occ. eigenvalues --  -10.23998 -10.23868 -10.23855 -10.23768 -10.23701
 Alpha  occ. eigenvalues --  -10.23586 -10.23403 -10.23382 -10.23197 -10.22899
 Alpha  occ. eigenvalues --  -10.22643 -10.22506 -10.22298 -10.22254 -10.22247
 Alpha  occ. eigenvalues --  -10.22245 -10.22103 -10.21994 -10.21989 -10.21936
 Alpha  occ. eigenvalues --  -10.21852 -10.21838 -10.21564 -10.21506 -10.21502
 Alpha  occ. eigenvalues --  -10.21416 -10.21270 -10.21160 -10.21016 -10.20834
 Alpha  occ. eigenvalues --  -10.20754 -10.20724 -10.20611 -10.20544 -10.20439
 Alpha  occ. eigenvalues --  -10.20400 -10.20030 -10.20019 -10.19791 -10.19445
 Alpha  occ. eigenvalues --   -3.07804  -1.82760  -1.82255  -1.82219  -1.12820
 Alpha  occ. eigenvalues --   -1.12614  -1.09975  -1.04261  -1.02183  -0.99661
 Alpha  occ. eigenvalues --   -0.98443  -0.97471  -0.95811  -0.86555  -0.86332
 Alpha  occ. eigenvalues --   -0.85570  -0.85336  -0.84445  -0.83965  -0.83308
 Alpha  occ. eigenvalues --   -0.83202  -0.82627  -0.82435  -0.81987  -0.81406
 Alpha  occ. eigenvalues --   -0.80427  -0.79581  -0.78361  -0.77986  -0.77336
 Alpha  occ. eigenvalues --   -0.76950  -0.76825  -0.75356  -0.74285  -0.73012
 Alpha  occ. eigenvalues --   -0.72675  -0.71768  -0.71405  -0.71192  -0.70707
 Alpha  occ. eigenvalues --   -0.70354  -0.69677  -0.69472  -0.68651  -0.67834
 Alpha  occ. eigenvalues --   -0.67710  -0.66107  -0.65087  -0.64820  -0.63717
 Alpha  occ. eigenvalues --   -0.62397  -0.61961  -0.61039  -0.60596  -0.60437
 Alpha  occ. eigenvalues --   -0.59800  -0.59723  -0.59470  -0.58964  -0.57537
 Alpha  occ. eigenvalues --   -0.57134  -0.56119  -0.55969  -0.55921  -0.54988
 Alpha  occ. eigenvalues --   -0.54810  -0.53759  -0.53456  -0.53098  -0.52969
 Alpha  occ. eigenvalues --   -0.52282  -0.51604  -0.51050  -0.50966  -0.50562
 Alpha  occ. eigenvalues --   -0.50412  -0.50264  -0.50101  -0.49858  -0.49465
 Alpha  occ. eigenvalues --   -0.49333  -0.48794  -0.48481  -0.48426  -0.48174
 Alpha  occ. eigenvalues --   -0.47706  -0.47476  -0.47293  -0.47194  -0.47044
 Alpha  occ. eigenvalues --   -0.46925  -0.46508  -0.46364  -0.46028  -0.45947
 Alpha  occ. eigenvalues --   -0.45592  -0.45330  -0.45204  -0.44968  -0.44848
 Alpha  occ. eigenvalues --   -0.44517  -0.44426  -0.44016  -0.43814  -0.43724
 Alpha  occ. eigenvalues --   -0.43226  -0.42935  -0.42811  -0.42684  -0.42546
 Alpha  occ. eigenvalues --   -0.42424  -0.42347  -0.42075  -0.41901  -0.41808
 Alpha  occ. eigenvalues --   -0.41534  -0.41393  -0.40848  -0.40803  -0.40796
 Alpha  occ. eigenvalues --   -0.40695  -0.40434  -0.40065  -0.39948  -0.39670
 Alpha  occ. eigenvalues --   -0.39542  -0.39425  -0.39343  -0.39296  -0.38855
 Alpha  occ. eigenvalues --   -0.38509  -0.38444  -0.38222  -0.38047  -0.38008
 Alpha  occ. eigenvalues --   -0.37415  -0.37222  -0.36843  -0.36812  -0.36564
 Alpha  occ. eigenvalues --   -0.36478  -0.36403  -0.36135  -0.35828  -0.35631
 Alpha  occ. eigenvalues --   -0.35385  -0.35196  -0.35143  -0.34967  -0.34862
 Alpha  occ. eigenvalues --   -0.34060  -0.33858  -0.33681  -0.33631  -0.33505
 Alpha  occ. eigenvalues --   -0.32924  -0.32715  -0.32709  -0.32455  -0.32091
 Alpha  occ. eigenvalues --   -0.31680  -0.31511  -0.31240  -0.30373  -0.30289
 Alpha  occ. eigenvalues --   -0.29917  -0.29530  -0.29260  -0.28342  -0.27693
 Alpha  occ. eigenvalues --   -0.27448  -0.25937  -0.25644  -0.24733  -0.22076
 Alpha  occ. eigenvalues --   -0.19365
 Alpha virt. eigenvalues --   -0.06758  -0.04033   0.00477   0.02126   0.03397
 Alpha virt. eigenvalues --    0.03958   0.04259   0.05074   0.05570   0.05729
 Alpha virt. eigenvalues --    0.07027   0.08845   0.09447   0.09550   0.09987

 Mulliken charges:
               1
     1  Mg   0.806098
     2  C    0.120255
     3  C   -0.171780
     4  C   -0.121280
     5  C   -0.101537
     6  N   -0.631129
     7  C    0.257301
     8  C   -0.169897
     9  C   -0.156567
    10  C    0.332411
    11  C   -0.295336
    12  C   -0.146218
    13  C   -0.271057
    14  C    0.611522
    15  O   -0.469390
    16  O   -0.471899
    17  N   -0.717071
    18  C    0.318411
    19  C    0.030471
    20  C    0.008595
    21  C    0.276261
    22  C   -0.399592
    23  C   -0.092100
    24  C   -0.247023
    25  N   -0.728983
    26  C    0.297396
    27  C    0.052772
    28  C   -0.016569
    29  C    0.304222
    30  C   -0.369308
    31  C   -0.245256
    32  C   -0.290859
    33  N   -0.728390
    34  C    0.279947
    35  C    0.006463
    36  C   -0.028604
    37  C    0.322078
    38  C   -0.370021
    39  C    0.411267
    40  O   -0.411351
    41  C   -0.342960
    42  C    0.567755
    43  O   -0.501144
    44  O   -0.431940
    45  C   -0.074719
    46  C    0.002596
    47  C   -0.136183
    48  C    0.108713
    49  C   -0.358744
    50  C   -0.209373
    51  C   -0.176841
    52  C   -0.182382
    53  C   -0.064676
    54  C   -0.324722
    55  C   -0.157626
    56  C   -0.159435
    57  C   -0.152556
    58  C   -0.051429
    59  C   -0.304976
    60  C   -0.172702
    61  C   -0.188444
    62  C   -0.152660
    63  C   -0.032572
    64  C   -0.307387
    65  C   -0.315015
    66  H    0.087424
    67  H    0.066518
    68  H    0.064815
    69  H    0.137970
    70  H    0.068862
    71  H    0.122275
    72  H    0.072080
    73  H    0.144024
    74  H    0.122187
    75  H    0.124606
    76  H    0.133631
    77  H    0.126043
    78  H    0.111503
    79  H    0.134338
    80  H    0.102537
    81  H    0.103097
    82  H    0.110631
    83  H    0.093348
    84  H    0.105191
    85  H    0.115028
    86  H    0.117737
    87  H    0.090352
    88  H    0.093994
    89  H    0.119200
    90  H    0.105043
    91  H    0.094264
    92  H    0.129052
    93  H    0.147120
    94  H    0.103846
    95  H    0.154700
    96  H    0.130112
    97  H    0.128722
    98  H    0.130768
    99  H    0.138003
   100  H    0.113507
   101  H    0.090368
   102  H    0.124254
   103  H    0.093967
   104  H    0.137538
   105  H    0.081024
   106  H    0.109881
   107  H    0.103548
   108  H    0.078656
   109  H    0.083056
   110  H    0.099348
   111  H    0.090229
   112  H    0.088266
   113  H    0.091483
   114  H    0.097809
   115  H    0.091940
   116  H    0.104257
   117  H    0.094523
   118  H    0.063948
   119  H    0.075998
   120  H    0.044341
   121  H    0.088740
   122  H    0.098699
   123  H    0.097763
   124  H    0.085880
   125  H    0.098218
   126  H    0.080085
   127  H    0.097001
   128  H    0.082823
   129  H    0.077205
   130  H    0.080457
   131  H    0.095605
   132  H    0.071312
   133  H    0.100715
   134  H    0.104578
   135  H    0.105002
   136  H    0.108440
   137  H    0.075682
 Sum of Mulliken charges =  -0.00000

 Dipole moment (field-independent basis, Debye):
    X=              1.7506    Y=              2.3387    Z=              0.2804  Tot=              2.9348
 Quadrupole moment (field-independent basis, Debye-Ang):
   XX=           -336.6456   YY=           -392.5606   ZZ=           -399.0777
   XY=            -10.1339   XZ=              9.2699   YZ=             -0.7197

 Normal termination of Gaussian 16 at Mon Sep  9 12:30:17 2019.
