 Gaussian 16, Revision A.03,
 Gaussian 16:  ES64L-G16RevA.03 25-Dec-2016

 ----------------------------------------------------------------------
 # td=(NStates=1) iop(3/107=0140000000,3/108=0140000000) CAM-B3LYP/6-31
 G(d,p)
 ----------------------------------------------------------------------

 --
 TD
 --
 Symbolic Z-matrix:
 Charge =  0 Multiplicity = 1

                         Standard orientation:
 ---------------------------------------------------------------------
 Center     Atomic      Atomic             Coordinates (Angstroms)
 Number     Number       Type             X           Y           Z
 ---------------------------------------------------------------------
      1         12           0       -7.171730    0.580601    0.073617
      2          6           0       -4.887004   -1.946691    0.531198
      3          6           0       -4.724097    2.834728    1.104054
      4          6           0       -9.366939    3.114661   -0.442964
      5          6           0       -9.497501   -1.726886   -0.863929
      6          7           0       -5.138273    0.422992    0.824187
      7          6           0       -4.365912   -0.722863    0.821932
      8          6           0       -3.025297   -0.426282    1.256169
      9          6           0       -2.971421    1.003469    1.742221
     10          6           0       -4.360863    1.483072    1.150972
     11          6           0       -3.024638    1.332936    3.186169
     12          6           0       -1.943513   -0.500871    0.079869
     13          6           0       -0.516564   -0.298325    0.545331
     14          6           0        0.511609   -0.647410   -0.632293
     15          8           0        0.236531   -0.940010   -1.771356
     16          8           0        1.790515   -0.444272   -0.250981
     17          7           0       -7.034549    2.617685    0.206182
     18          6           0       -6.015447    3.415708    0.734619
     19          6           0       -6.380542    4.750628    0.775888
     20          6           0       -7.647997    4.902292    0.306427
     21          6           0       -8.105475    3.469291   -0.019099
     22          6           0       -5.484424    5.842454    1.227225
     23          6           0       -8.470351    6.013173    0.174303
     24          6           0       -8.537943    7.171411    0.881521
     25          7           0       -9.088233    0.584098   -0.529196
     26          6           0       -9.859459    1.809423   -0.776067
     27          6           0      -11.224128    1.427838   -1.107861
     28          6           0      -11.189904    0.145661   -1.300940
     29          6           0       -9.834650   -0.453809   -0.918355
     30          6           0      -12.387567    2.431614   -1.520450
     31          6           0      -12.452585   -0.815404   -1.753179
     32          6           0      -12.196615   -1.178043   -3.241094
     33          7           0       -7.249638   -1.508737   -0.116562
     34          6           0       -8.302489   -2.286454   -0.511593
     35          6           0       -7.789223   -3.753083   -0.547616
     36          6           0       -6.499594   -3.664190   -0.083336
     37          6           0       -6.196209   -2.304840    0.128220
     38          6           0       -8.689164   -4.922038   -0.973888
     39          6           0       -5.339172   -4.379077    0.386878
     40          8           0       -5.240829   -5.604955    0.377208
     41          6           0       -4.204780   -3.281919    0.621566
     42          6           0       -3.489067   -3.645690    1.921034
     43          8           0       -3.612351   -3.059343    2.969263
     44          8           0       -2.643042   -4.637287    1.778761
     45          6           0       -2.045339   -5.126862    3.039787
     46          6           0        2.843373   -0.671692   -1.200788
     47          6           0        4.103168   -0.310738   -0.442405
     48          6           0        5.096288    0.457129   -0.871251
     49          6           0        5.043132    1.376202   -2.185486
     50          6           0        6.428412    0.607822   -0.122314
     51          6           0        7.595993    0.046478   -1.025000
     52          6           0        8.912134    0.043306   -0.220970
     53          6           0       10.116363   -0.476293   -0.944851
     54          6           0        9.946497   -1.852347   -1.477962
     55          6           0       11.465761   -0.330731   -0.027806
     56          6           0       12.735322   -0.570687   -0.736194
     57          6           0       13.885406   -0.162517    0.189145
     58          6           0       15.330377   -0.311327   -0.447285
     59          6           0       15.625747   -1.733804   -0.871742
     60          6           0       16.440045    0.233385    0.416526
     61          6           0       17.703430    0.392435   -0.216085
     62          6           0       18.712478    1.286277    0.657478
     63          6           0       20.199545    1.294866    0.323674
     64          6           0       20.414354    1.895934   -1.108105
     65          6           0       21.098179    2.102417    1.360621
     66          1           0       -3.903276    3.511959    1.242511
     67          1           0      -10.213811    3.910308   -0.364766
     68          1           0      -10.257414   -2.516539   -1.372110
     69          1           0       -2.671164   -1.082726    2.075522
     70          1           0       -2.152988    1.542221    1.110623
     71          1           0       -2.158251    1.040084    3.620198
     72          1           0       -3.389918    2.201711    3.202380
     73          1           0       -3.763459    0.851437    3.790966
     74          1           0       -1.911405   -1.585627   -0.552073
     75          1           0       -2.333607    0.450241   -0.631877
     76          1           0       -0.171473    0.486908    1.060346
     77          1           0       -0.201464   -1.046094    1.272155
     78          1           0       -5.890824    6.804639    0.810471
     79          1           0       -5.636884    5.958726    2.289750
     80          1           0       -4.342700    5.698182    1.042114
     81          1           0       -9.144775    5.905720   -0.700847
     82          1           0       -9.139416    8.072693    0.639363
     83          1           0       -7.843960    7.463515    1.823596
     84          1           0      -11.890686    3.179730   -2.242853
     85          1           0      -13.281502    2.039615   -1.846071
     86          1           0      -12.504005    3.081632   -0.378365
     87          1           0      -12.493693   -1.633633   -1.153645
     88          1           0      -13.262535   -0.155121   -1.456511
     89          1           0      -12.909061   -1.949295   -3.420517
     90          1           0      -12.240827   -0.407213   -4.057305
     91          1           0      -11.215279   -1.769541   -3.579530
     92          1           0       -9.078140   -4.832767   -1.927563
     93          1           0       -7.992829   -5.716709   -0.960739
     94          1           0       -9.423052   -5.252254   -0.155073
     95          1           0       -3.298699   -3.267210   -0.113304
     96          1           0       -1.201361   -4.440426    3.557508
     97          1           0       -2.808457   -5.242636    3.866730
     98          1           0       -1.678340   -6.141187    2.722347
     99          1           0        2.879226   -1.935858   -1.688576
    100          1           0        2.752849    0.118412   -2.118617
    101          1           0        4.428999   -0.992294    0.392819
    102          1           0        4.042521    1.382325   -2.870661
    103          1           0        5.391767    2.289001   -1.990038
    104          1           0        5.758395    0.999317   -2.852881
    105          1           0        6.774613    1.627443    0.036099
    106          1           0        6.593646   -0.074894    0.805477
    107          1           0        7.571429   -0.885846   -1.447203
    108          1           0        7.853665    0.653848   -1.974254
    109          1           0        9.158575    0.959605    0.214363
    110          1           0        8.654545   -0.689278    0.727041
    111          1           0       10.436796    0.209058   -1.763792
    112          1           0        8.993979   -2.232996   -1.780490
    113          1           0       10.942480   -2.312911   -2.023156
    114          1           0       10.116257   -2.609697   -0.470956
    115          1           0       11.390369    0.615285    0.555507
    116          1           0       11.384031   -1.055185    0.794365
    117          1           0       12.708864   -1.615859   -1.132626
    118          1           0       12.752369   -0.003010   -1.589682
    119          1           0       13.876020    0.913075    0.275514
    120          1           0       14.110365   -0.859620    1.057114
    121          1           0       15.299038    0.368447   -1.265447
    122          1           0       15.503927   -2.501795   -0.055250
    123          1           0       14.801081   -1.932083   -1.538923
    124          1           0       16.718477   -1.802984   -1.228913
    125          1           0       16.104488    1.098142    0.781490
    126          1           0       16.710395   -0.404238    1.287426
    127          1           0       18.299032   -0.485870   -0.600137
    128          1           0       17.724199    0.965082   -1.080244
    129          1           0       18.353261    2.315507    0.670635
    130          1           0       18.776372    0.839045    1.721142
    131          1           0       20.558544    0.198775    0.316513
    132          1           0       20.164196    3.073520   -1.083343
    133          1           0       21.546059    2.003128   -1.458366
    134          1           0       19.791893    1.217895   -1.787165
    135          1           0       21.043909    1.399494    2.297251
    136          1           0       21.957735    2.162316    0.972803
    137          1           0       20.779465    3.230363    1.451376
 ---------------------------------------------------------------------

 SCF Done:  E(RCAM-B3LYP) =  -2933.45729247     A.U. after   16 cycles

 Excitation energies and oscillator strengths:

 Excited State   1:      Singlet-A      1.9620 eV  631.93 nm  f=0.3094  <S**2>=0.000
     240 -> 243        0.22422
     241 -> 242        0.66852
 This state for optimization and/or second-order correction.
 Total Energy, E(TD-HF/TD-DFT) =  -2933.38519054
 Copying the excited state density for this state as the 1-particle RhoCI density.

 The electronic state is 1-A.
 Alpha  occ. eigenvalues --  -46.79980 -19.22501 -19.22051 -19.16438 -19.16031
 Alpha  occ. eigenvalues --  -19.15535 -14.37259 -14.35368 -14.35366 -14.34764
 Alpha  occ. eigenvalues --  -10.34491 -10.33683 -10.30534 -10.30518 -10.28665
 Alpha  occ. eigenvalues --  -10.25824 -10.25669 -10.25515 -10.25339 -10.25199
 Alpha  occ. eigenvalues --  -10.25182 -10.24645 -10.24636 -10.24627 -10.24599
 Alpha  occ. eigenvalues --  -10.24077 -10.24003 -10.23852 -10.23552 -10.23328
 Alpha  occ. eigenvalues --  -10.23293 -10.23219 -10.23095 -10.22877 -10.22800
 Alpha  occ. eigenvalues --  -10.22434 -10.22404 -10.22384 -10.22339 -10.22290
 Alpha  occ. eigenvalues --  -10.22235 -10.22157 -10.22139 -10.22018 -10.21968
 Alpha  occ. eigenvalues --  -10.21909 -10.21722 -10.21683 -10.21673 -10.21652
 Alpha  occ. eigenvalues --  -10.21626 -10.21527 -10.21435 -10.21286 -10.21245
 Alpha  occ. eigenvalues --  -10.21003 -10.20839 -10.20773 -10.20544 -10.20428
 Alpha  occ. eigenvalues --  -10.20345 -10.20194 -10.20094 -10.18855 -10.18283
 Alpha  occ. eigenvalues --   -3.08479  -1.83433  -1.82949  -1.82874  -1.13875
 Alpha  occ. eigenvalues --   -1.13058  -1.05230  -1.04128  -1.03675  -0.99093
 Alpha  occ. eigenvalues --   -0.98174  -0.97254  -0.96362  -0.87684  -0.86540
 Alpha  occ. eigenvalues --   -0.85782  -0.85048  -0.84424  -0.84367  -0.83475
 Alpha  occ. eigenvalues --   -0.83111  -0.82805  -0.82121  -0.81383  -0.81208
 Alpha  occ. eigenvalues --   -0.80815  -0.79443  -0.78353  -0.78314  -0.77324
 Alpha  occ. eigenvalues --   -0.76717  -0.76338  -0.75689  -0.75270  -0.74356
 Alpha  occ. eigenvalues --   -0.72450  -0.71672  -0.71573  -0.71338  -0.70972
 Alpha  occ. eigenvalues --   -0.70729  -0.70073  -0.69285  -0.68898  -0.68194
 Alpha  occ. eigenvalues --   -0.66910  -0.65984  -0.65468  -0.64829  -0.64217
 Alpha  occ. eigenvalues --   -0.63361  -0.63191  -0.61432  -0.61204  -0.60316
 Alpha  occ. eigenvalues --   -0.59247  -0.59179  -0.58397  -0.57642  -0.57356
 Alpha  occ. eigenvalues --   -0.56866  -0.56061  -0.55556  -0.55085  -0.54930
 Alpha  occ. eigenvalues --   -0.54088  -0.53993  -0.53234  -0.52722  -0.52333
 Alpha  occ. eigenvalues --   -0.51765  -0.51464  -0.51314  -0.50858  -0.50770
 Alpha  occ. eigenvalues --   -0.50459  -0.50081  -0.49958  -0.49447  -0.49187
 Alpha  occ. eigenvalues --   -0.48731  -0.48510  -0.48473  -0.47890  -0.47620
 Alpha  occ. eigenvalues --   -0.47527  -0.47467  -0.47353  -0.46929  -0.46772
 Alpha  occ. eigenvalues --   -0.46641  -0.46258  -0.45966  -0.45844  -0.45724
 Alpha  occ. eigenvalues --   -0.45701  -0.45226  -0.45129  -0.45031  -0.44779
 Alpha  occ. eigenvalues --   -0.44712  -0.44384  -0.44189  -0.44133  -0.43829
 Alpha  occ. eigenvalues --   -0.43548  -0.43071  -0.42953  -0.42775  -0.42546
 Alpha  occ. eigenvalues --   -0.42402  -0.42351  -0.42059  -0.41563  -0.41377
 Alpha  occ. eigenvalues --   -0.41175  -0.40878  -0.40751  -0.40496  -0.40403
 Alpha  occ. eigenvalues --   -0.40311  -0.40223  -0.40061  -0.39942  -0.39859
 Alpha  occ. eigenvalues --   -0.39731  -0.39440  -0.39206  -0.38806  -0.38747
 Alpha  occ. eigenvalues --   -0.38618  -0.38554  -0.38426  -0.38256  -0.38010
 Alpha  occ. eigenvalues --   -0.37910  -0.37809  -0.37805  -0.37638  -0.37207
 Alpha  occ. eigenvalues --   -0.36924  -0.36909  -0.36498  -0.36164  -0.35841
 Alpha  occ. eigenvalues --   -0.35641  -0.35575  -0.34982  -0.34865  -0.34332
 Alpha  occ. eigenvalues --   -0.34255  -0.34242  -0.33827  -0.33759  -0.33681
 Alpha  occ. eigenvalues --   -0.33358  -0.32812  -0.32666  -0.32348  -0.32160
 Alpha  occ. eigenvalues --   -0.31709  -0.31620  -0.31075  -0.30395  -0.30238
 Alpha  occ. eigenvalues --   -0.29959  -0.29851  -0.29379  -0.28281  -0.27492
 Alpha  occ. eigenvalues --   -0.27194  -0.26600  -0.26532  -0.24942  -0.21410
 Alpha  occ. eigenvalues --   -0.19482
 Alpha virt. eigenvalues --   -0.07116  -0.03510  -0.00148   0.02215   0.03771
 Alpha virt. eigenvalues --    0.04774   0.05101   0.05302   0.05399   0.05781
 Alpha virt. eigenvalues --    0.06443   0.08358   0.09061   0.09428   0.09849

 Mulliken charges:
               1
     1  Mg   0.813126
     2  C    0.126414
     3  C   -0.200626
     4  C   -0.203771
     5  C   -0.215342
     6  N   -0.623672
     7  C    0.356059
     8  C   -0.181050
     9  C   -0.137769
    10  C    0.292920
    11  C   -0.282780
    12  C   -0.166496
    13  C   -0.250503
    14  C    0.579845
    15  O   -0.456285
    16  O   -0.451301
    17  N   -0.711022
    18  C    0.296974
    19  C    0.047797
    20  C    0.049577
    21  C    0.316299
    22  C   -0.384839
    23  C   -0.104063
    24  C   -0.253607
    25  N   -0.707703
    26  C    0.235200
    27  C    0.045455
    28  C   -0.029489
    29  C    0.386667
    30  C   -0.337797
    31  C   -0.218338
    32  C   -0.317475
    33  N   -0.718516
    34  C    0.294233
    35  C   -0.044004
    36  C    0.092380
    37  C    0.250030
    38  C   -0.379473
    39  C    0.360203
    40  O   -0.464562
    41  C   -0.344634
    42  C    0.601017
    43  O   -0.481730
    44  O   -0.423982
    45  C   -0.093287
    46  C    0.033165
    47  C   -0.132204
    48  C    0.141550
    49  C   -0.370181
    50  C   -0.226525
    51  C   -0.186742
    52  C   -0.164837
    53  C   -0.044696
    54  C   -0.307933
    55  C   -0.182836
    56  C   -0.175462
    57  C   -0.171200
    58  C   -0.092313
    59  C   -0.305181
    60  C   -0.137801
    61  C   -0.192993
    62  C   -0.157895
    63  C   -0.070686
    64  C   -0.297476
    65  C   -0.288468
    66  H    0.077081
    67  H    0.091773
    68  H    0.080638
    69  H    0.125128
    70  H    0.096170
    71  H    0.110352
    72  H    0.114419
    73  H    0.123888
    74  H    0.099355
    75  H    0.090771
    76  H    0.141574
    77  H    0.133135
    78  H    0.116969
    79  H    0.132494
    80  H    0.105731
    81  H    0.094735
    82  H    0.109009
    83  H    0.085845
    84  H    0.128225
    85  H    0.129417
    86  H    0.077830
    87  H    0.121407
    88  H    0.106177
    89  H    0.109192
    90  H    0.114094
    91  H    0.097217
    92  H    0.132495
    93  H    0.148998
    94  H    0.124873
    95  H    0.150027
    96  H    0.113925
    97  H    0.142852
    98  H    0.132009
    99  H    0.083555
   100  H    0.104345
   101  H    0.082147
   102  H    0.096407
   103  H    0.127655
   104  H    0.134036
   105  H    0.115976
   106  H    0.100053
   107  H    0.108663
   108  H    0.078353
   109  H    0.094583
   110  H    0.054994
   111  H    0.083413
   112  H    0.123322
   113  H    0.089419
   114  H    0.056727
   115  H    0.081849
   116  H    0.091607
   117  H    0.094172
   118  H    0.099886
   119  H    0.096664
   120  H    0.095567
   121  H    0.080472
   122  H    0.091112
   123  H    0.102433
   124  H    0.095739
   125  H    0.090240
   126  H    0.082343
   127  H    0.083885
   128  H    0.101907
   129  H    0.090335
   130  H    0.069065
   131  H    0.075588
   132  H    0.079527
   133  H    0.082033
   134  H    0.099881
   135  H    0.090682
   136  H    0.119180
   137  H    0.085009
 Sum of Mulliken charges =  -0.00000

 Dipole moment (field-independent basis, Debye):
    X=              1.7709    Y=              3.8343    Z=              0.2030  Tot=              4.2284
 Quadrupole moment (field-independent basis, Debye-Ang):
   XX=           -335.6109   YY=           -393.7107   ZZ=           -397.4730
   XY=            -11.7790   XZ=             11.4655   YZ=             -2.2099

 Normal termination of Gaussian 16 at Tue Sep 24 05:22:30 2019.
