 Gaussian 16, Revision A.03,
 Gaussian 16:  ES64L-G16RevA.03 25-Dec-2016

 ----------------------------------------------------------------------
 # td=(NStates=1) iop(3/107=0140000000,3/108=0140000000) CAM-B3LYP/6-31
 G(d,p)
 ----------------------------------------------------------------------

 --
 TD
 --
 Symbolic Z-matrix:
 Charge =  0 Multiplicity = 1

                         Standard orientation:
 ---------------------------------------------------------------------
 Center     Atomic      Atomic             Coordinates (Angstroms)
 Number     Number       Type             X           Y           Z
 ---------------------------------------------------------------------
      1         12           0       -7.098979    0.576164    0.114618
      2          6           0       -4.910433   -2.017197    0.595733
      3          6           0       -4.741295    2.854445    0.985418
      4          6           0       -9.388911    3.117833   -0.258485
      5          6           0       -9.582083   -1.757937   -0.893335
      6          7           0       -5.123223    0.371213    0.817634
      7          6           0       -4.353199   -0.799879    0.878704
      8          6           0       -2.829734   -0.461221    1.129806
      9          6           0       -2.902890    0.960970    1.534837
     10          6           0       -4.280969    1.488957    1.066072
     11          6           0       -2.841608    1.280207    3.095408
     12          6           0       -1.897622   -0.648892   -0.045980
     13          6           0       -0.440223   -0.488018    0.487178
     14          6           0        0.559861   -0.638219   -0.653728
     15          8           0        0.328305   -0.922585   -1.780166
     16          8           0        1.793028   -0.360731   -0.302250
     17          7           0       -7.137374    2.706556    0.362113
     18          6           0       -5.997703    3.362005    0.823644
     19          6           0       -6.309931    4.780691    0.778812
     20          6           0       -7.712504    4.854288    0.420796
     21          6           0       -8.117265    3.467294    0.078080
     22          6           0       -5.396120    5.891664    1.208967
     23          6           0       -8.550407    5.985504    0.212765
     24          6           0       -8.453751    7.266773    0.725035
     25          7           0       -9.161526    0.673469   -0.491051
     26          6           0       -9.882178    1.785298   -0.537039
     27          6           0      -11.184102    1.437462   -0.979498
     28          6           0      -11.265838    0.021166   -1.174840
     29          6           0       -9.858024   -0.400458   -0.794765
     30          6           0      -12.280615    2.369606   -1.371746
     31          6           0      -12.372503   -0.827274   -1.758346
     32          6           0      -12.189349   -1.128402   -3.193316
     33          7           0       -7.226518   -1.480539   -0.238781
     34          6           0       -8.273580   -2.321083   -0.485425
     35          6           0       -7.874625   -3.677250   -0.573895
     36          6           0       -6.635637   -3.599650   -0.079089
     37          6           0       -6.249649   -2.219223    0.079728
     38          6           0       -8.677365   -4.882909   -0.742492
     39          6           0       -5.410670   -4.324611    0.300522
     40          8           0       -5.200413   -5.561938    0.315382
     41          6           0       -4.179216   -3.354007    0.518608
     42          6           0       -3.530836   -3.721574    1.861229
     43          8           0       -3.793366   -3.129184    2.925764
     44          8           0       -2.664075   -4.668903    1.789759
     45          6           0       -2.257759   -5.090439    3.086846
     46          6           0        2.738149   -0.482067   -1.260729
     47          6           0        4.101264   -0.288035   -0.678727
     48          6           0        5.116082    0.501715   -1.090243
     49          6           0        5.148563    1.381842   -2.365196
     50          6           0        6.372477    0.462439   -0.355347
     51          6           0        7.617316   -0.044060   -1.112636
     52          6           0        8.900088    0.060083   -0.238729
     53          6           0       10.184820   -0.495436   -0.898526
     54          6           0       10.073877   -1.930880   -1.411806
     55          6           0       11.399304   -0.240690   -0.108297
     56          6           0       12.738746   -0.397413   -0.821373
     57          6           0       13.979384   -0.101073    0.143902
     58          6           0       15.287990   -0.252665   -0.496494
     59          6           0       15.570110   -1.706534   -0.941128
     60          6           0       16.384910    0.324898    0.392826
     61          6           0       17.820457    0.421746   -0.087774
     62          6           0       18.746543    1.035189    0.895555
     63          6           0       20.180745    1.209057    0.443820
     64          6           0       20.335946    2.126730   -0.794325
     65          6           0       21.155362    1.794377    1.507914
     66          1           0       -3.990273    3.646392    1.235919
     67          1           0      -10.182463    3.883698   -0.343192
     68          1           0      -10.335558   -2.358850   -1.289017
     69          1           0       -2.470332   -1.111300    1.941875
     70          1           0       -2.169205    1.605162    1.110018
     71          1           0       -1.917089    1.050754    3.516434
     72          1           0       -2.979656    2.402707    3.450801
     73          1           0       -3.685216    0.739334    3.544283
     74          1           0       -2.069559   -1.633901   -0.414591
     75          1           0       -2.276673    0.213525   -0.865698
     76          1           0       -0.290114    0.540033    0.879905
     77          1           0       -0.155866   -1.130572    1.369462
     78          1           0       -5.826189    6.801813    0.798009
     79          1           0       -5.501881    6.064441    2.402126
     80          1           0       -4.314166    5.945901    0.962823
     81          1           0       -9.321161    5.911499   -0.485116
     82          1           0       -9.187399    8.142442    0.490651
     83          1           0       -7.537048    7.304473    1.526555
     84          1           0      -11.697676    3.459271   -1.883739
     85          1           0      -13.099806    1.742097   -2.073767
     86          1           0      -12.813858    2.833281   -0.276826
     87          1           0      -12.460540   -1.634262   -1.141039
     88          1           0      -13.436281   -0.214554   -1.673353
     89          1           0      -12.916296   -1.887528   -3.579044
     90          1           0      -12.051156   -0.383857   -3.947628
     91          1           0      -11.138873   -1.454216   -3.206240
     92          1           0       -8.892900   -5.089371   -1.900333
     93          1           0       -8.305946   -5.863338   -0.514125
     94          1           0       -9.590740   -4.844720   -0.085414
     95          1           0       -3.498648   -3.498212   -0.277565
     96          1           0       -1.978552   -4.137551    3.731687
     97          1           0       -3.018049   -5.512472    3.692862
     98          1           0       -1.327921   -5.778092    3.139272
     99          1           0        2.634688   -1.359650   -1.585287
    100          1           0        2.504088    0.154490   -2.135030
    101          1           0        4.330659   -0.927773    0.254472
    102          1           0        4.220365    1.909496   -2.891765
    103          1           0        5.613268    2.425188   -2.207557
    104          1           0        5.591392    1.141718   -3.303180
    105          1           0        6.584125    1.486917   -0.314474
    106          1           0        6.168093   -0.053129    0.619332
    107          1           0        7.380235   -1.057991   -1.465303
    108          1           0        7.751659    0.578274   -2.199384
    109          1           0        9.106743    0.990984    0.129425
    110          1           0        8.794988   -0.617029    0.614814
    111          1           0       10.246325   -0.001304   -1.880126
    112          1           0        9.252348   -1.997607   -2.306955
    113          1           0       11.065582   -2.206268   -1.904926
    114          1           0        9.726037   -2.664126   -0.718285
    115          1           0       11.252894    0.626213    0.135912
    116          1           0       11.525840   -1.062535    0.842882
    117          1           0       12.979408   -1.534085   -1.177321
    118          1           0       12.528157    0.355660   -1.666371
    119          1           0       13.808273    0.963939    0.597328
    120          1           0       13.838862   -0.837781    1.050619
    121          1           0       15.404398    0.309694   -1.470606
    122          1           0       15.600914   -2.421257   -0.057134
    123          1           0       14.857712   -1.984433   -1.580939
    124          1           0       16.642864   -1.840719   -1.449215
    125          1           0       16.077979    1.331902    0.712331
    126          1           0       16.310880   -0.228690    1.339517
    127          1           0       18.253439   -0.646827   -0.256571
    128          1           0       18.115464    0.912430   -1.173712
    129          1           0       18.477722    2.098971    1.179364
    130          1           0       18.626872    0.448832    1.871979
    131          1           0       20.697492    0.187141    0.242729
    132          1           0       19.962388    3.066775   -0.729003
    133          1           0       21.364621    1.817443   -1.240180
    134          1           0       19.429227    1.702378   -1.456124
    135          1           0       21.120441    1.222028    2.537824
    136          1           0       22.251062    1.786119    1.266352
    137          1           0       20.859592    2.837624    1.532460
 ---------------------------------------------------------------------

 SCF Done:  E(RCAM-B3LYP) =  -2933.46916362     A.U. after   16 cycles

 Excitation energies and oscillator strengths:

 Excited State   1:      Singlet-A      2.0481 eV  605.35 nm  f=0.2571  <S**2>=0.000
     240 -> 243        0.23021
     241 -> 242        0.65572
 This state for optimization and/or second-order correction.
 Total Energy, E(TD-HF/TD-DFT) =  -2933.39389560
 Copying the excited state density for this state as the 1-particle RhoCI density.

 The electronic state is 1-A.
 Alpha  occ. eigenvalues --  -46.82096 -19.23948 -19.21569 -19.16189 -19.15531
 Alpha  occ. eigenvalues --  -19.14967 -14.38558 -14.35634 -14.34972 -14.34961
 Alpha  occ. eigenvalues --  -10.34373 -10.33999 -10.30002 -10.28132 -10.27588
 Alpha  occ. eigenvalues --  -10.26349 -10.26131 -10.25736 -10.25090 -10.24926
 Alpha  occ. eigenvalues --  -10.24832 -10.24723 -10.24668 -10.24446 -10.24151
 Alpha  occ. eigenvalues --  -10.24019 -10.24005 -10.23868 -10.23731 -10.23677
 Alpha  occ. eigenvalues --  -10.23652 -10.23461 -10.23302 -10.23210 -10.23137
 Alpha  occ. eigenvalues --  -10.23073 -10.22964 -10.22940 -10.22919 -10.22872
 Alpha  occ. eigenvalues --  -10.22839 -10.22673 -10.22577 -10.22558 -10.22267
 Alpha  occ. eigenvalues --  -10.22257 -10.22213 -10.22175 -10.22158 -10.22151
 Alpha  occ. eigenvalues --  -10.22144 -10.21598 -10.21539 -10.21211 -10.21117
 Alpha  occ. eigenvalues --  -10.21063 -10.20950 -10.20882 -10.20746 -10.20712
 Alpha  occ. eigenvalues --  -10.20712 -10.20670 -10.20438 -10.20399 -10.20144
 Alpha  occ. eigenvalues --   -3.10278  -1.85256  -1.84710  -1.84686  -1.16722
 Alpha  occ. eigenvalues --   -1.16097  -1.05900  -1.03320  -1.02758  -1.01716
 Alpha  occ. eigenvalues --   -1.00041  -0.99178  -0.97005  -0.86827  -0.86768
 Alpha  occ. eigenvalues --   -0.86096  -0.85788  -0.85177  -0.84492  -0.83727
 Alpha  occ. eigenvalues --   -0.83629  -0.83592  -0.83371  -0.82182  -0.81919
 Alpha  occ. eigenvalues --   -0.80108  -0.79165  -0.78658  -0.78171  -0.77547
 Alpha  occ. eigenvalues --   -0.77233  -0.76859  -0.75763  -0.74818  -0.73640
 Alpha  occ. eigenvalues --   -0.72642  -0.72076  -0.71905  -0.71668  -0.71063
 Alpha  occ. eigenvalues --   -0.70602  -0.70156  -0.69656  -0.69303  -0.68710
 Alpha  occ. eigenvalues --   -0.67396  -0.66268  -0.65510  -0.64961  -0.63682
 Alpha  occ. eigenvalues --   -0.62618  -0.62363  -0.61613  -0.61125  -0.60521
 Alpha  occ. eigenvalues --   -0.60280  -0.60178  -0.59296  -0.58317  -0.58002
 Alpha  occ. eigenvalues --   -0.57256  -0.57052  -0.56533  -0.56001  -0.55718
 Alpha  occ. eigenvalues --   -0.54827  -0.54755  -0.54245  -0.53963  -0.53635
 Alpha  occ. eigenvalues --   -0.52912  -0.52394  -0.51825  -0.51525  -0.51216
 Alpha  occ. eigenvalues --   -0.51085  -0.50754  -0.50724  -0.50034  -0.49683
 Alpha  occ. eigenvalues --   -0.49068  -0.48790  -0.48689  -0.48335  -0.48098
 Alpha  occ. eigenvalues --   -0.47758  -0.47497  -0.47277  -0.47232  -0.46942
 Alpha  occ. eigenvalues --   -0.46665  -0.46425  -0.46293  -0.46229  -0.46052
 Alpha  occ. eigenvalues --   -0.45933  -0.45681  -0.45383  -0.44829  -0.44611
 Alpha  occ. eigenvalues --   -0.44250  -0.44070  -0.43887  -0.43654  -0.43517
 Alpha  occ. eigenvalues --   -0.43359  -0.43305  -0.43140  -0.42964  -0.42808
 Alpha  occ. eigenvalues --   -0.42333  -0.42165  -0.41957  -0.41753  -0.41675
 Alpha  occ. eigenvalues --   -0.41485  -0.41409  -0.41134  -0.41013  -0.40744
 Alpha  occ. eigenvalues --   -0.40305  -0.40223  -0.40034  -0.39890  -0.39737
 Alpha  occ. eigenvalues --   -0.39619  -0.39303  -0.39141  -0.38962  -0.38851
 Alpha  occ. eigenvalues --   -0.38423  -0.38230  -0.38110  -0.37841  -0.37661
 Alpha  occ. eigenvalues --   -0.37458  -0.37385  -0.37196  -0.37071  -0.37013
 Alpha  occ. eigenvalues --   -0.36929  -0.36796  -0.36606  -0.36312  -0.36132
 Alpha  occ. eigenvalues --   -0.35989  -0.35974  -0.35614  -0.34992  -0.34727
 Alpha  occ. eigenvalues --   -0.34322  -0.34314  -0.34113  -0.33916  -0.33363
 Alpha  occ. eigenvalues --   -0.33062  -0.32999  -0.32924  -0.32774  -0.32679
 Alpha  occ. eigenvalues --   -0.32269  -0.32067  -0.31628  -0.30546  -0.30316
 Alpha  occ. eigenvalues --   -0.30075  -0.29493  -0.29255  -0.28805  -0.27712
 Alpha  occ. eigenvalues --   -0.27084  -0.25852  -0.24919  -0.24197  -0.21624
 Alpha  occ. eigenvalues --   -0.20270
 Alpha virt. eigenvalues --   -0.07314  -0.04199  -0.00102   0.01559   0.03891
 Alpha virt. eigenvalues --    0.04114   0.04197   0.04497   0.05020   0.05222
 Alpha virt. eigenvalues --    0.05871   0.07513   0.08817   0.09481   0.09632

 Mulliken charges:
               1
     1  Mg   0.816571
     2  C    0.094237
     3  C   -0.196226
     4  C   -0.164611
     5  C   -0.142984
     6  N   -0.637809
     7  C    0.291902
     8  C   -0.134629
     9  C   -0.137677
    10  C    0.310195
    11  C   -0.315020
    12  C   -0.145390
    13  C   -0.282412
    14  C    0.591970
    15  O   -0.465285
    16  O   -0.432725
    17  N   -0.724263
    18  C    0.320516
    19  C    0.027570
    20  C   -0.008594
    21  C    0.379305
    22  C   -0.394275
    23  C   -0.079332
    24  C   -0.260673
    25  N   -0.708244
    26  C    0.334747
    27  C    0.018407
    28  C    0.000212
    29  C    0.324057
    30  C   -0.341576
    31  C   -0.225685
    32  C   -0.305955
    33  N   -0.713685
    34  C    0.203421
    35  C    0.035121
    36  C    0.060711
    37  C    0.305523
    38  C   -0.391275
    39  C    0.333748
    40  O   -0.497712
    41  C   -0.314845
    42  C    0.627528
    43  O   -0.507063
    44  O   -0.391679
    45  C   -0.110080
    46  C    0.050137
    47  C   -0.167654
    48  C    0.164040
    49  C   -0.396703
    50  C   -0.219267
    51  C   -0.175105
    52  C   -0.164254
    53  C   -0.076247
    54  C   -0.308456
    55  C   -0.105298
    56  C   -0.179644
    57  C   -0.163113
    58  C   -0.043679
    59  C   -0.308933
    60  C   -0.165729
    61  C   -0.164463
    62  C   -0.146690
    63  C   -0.064348
    64  C   -0.296163
    65  C   -0.296734
    66  H    0.081423
    67  H    0.087241
    68  H    0.091566
    69  H    0.121560
    70  H    0.103995
    71  H    0.116196
    72  H    0.094415
    73  H    0.133708
    74  H    0.122227
    75  H    0.096112
    76  H    0.138328
    77  H    0.137907
    78  H    0.129232
    79  H    0.109691
    80  H    0.119485
    81  H    0.090003
    82  H    0.112635
    83  H    0.081484
    84  H    0.071916
    85  H    0.102602
    86  H    0.081700
    87  H    0.124381
    88  H    0.072037
    89  H    0.103142
    90  H    0.121736
    91  H    0.102399
    92  H    0.102831
    93  H    0.153478
    94  H    0.122206
    95  H    0.158496
    96  H    0.121719
    97  H    0.149349
    98  H    0.114402
    99  H    0.116854
   100  H    0.108093
   101  H    0.076001
   102  H    0.095363
   103  H    0.098529
   104  H    0.139467
   105  H    0.109391
   106  H    0.096252
   107  H    0.105328
   108  H    0.061528
   109  H    0.097104
   110  H    0.095721
   111  H    0.081210
   112  H    0.070826
   113  H    0.097573
   114  H    0.104760
   115  H    0.089531
   116  H    0.046096
   117  H    0.081173
   118  H    0.081841
   119  H    0.077690
   120  H    0.080437
   121  H    0.084180
   122  H    0.088679
   123  H    0.117122
   124  H    0.086492
   125  H    0.087213
   126  H    0.087611
   127  H    0.083386
   128  H    0.069055
   129  H    0.075127
   130  H    0.084272
   131  H    0.070126
   132  H    0.119506
   133  H    0.107901
   134  H    0.065749
   135  H    0.079455
   136  H    0.097309
   137  H    0.098712
 Sum of Mulliken charges =  -0.00000

 Dipole moment (field-independent basis, Debye):
    X=              2.2872    Y=              3.9371    Z=              0.4452  Tot=              4.5750
 Quadrupole moment (field-independent basis, Debye-Ang):
   XX=           -374.2866   YY=           -399.1893   ZZ=           -399.0408
   XY=             -8.7762   XZ=             12.0691   YZ=             -3.4733

 Normal termination of Gaussian 16 at Thu Sep  5 12:59:23 2019.
