 Gaussian 09, Revision D.01,
 Gaussian 09:  ES64L-G09RevD.01 24-Apr-2013

 -------------------------------------
 # td=(NStates=1) CAM-B3LYP/6-31G(d,p)
 -------------------------------------

 --
 TD
 --
 Symbolic Z-matrix:
 Charge =  0 Multiplicity = 1

                         Standard orientation:
 ---------------------------------------------------------------------
 Center     Atomic      Atomic             Coordinates (Angstroms)
 Number     Number       Type             X           Y           Z
 ---------------------------------------------------------------------
      1         12           0       -7.086602    0.539748   -0.012125
      2          6           0       -4.768247   -1.879997    0.586191
      3          6           0       -4.908063    2.838788    1.224875
      4          6           0       -9.430015    2.982020   -0.461641
      5          6           0       -9.407931   -1.857450   -0.910346
      6          7           0       -5.064322    0.455434    0.623586
      7          6           0       -4.255498   -0.682385    0.735114
      8          6           0       -2.824950   -0.369507    1.313620
      9          6           0       -3.056213    1.153173    1.744023
     10          6           0       -4.337153    1.538731    1.152952
     11          6           0       -3.078130    1.264659    3.280199
     12          6           0       -1.889370   -0.627030    0.139684
     13          6           0       -0.320559   -0.357923    0.598527
     14          6           0        0.494723   -0.436494   -0.692628
     15          8           0        0.311750   -0.781452   -1.863726
     16          8           0        1.769415   -0.285629   -0.259134
     17          7           0       -7.148793    2.578339    0.271358
     18          6           0       -6.179482    3.354585    0.785770
     19          6           0       -6.519271    4.733378    0.783153
     20          6           0       -7.796429    4.845750    0.389723
     21          6           0       -8.229937    3.440212    0.070424
     22          6           0       -5.662807    5.836773    1.181037
     23          6           0       -8.755690    5.975754    0.222511
     24          6           0       -8.756837    7.154876    0.809999
     25          7           0       -9.097989    0.592278   -0.675049
     26          6           0       -9.904054    1.681320   -0.724863
     27          6           0      -11.191629    1.308078   -1.189566
     28          6           0      -11.232418   -0.095275   -1.314917
     29          6           0       -9.880301   -0.500406   -0.926417
     30          6           0      -12.327364    2.321107   -1.274105
     31          6           0      -12.360764   -0.992790   -1.641655
     32          6           0      -12.406767   -1.156620   -3.145436
     33          7           0       -7.177425   -1.502886   -0.173645
     34          6           0       -8.209959   -2.321557   -0.534346
     35          6           0       -7.722613   -3.663819   -0.527453
     36          6           0       -6.394622   -3.633296    0.001175
     37          6           0       -6.144001   -2.241657    0.238099
     38          6           0       -8.544998   -4.915689   -0.888989
     39          6           0       -5.122240   -4.352469    0.248235
     40          8           0       -4.937344   -5.548459    0.249475
     41          6           0       -4.083153   -3.269061    0.695208
     42          6           0       -3.473961   -3.594232    1.932529
     43          8           0       -3.763994   -3.130804    3.000541
     44          8           0       -2.670471   -4.614655    1.837165
     45          6           0       -2.156117   -5.125029    3.007885
     46          6           0        2.760534   -0.326956   -1.229149
     47          6           0        4.212614   -0.196251   -0.618464
     48          6           0        5.152041    0.629537   -1.127331
     49          6           0        5.087968    1.317114   -2.364144
     50          6           0        6.500633    0.675171   -0.425803
     51          6           0        7.653198    0.020598   -1.132963
     52          6           0        8.889701    0.016821   -0.293841
     53          6           0       10.151553   -0.515839   -0.986749
     54          6           0        9.982410   -1.936771   -1.401895
     55          6           0       11.430136   -0.267813    0.018813
     56          6           0       12.777671   -0.548384   -0.663670
     57          6           0       13.985830   -0.294683    0.245596
     58          6           0       15.306749   -0.266567   -0.458286
     59          6           0       15.725365   -1.724260   -0.958010
     60          6           0       16.293782    0.326961    0.562521
     61          6           0       17.757387    0.463796   -0.068171
     62          6           0       18.728438    1.168778    0.845787
     63          6           0       20.192118    1.295276    0.259658
     64          6           0       20.304541    2.181835   -1.081624
     65          6           0       21.147366    1.770825    1.350819
     66          1           0       -4.093399    3.645509    1.515124
     67          1           0      -10.133780    3.731590   -0.473318
     68          1           0      -10.182024   -2.578120   -1.150042
     69          1           0       -2.584367   -0.852828    2.180723
     70          1           0       -2.149180    1.984859    1.551467
     71          1           0       -1.833535    0.791711    3.395619
     72          1           0       -3.061210    2.137919    3.819611
     73          1           0       -3.940629    0.691942    3.806288
     74          1           0       -1.895109   -1.693474   -0.249192
     75          1           0       -2.188967    0.108941   -0.719456
     76          1           0       -0.113796    0.674167    0.954115
     77          1           0        0.035284   -1.206135    1.233220
     78          1           0       -6.033951    6.697172    0.703730
     79          1           0       -5.453362    5.916189    2.370510
     80          1           0       -4.583781    5.777623    0.753903
     81          1           0       -9.492013    5.855081   -0.535149
     82          1           0       -9.656798    7.830006    0.691604
     83          1           0       -7.928201    7.377885    1.481540
     84          1           0      -12.295935    3.074366   -2.168717
     85          1           0      -13.292700    1.935656   -1.595127
     86          1           0      -12.566307    2.944211   -0.472708
     87          1           0      -12.196543   -1.998046   -1.001571
     88          1           0      -13.312269   -0.488627   -1.180624
     89          1           0      -13.335031   -1.679072   -3.511523
     90          1           0      -12.554123   -0.239369   -3.534908
     91          1           0      -11.665083   -1.746028   -3.612705
     92          1           0       -8.910900   -5.199235   -2.014360
     93          1           0       -7.980918   -5.725209   -0.718319
     94          1           0       -9.285538   -4.827537   -0.241096
     95          1           0       -3.370950   -3.454522   -0.279275
     96          1           0       -1.526892   -4.272310    3.505397
     97          1           0       -2.921664   -5.706784    3.586094
     98          1           0       -1.645808   -5.942477    2.664380
     99          1           0        2.647777   -1.368093   -1.666904
    100          1           0        2.624942    0.231088   -1.993551
    101          1           0        4.290471   -0.765066    0.254853
    102          1           0        4.066134    1.248308   -2.851103
    103          1           0        5.363935    2.477617   -2.353232
    104          1           0        5.491978    0.787455   -3.053095
    105          1           0        6.739717    1.688771   -0.373692
    106          1           0        6.394556    0.174647    0.579517
    107          1           0        7.372700   -1.058474   -1.274814
    108          1           0        7.628620    0.500494   -2.077512
    109          1           0        8.963793    1.125434    0.062312
    110          1           0        8.939144   -0.674620    0.598996
    111          1           0       10.511766   -0.010958   -1.954033
    112          1           0        9.224428   -1.980011   -2.424712
    113          1           0       10.904163   -2.232691   -1.767416
    114          1           0        9.619546   -2.491914   -0.517781
    115          1           0       11.577259    0.836493    0.243787
    116          1           0       11.287875   -0.903961    1.087914
    117          1           0       12.957333   -1.716818   -0.902301
    118          1           0       12.985185    0.179395   -1.483531
    119          1           0       13.885154    0.723259    0.872778
    120          1           0       14.019553   -1.000848    1.148600
    121          1           0       15.345478    0.606117   -1.236525
    122          1           0       15.830070   -2.384382   -0.179425
    123          1           0       14.949033   -2.198112   -1.527550
    124          1           0       16.696124   -1.813093   -1.445100
    125          1           0       15.955097    1.180036    0.756022
    126          1           0       16.351128   -0.310714    1.626250
    127          1           0       18.141704   -0.450858   -0.350585
    128          1           0       17.527561    1.129231   -1.033148
    129          1           0       18.488219    2.070562    1.251855
    130          1           0       19.056100    0.445109    1.730416
    131          1           0       20.576252    0.425879    0.256855
    132          1           0       19.937733    3.135668   -0.887366
    133          1           0       21.353329    1.952313   -1.420833
    134          1           0       19.806846    1.879080   -1.987577
    135          1           0       21.184810    1.062572    2.188838
    136          1           0       22.201226    1.900311    1.178935
    137          1           0       20.817542    2.710335    1.985827
 ---------------------------------------------------------------------

 SCF Done:  E(RCAM-B3LYP) =  -2932.63679782     A.U. after   15 cycles

 Excitation energies and oscillator strengths:

 Excited State   1:      Singlet-A      2.1318 eV  581.60 nm  f=0.2020  <S**2>=0.000
     240 -> 243        0.25766
     241 -> 242        0.64727
 This state for optimization and/or second-order correction.
 Total Energy, E(TD-HF/TD-KS) =  -2932.55845610
 Copying the excited state density for this state as the 1-particle RhoCI density.

 The electronic state is 1-A.
 Alpha  occ. eigenvalues --  -46.84885 -19.25653 -19.25297 -19.21187 -19.20454
 Alpha  occ. eigenvalues --  -19.19509 -14.41357 -14.39645 -14.39209 -14.39018
 Alpha  occ. eigenvalues --  -10.39265 -10.37733 -10.35650 -10.31443 -10.30661
 Alpha  occ. eigenvalues --  -10.30286 -10.29986 -10.29804 -10.29686 -10.29539
 Alpha  occ. eigenvalues --  -10.29297 -10.29135 -10.29042 -10.28920 -10.28705
 Alpha  occ. eigenvalues --  -10.28608 -10.28354 -10.28199 -10.28153 -10.28104
 Alpha  occ. eigenvalues --  -10.27981 -10.27918 -10.27762 -10.27412 -10.27319
 Alpha  occ. eigenvalues --  -10.27163 -10.26785 -10.26734 -10.26571 -10.26519
 Alpha  occ. eigenvalues --  -10.26498 -10.26491 -10.26453 -10.26373 -10.26369
 Alpha  occ. eigenvalues --  -10.26335 -10.26224 -10.25958 -10.25835 -10.25774
 Alpha  occ. eigenvalues --  -10.25633 -10.25424 -10.25354 -10.25309 -10.25294
 Alpha  occ. eigenvalues --  -10.25200 -10.24886 -10.24747 -10.24621 -10.24566
 Alpha  occ. eigenvalues --  -10.24566 -10.24519 -10.24283 -10.24217 -10.23876
 Alpha  occ. eigenvalues --   -3.13730  -1.88456  -1.87946  -1.87912  -1.20712
 Alpha  occ. eigenvalues --   -1.18550  -1.11475  -1.09430  -1.08210  -1.04525
 Alpha  occ. eigenvalues --   -1.03958  -1.02715  -1.01857  -0.92492  -0.91946
 Alpha  occ. eigenvalues --   -0.90367  -0.90016  -0.89350  -0.89076  -0.88976
 Alpha  occ. eigenvalues --   -0.88252  -0.88057  -0.87431  -0.87066  -0.86136
 Alpha  occ. eigenvalues --   -0.85426  -0.84644  -0.84600  -0.83207  -0.82897
 Alpha  occ. eigenvalues --   -0.82339  -0.81122  -0.80473  -0.80243  -0.78487
 Alpha  occ. eigenvalues --   -0.77886  -0.77451  -0.76689  -0.76470  -0.76243
 Alpha  occ. eigenvalues --   -0.75958  -0.75541  -0.73900  -0.73196  -0.72723
 Alpha  occ. eigenvalues --   -0.71978  -0.70387  -0.69821  -0.68782  -0.68243
 Alpha  occ. eigenvalues --   -0.67311  -0.66640  -0.65178  -0.65017  -0.64473
 Alpha  occ. eigenvalues --   -0.63988  -0.63678  -0.63647  -0.62139  -0.61854
 Alpha  occ. eigenvalues --   -0.61270  -0.60773  -0.60383  -0.60163  -0.59450
 Alpha  occ. eigenvalues --   -0.58821  -0.58176  -0.57995  -0.57743  -0.56905
 Alpha  occ. eigenvalues --   -0.56092  -0.55987  -0.55614  -0.55288  -0.54944
 Alpha  occ. eigenvalues --   -0.54682  -0.54409  -0.54072  -0.53539  -0.53111
 Alpha  occ. eigenvalues --   -0.52913  -0.52725  -0.52178  -0.52112  -0.51965
 Alpha  occ. eigenvalues --   -0.51586  -0.51377  -0.51107  -0.50862  -0.50488
 Alpha  occ. eigenvalues --   -0.50323  -0.50200  -0.50147  -0.49865  -0.49731
 Alpha  occ. eigenvalues --   -0.49488  -0.49324  -0.48899  -0.48884  -0.48592
 Alpha  occ. eigenvalues --   -0.48163  -0.47732  -0.47672  -0.47550  -0.47275
 Alpha  occ. eigenvalues --   -0.47070  -0.46747  -0.46581  -0.45971  -0.45757
 Alpha  occ. eigenvalues --   -0.45537  -0.45356  -0.45106  -0.44851  -0.44741
 Alpha  occ. eigenvalues --   -0.44637  -0.44374  -0.44292  -0.44221  -0.43976
 Alpha  occ. eigenvalues --   -0.43884  -0.43661  -0.43342  -0.43143  -0.43032
 Alpha  occ. eigenvalues --   -0.42971  -0.42546  -0.42543  -0.42414  -0.42294
 Alpha  occ. eigenvalues --   -0.42045  -0.41924  -0.41472  -0.41369  -0.41070
 Alpha  occ. eigenvalues --   -0.40871  -0.40816  -0.40548  -0.40373  -0.40236
 Alpha  occ. eigenvalues --   -0.40028  -0.39852  -0.39543  -0.39517  -0.39151
 Alpha  occ. eigenvalues --   -0.38759  -0.38538  -0.38292  -0.38180  -0.37890
 Alpha  occ. eigenvalues --   -0.37468  -0.37426  -0.37083  -0.36905  -0.36758
 Alpha  occ. eigenvalues --   -0.36477  -0.36360  -0.35913  -0.35760  -0.35481
 Alpha  occ. eigenvalues --   -0.35320  -0.35138  -0.34222  -0.33773  -0.33419
 Alpha  occ. eigenvalues --   -0.33178  -0.32659  -0.32244  -0.30872  -0.30264
 Alpha  occ. eigenvalues --   -0.29208  -0.29034  -0.28650  -0.27680  -0.23213
 Alpha  occ. eigenvalues --   -0.21696
 Alpha virt. eigenvalues --   -0.06372  -0.03231   0.01768   0.03868   0.05664
 Alpha virt. eigenvalues --    0.05913   0.06183   0.06577   0.06891   0.06991
 Alpha virt. eigenvalues --    0.08559   0.09921   0.11060   0.11649   0.11811

 Mulliken charges:
               1
     1  Mg   0.820328
     2  C    0.085102
     3  C   -0.242530
     4  C   -0.167662
     5  C   -0.168119
     6  N   -0.651623
     7  C    0.243052
     8  C   -0.105619
     9  C   -0.168744
    10  C    0.374536
    11  C   -0.271016
    12  C   -0.179327
    13  C   -0.268842
    14  C    0.594589
    15  O   -0.489014
    16  O   -0.466114
    17  N   -0.698674
    18  C    0.347538
    19  C    0.035862
    20  C    0.044890
    21  C    0.253139
    22  C   -0.382715
    23  C   -0.068853
    24  C   -0.246278
    25  N   -0.677861
    26  C    0.306661
    27  C    0.020344
    28  C    0.040122
    29  C    0.267652
    30  C   -0.394932
    31  C   -0.248525
    32  C   -0.303413
    33  N   -0.717014
    34  C    0.327503
    35  C   -0.029959
    36  C    0.001997
    37  C    0.277314
    38  C   -0.354448
    39  C    0.357141
    40  O   -0.448498
    41  C   -0.334389
    42  C    0.637441
    43  O   -0.489129
    44  O   -0.415738
    45  C   -0.076530
    46  C    0.042034
    47  C   -0.144045
    48  C    0.130632
    49  C   -0.374814
    50  C   -0.224253
    51  C   -0.167652
    52  C   -0.146365
    53  C   -0.071651
    54  C   -0.282281
    55  C   -0.161441
    56  C   -0.169994
    57  C   -0.176765
    58  C   -0.048979
    59  C   -0.329608
    60  C   -0.146619
    61  C   -0.166488
    62  C   -0.167801
    63  C   -0.050202
    64  C   -0.316946
    65  C   -0.334099
    66  H    0.066328
    67  H    0.075228
    68  H    0.094354
    69  H    0.132659
    70  H    0.089958
    71  H    0.050003
    72  H    0.129630
    73  H    0.122949
    74  H    0.125889
    75  H    0.121528
    76  H    0.143621
    77  H    0.153637
    78  H    0.125958
    79  H    0.110535
    80  H    0.107533
    81  H    0.102524
    82  H    0.108744
    83  H    0.105966
    84  H    0.096154
    85  H    0.107485
    86  H    0.132799
    87  H    0.088698
    88  H    0.104665
    89  H    0.088050
    90  H    0.127993
    91  H    0.122907
    92  H    0.100465
    93  H    0.149921
    94  H    0.137475
    95  H    0.153282
    96  H    0.113675
    97  H    0.121530
    98  H    0.126439
    99  H    0.098805
   100  H    0.104881
   101  H    0.089147
   102  H    0.099772
   103  H    0.103619
   104  H    0.148388
   105  H    0.096797
   106  H    0.090164
   107  H    0.093308
   108  H    0.099552
   109  H    0.074137
   110  H    0.090017
   111  H    0.072222
   112  H    0.073303
   113  H    0.116195
   114  H    0.096113
   115  H    0.094054
   116  H    0.059300
   117  H    0.082262
   118  H    0.098203
   119  H    0.058162
   120  H    0.085040
   121  H    0.072357
   122  H    0.115049
   123  H    0.103595
   124  H    0.103750
   125  H    0.102320
   126  H    0.053072
   127  H    0.102738
   128  H    0.067653
   129  H    0.097968
   130  H    0.065220
   131  H    0.103860
   132  H    0.113694
   133  H    0.096417
   134  H    0.101824
   135  H    0.096730
   136  H    0.106352
   137  H    0.073068
 Sum of Mulliken charges =   0.00000

 Dipole moment (field-independent basis, Debye):
    X=              0.7533    Y=              4.2744    Z=              0.0463  Tot=              4.3405
 Quadrupole moment (field-independent basis, Debye-Ang):
   XX=           -336.9031   YY=           -387.2053   ZZ=           -399.7381
   XY=            -28.1375   XZ=              8.7039   YZ=              0.5381

 Normal termination of Gaussian 09 at Thu Jul  4 00:13:11 2019.
