 Gaussian 16, Revision A.03,
 Gaussian 16:  ES64L-G16RevA.03 25-Dec-2016

 ----------------------------------------------------------------------
 # td=(NStates=1) iop(3/107=0140000000,3/108=0140000000) CAM-B3LYP/6-31
 G(d,p)
 ----------------------------------------------------------------------

 --
 TD
 --
 Symbolic Z-matrix:
 Charge =  0 Multiplicity = 1

                         Standard orientation:
 ---------------------------------------------------------------------
 Center     Atomic      Atomic             Coordinates (Angstroms)
 Number     Number       Type             X           Y           Z
 ---------------------------------------------------------------------
      1         12           0       -7.073265    0.676573    0.163358
      2          6           0       -4.860696   -1.976357    0.550304
      3          6           0       -4.720198    2.732601    1.191818
      4          6           0       -9.357666    3.232243   -0.390586
      5          6           0       -9.463785   -1.655608   -0.879359
      6          7           0       -5.138841    0.405070    0.735650
      7          6           0       -4.285178   -0.685913    0.835325
      8          6           0       -2.974203   -0.449278    1.363106
      9          6           0       -3.043232    0.987411    1.831976
     10          6           0       -4.394628    1.471137    1.250812
     11          6           0       -3.017694    1.116542    3.321827
     12          6           0       -1.891543   -0.693680    0.242307
     13          6           0       -0.421611   -0.543812    0.669110
     14          6           0        0.428269   -0.737046   -0.475375
     15          8           0        0.144894   -1.058604   -1.624003
     16          8           0        1.796384   -0.493926   -0.206506
     17          7           0       -7.075490    2.640160    0.401231
     18          6           0       -5.967475    3.346318    0.767783
     19          6           0       -6.300431    4.857204    0.717014
     20          6           0       -7.634806    4.893975    0.342250
     21          6           0       -8.083683    3.545381    0.091367
     22          6           0       -5.325747    5.892044    1.012699
     23          6           0       -8.541528    6.085059    0.177289
     24          6           0       -8.385206    7.279250    0.653905
     25          7           0       -9.143644    0.684608   -0.370666
     26          6           0       -9.839625    1.899226   -0.521272
     27          6           0      -11.137222    1.538547   -1.011577
     28          6           0      -11.179547    0.187431   -1.256737
     29          6           0       -9.963064   -0.334448   -0.784996
     30          6           0      -12.279120    2.630257   -1.316731
     31          6           0      -12.245858   -0.571814   -1.819920
     32          6           0      -12.273769   -0.943257   -3.357839
     33          7           0       -7.123037   -1.362612   -0.069856
     34          6           0       -8.277340   -2.123139   -0.522986
     35          6           0       -7.840002   -3.559357   -0.504354
     36          6           0       -6.553520   -3.613252   -0.049510
     37          6           0       -6.140546   -2.188919    0.162731
     38          6           0       -8.778160   -4.540513   -0.803959
     39          6           0       -5.266762   -4.346970    0.192612
     40          8           0       -5.231571   -5.608346    0.163342
     41          6           0       -4.077437   -3.241871    0.492685
     42          6           0       -3.454693   -3.826998    1.798776
     43          8           0       -3.689421   -3.360173    2.892593
     44          8           0       -2.638192   -4.852112    1.564664
     45          6           0       -2.279484   -5.598389    2.761544
     46          6           0        2.808123   -0.791673   -1.286154
     47          6           0        3.994749   -0.585146   -0.644083
     48          6           0        5.143519    0.103138   -1.123783
     49          6           0        4.989137    1.003332   -2.319639
     50          6           0        6.473210    0.203506   -0.368636
     51          6           0        7.693845   -0.214661   -1.225552
     52          6           0        8.879825   -0.241404   -0.245545
     53          6           0       10.230039   -0.574546   -1.004157
     54          6           0       10.133088   -2.028640   -1.532116
     55          6           0       11.470560   -0.402325   -0.109568
     56          6           0       12.785111   -0.505736   -0.757150
     57          6           0       13.850487   -0.098488    0.118197
     58          6           0       15.243256   -0.210917   -0.448251
     59          6           0       15.750221   -1.710935   -0.826675
     60          6           0       16.316462    0.441686    0.474294
     61          6           0       17.704087    0.708837   -0.101320
     62          6           0       18.649370    1.429527    0.806997
     63          6           0       20.084981    1.555133    0.320383
     64          6           0       20.213116    2.568488   -0.798752
     65          6           0       21.063278    1.932899    1.479551
     66          1           0       -4.088741    3.574899    1.377157
     67          1           0      -10.027412    4.027433   -0.714428
     68          1           0      -10.272327   -2.375807   -1.231093
     69          1           0       -2.971329   -1.208333    2.144377
     70          1           0       -2.207677    1.760970    1.443006
     71          1           0       -2.103984    0.685105    3.591818
     72          1           0       -3.011780    2.331238    3.751839
     73          1           0       -3.842621    0.654628    3.989556
     74          1           0       -2.154933   -1.626849   -0.243328
     75          1           0       -1.939347    0.164145   -0.517917
     76          1           0       -0.293860    0.300964    1.127663
     77          1           0       -0.205004   -1.417657    1.465266
     78          1           0       -5.544662    6.835029    0.515465
     79          1           0       -4.967979    6.001960    2.198791
     80          1           0       -4.222208    5.689672    0.752185
     81          1           0       -9.523282    5.866293   -0.294548
     82          1           0       -8.893896    8.217314    0.213321
     83          1           0       -7.478180    7.488555    1.122625
     84          1           0      -11.977871    3.304912   -2.212512
     85          1           0      -13.161041    2.303563   -1.832739
     86          1           0      -12.261889    3.147917   -0.518066
     87          1           0      -12.272684   -1.650685   -1.257756
     88          1           0      -13.126861    0.003982   -1.597860
     89          1           0      -13.222203   -1.394682   -3.364119
     90          1           0      -12.326307   -0.040692   -3.864475
     91          1           0      -11.282084   -1.559994   -3.429705
     92          1           0       -9.134808   -4.353282   -1.674346
     93          1           0       -8.340021   -5.478936   -0.871234
     94          1           0       -9.626871   -4.558724   -0.182546
     95          1           0       -3.520829   -3.530081   -0.477084
     96          1           0       -1.590144   -5.001865    3.307323
     97          1           0       -3.284436   -5.738233    3.385540
     98          1           0       -1.962129   -6.636813    2.186371
     99          1           0        2.655448   -1.901260   -1.663318
    100          1           0        2.611755   -0.184805   -2.260603
    101          1           0        4.233001   -1.238212    0.331396
    102          1           0        3.870633    1.144355   -2.526984
    103          1           0        5.543721    1.880022   -1.920003
    104          1           0        5.509676    0.727594   -3.309557
    105          1           0        6.359754    1.283424   -0.028203
    106          1           0        6.562047   -0.428985    0.551161
    107          1           0        7.285218   -1.118240   -1.631450
    108          1           0        7.751241    0.697165   -1.905851
    109          1           0        8.835798    0.768464    0.122476
    110          1           0        8.703047   -1.104811    0.579843
    111          1           0       10.242929    0.052605   -1.940378
    112          1           0        9.419013   -2.396707   -2.249919
    113          1           0       11.056046   -2.159286   -2.168803
    114          1           0       10.262905   -2.955637   -0.838903
    115          1           0       11.510932    0.623960    0.358101
    116          1           0       11.327839   -1.108073    0.739245
    117          1           0       12.948823   -1.598386   -0.966413
    118          1           0       12.548262    0.185353   -1.576718
    119          1           0       13.854117    0.989899    0.348168
    120          1           0       13.743341   -0.638545    1.086961
    121          1           0       15.303720    0.360759   -1.411355
    122          1           0       15.622025   -2.685232   -0.153076
    123          1           0       15.299480   -2.222211   -1.994963
    124          1           0       16.832143   -1.707432   -1.134898
    125          1           0       16.096342    1.464988    0.781351
    126          1           0       16.508171   -0.052641    1.460406
    127          1           0       18.206924   -0.191717   -0.487867
    128          1           0       17.531570    1.379781   -1.086050
    129          1           0       18.112394    2.384669    1.220832
    130          1           0       18.686418    0.793325    1.827331
    131          1           0       20.395386    0.482602   -0.149966
    132          1           0       19.974681    3.628858   -0.363932
    133          1           0       21.056020    2.615734   -1.354057
    134          1           0       19.657911    2.365338   -1.683105
    135          1           0       21.139846    1.385248    2.324974
    136          1           0       22.007261    2.031431    0.908457
    137          1           0       20.867402    3.080003    1.881102
 ---------------------------------------------------------------------

 SCF Done:  E(RCAM-B3LYP) =  -2933.48012431     A.U. after   15 cycles

 Excitation energies and oscillator strengths:

 Excited State   1:      Singlet-A      2.1104 eV  587.50 nm  f=0.2227  <S**2>=0.000
     240 -> 243        0.24745
     241 -> 242        0.65547
 This state for optimization and/or second-order correction.
 Total Energy, E(TD-HF/TD-DFT) =  -2933.40256970
 Copying the excited state density for this state as the 1-particle RhoCI density.

 The electronic state is 1-A.
 Alpha  occ. eigenvalues --  -46.79099 -19.22502 -19.19946 -19.16937 -19.16621
 Alpha  occ. eigenvalues --  -19.16527 -14.37500 -14.35882 -14.34667 -14.34187
 Alpha  occ. eigenvalues --  -10.35049 -10.34293 -10.31677 -10.28895 -10.27728
 Alpha  occ. eigenvalues --  -10.27048 -10.26228 -10.25788 -10.25541 -10.24770
 Alpha  occ. eigenvalues --  -10.24689 -10.24599 -10.24087 -10.24050 -10.23744
 Alpha  occ. eigenvalues --  -10.23739 -10.23676 -10.23647 -10.23646 -10.23581
 Alpha  occ. eigenvalues --  -10.23496 -10.23444 -10.23370 -10.23318 -10.23309
 Alpha  occ. eigenvalues --  -10.23189 -10.23080 -10.22848 -10.22807 -10.22687
 Alpha  occ. eigenvalues --  -10.22644 -10.22506 -10.22300 -10.22234 -10.22002
 Alpha  occ. eigenvalues --  -10.21956 -10.21759 -10.21711 -10.21708 -10.21602
 Alpha  occ. eigenvalues --  -10.21286 -10.21201 -10.20923 -10.20918 -10.20915
 Alpha  occ. eigenvalues --  -10.20838 -10.20772 -10.20740 -10.20674 -10.20641
 Alpha  occ. eigenvalues --  -10.20538 -10.19985 -10.19684 -10.19586 -10.18610
 Alpha  occ. eigenvalues --   -3.07819  -1.82757  -1.82286  -1.82235  -1.13806
 Alpha  occ. eigenvalues --   -1.10089  -1.04813  -1.03817  -1.01750  -0.99081
 Alpha  occ. eigenvalues --   -0.97600  -0.97434  -0.96110  -0.87321  -0.86544
 Alpha  occ. eigenvalues --   -0.86297  -0.85538  -0.84776  -0.84484  -0.84099
 Alpha  occ. eigenvalues --   -0.83403  -0.83211  -0.82833  -0.82432  -0.82227
 Alpha  occ. eigenvalues --   -0.80969  -0.79893  -0.79015  -0.78689  -0.77675
 Alpha  occ. eigenvalues --   -0.76777  -0.76489  -0.76250  -0.75289  -0.74895
 Alpha  occ. eigenvalues --   -0.73865  -0.72587  -0.71653  -0.71248  -0.70600
 Alpha  occ. eigenvalues --   -0.70353  -0.70119  -0.68920  -0.68346  -0.67454
 Alpha  occ. eigenvalues --   -0.67313  -0.66053  -0.64886  -0.63854  -0.63372
 Alpha  occ. eigenvalues --   -0.62007  -0.61747  -0.61337  -0.60308  -0.60007
 Alpha  occ. eigenvalues --   -0.59706  -0.58860  -0.58394  -0.58247  -0.57973
 Alpha  occ. eigenvalues --   -0.57614  -0.56282  -0.56069  -0.55440  -0.54909
 Alpha  occ. eigenvalues --   -0.54371  -0.54116  -0.53934  -0.53328  -0.53018
 Alpha  occ. eigenvalues --   -0.52608  -0.52566  -0.51653  -0.51587  -0.51312
 Alpha  occ. eigenvalues --   -0.50881  -0.50546  -0.50157  -0.49936  -0.49320
 Alpha  occ. eigenvalues --   -0.49117  -0.48826  -0.48455  -0.48251  -0.48057
 Alpha  occ. eigenvalues --   -0.47898  -0.47694  -0.47691  -0.47497  -0.47160
 Alpha  occ. eigenvalues --   -0.47124  -0.46553  -0.46416  -0.46290  -0.46052
 Alpha  occ. eigenvalues --   -0.45736  -0.45672  -0.45365  -0.45108  -0.44939
 Alpha  occ. eigenvalues --   -0.44440  -0.44220  -0.44153  -0.43785  -0.43383
 Alpha  occ. eigenvalues --   -0.43203  -0.42921  -0.42883  -0.42592  -0.42444
 Alpha  occ. eigenvalues --   -0.42297  -0.42204  -0.41559  -0.41493  -0.41292
 Alpha  occ. eigenvalues --   -0.41169  -0.40937  -0.40459  -0.40270  -0.40222
 Alpha  occ. eigenvalues --   -0.39990  -0.39719  -0.39580  -0.39491  -0.39137
 Alpha  occ. eigenvalues --   -0.39099  -0.39006  -0.38910  -0.38742  -0.38541
 Alpha  occ. eigenvalues --   -0.38351  -0.38320  -0.38138  -0.37970  -0.37899
 Alpha  occ. eigenvalues --   -0.37859  -0.37677  -0.37134  -0.36969  -0.36844
 Alpha  occ. eigenvalues --   -0.36633  -0.36260  -0.36232  -0.36162  -0.35920
 Alpha  occ. eigenvalues --   -0.35819  -0.35781  -0.35342  -0.35259  -0.34875
 Alpha  occ. eigenvalues --   -0.34620  -0.34456  -0.34296  -0.34147  -0.33827
 Alpha  occ. eigenvalues --   -0.33410  -0.33400  -0.33160  -0.33117  -0.32697
 Alpha  occ. eigenvalues --   -0.32501  -0.32209  -0.31557  -0.31448  -0.30695
 Alpha  occ. eigenvalues --   -0.29917  -0.29826  -0.29517  -0.28534  -0.27079
 Alpha  occ. eigenvalues --   -0.26369  -0.25392  -0.25250  -0.24295  -0.21977
 Alpha  occ. eigenvalues --   -0.19792
 Alpha virt. eigenvalues --   -0.06330  -0.04109  -0.00338   0.02173   0.02708
 Alpha virt. eigenvalues --    0.02963   0.03796   0.04767   0.05297   0.05707
 Alpha virt. eigenvalues --    0.06482   0.08445   0.09108   0.09713   0.10056

 Mulliken charges:
               1
     1  Mg   0.801290
     2  C    0.077444
     3  C   -0.176029
     4  C   -0.150440
     5  C   -0.200059
     6  N   -0.648035
     7  C    0.322528
     8  C   -0.158556
     9  C   -0.144970
    10  C    0.374429
    11  C   -0.288740
    12  C   -0.179959
    13  C   -0.247041
    14  C    0.618930
    15  O   -0.472066
    16  O   -0.514668
    17  N   -0.720180
    18  C    0.266616
    19  C    0.054787
    20  C    0.011671
    21  C    0.300457
    22  C   -0.407956
    23  C   -0.031139
    24  C   -0.262764
    25  N   -0.697518
    26  C    0.286387
    27  C   -0.026478
    28  C    0.086398
    29  C    0.285277
    30  C   -0.352451
    31  C   -0.297795
    32  C   -0.288976
    33  N   -0.741026
    34  C    0.326005
    35  C   -0.015475
    36  C    0.077942
    37  C    0.315090
    38  C   -0.379601
    39  C    0.322867
    40  O   -0.474265
    41  C   -0.352527
    42  C    0.629799
    43  O   -0.480086
    44  O   -0.435591
    45  C   -0.087432
    46  C    0.007992
    47  C   -0.086288
    48  C    0.086168
    49  C   -0.353652
    50  C   -0.242006
    51  C   -0.169994
    52  C   -0.150661
    53  C   -0.061098
    54  C   -0.332817
    55  C   -0.172120
    56  C   -0.147642
    57  C   -0.162466
    58  C   -0.039809
    59  C   -0.309441
    60  C   -0.178212
    61  C   -0.165416
    62  C   -0.145277
    63  C   -0.046510
    64  C   -0.301750
    65  C   -0.295685
    66  H    0.062685
    67  H    0.097897
    68  H    0.079601
    69  H    0.147603
    70  H    0.096138
    71  H    0.118620
    72  H    0.068299
    73  H    0.123019
    74  H    0.131388
    75  H    0.114152
    76  H    0.144303
    77  H    0.130340
    78  H    0.127742
    79  H    0.097622
    80  H    0.113919
    81  H    0.078119
    82  H    0.097165
    83  H    0.094889
    84  H    0.097269
    85  H    0.114704
    86  H    0.132386
    87  H    0.070419
    88  H    0.100465
    89  H    0.120401
    90  H    0.116750
    91  H    0.100369
    92  H    0.135998
    93  H    0.137310
    94  H    0.138804
    95  H    0.165039
    96  H    0.143336
    97  H    0.133708
    98  H    0.127232
    99  H    0.118299
   100  H    0.113384
   101  H    0.075959
   102  H    0.109902
   103  H    0.105990
   104  H    0.114685
   105  H    0.101158
   106  H    0.095687
   107  H    0.116137
   108  H    0.093920
   109  H    0.097851
   110  H    0.076835
   111  H    0.080387
   112  H    0.112022
   113  H    0.096863
   114  H    0.088549
   115  H    0.076630
   116  H    0.083078
   117  H    0.102730
   118  H    0.089620
   119  H    0.084782
   120  H    0.090369
   121  H    0.092562
   122  H    0.097809
   123  H    0.037431
   124  H    0.109721
   125  H    0.089983
   126  H    0.087728
   127  H    0.089126
   128  H    0.064184
   129  H    0.076551
   130  H    0.061155
   131  H    0.066982
   132  H    0.089392
   133  H    0.107360
   134  H    0.101598
   135  H    0.115758
   136  H    0.101895
   137  H    0.068829
 Sum of Mulliken charges =  -0.00000

 Dipole moment (field-independent basis, Debye):
    X=              3.1793    Y=              3.1416    Z=             -0.2768  Tot=              4.4781
 Quadrupole moment (field-independent basis, Debye-Ang):
   XX=           -350.6855   YY=           -391.7454   ZZ=           -398.5303
   XY=            -11.3423   XZ=             13.3356   YZ=             -6.4254

 Normal termination of Gaussian 16 at Fri Sep  6 19:32:13 2019.
