 Gaussian 16, Revision A.03,
 Gaussian 16:  ES64L-G16RevA.03 25-Dec-2016

 ----------------------------------------------------------------------
 # td=(NStates=1) iop(3/107=0140000000,3/108=0140000000) CAM-B3LYP/6-31
 G(d,p)
 ----------------------------------------------------------------------

 --
 TD
 --
 Symbolic Z-matrix:
 Charge =  0 Multiplicity = 1

                         Standard orientation:
 ---------------------------------------------------------------------
 Center     Atomic      Atomic             Coordinates (Angstroms)
 Number     Number       Type             X           Y           Z
 ---------------------------------------------------------------------
      1         12           0       -7.123346    0.634551    0.169197
      2          6           0       -4.905745   -2.001852    0.544268
      3          6           0       -4.735116    2.845146    1.266568
      4          6           0       -9.269198    3.233185   -0.471189
      5          6           0       -9.600093   -1.647199   -0.856362
      6          7           0       -5.065330    0.481805    0.707803
      7          6           0       -4.375984   -0.697515    0.796415
      8          6           0       -2.929988   -0.510108    1.187944
      9          6           0       -2.992020    1.031504    1.763228
     10          6           0       -4.278464    1.523417    1.172298
     11          6           0       -2.836913    1.231804    3.286824
     12          6           0       -1.856450   -0.708492    0.115647
     13          6           0       -0.464050   -0.425230    0.613835
     14          6           0        0.510640   -0.787090   -0.553300
     15          8           0        0.224504   -1.197788   -1.687257
     16          8           0        1.765336   -0.499220   -0.189054
     17          7           0       -6.984101    2.689596    0.395442
     18          6           0       -5.945773    3.409806    0.825564
     19          6           0       -6.300919    4.757053    0.966480
     20          6           0       -7.613303    4.882422    0.320187
     21          6           0       -8.029239    3.496871   -0.034686
     22          6           0       -5.353964    5.856556    1.336949
     23          6           0       -8.364451    6.135090    0.034451
     24          6           0       -8.078679    7.373433    0.608547
     25          7           0       -9.069214    0.716060   -0.535647
     26          6           0       -9.767725    1.902870   -0.715424
     27          6           0      -11.134743    1.560535   -1.186377
     28          6           0      -11.196224    0.215589   -1.372255
     29          6           0       -9.948541   -0.262845   -0.953987
     30          6           0      -12.176970    2.522096   -1.504321
     31          6           0      -12.378038   -0.664421   -1.841943
     32          6           0      -12.366580   -1.063935   -3.340870
     33          7           0       -7.271160   -1.357582   -0.087716
     34          6           0       -8.275284   -2.179214   -0.607986
     35          6           0       -7.860080   -3.595714   -0.507637
     36          6           0       -6.527033   -3.621467   -0.081463
     37          6           0       -6.213720   -2.188148    0.211675
     38          6           0       -8.806538   -4.817293   -0.760062
     39          6           0       -5.322238   -4.370700    0.265258
     40          8           0       -5.223797   -5.609870    0.205218
     41          6           0       -4.310115   -3.369554    0.603164
     42          6           0       -3.636225   -3.717437    1.894192
     43          8           0       -3.994681   -3.261911    2.983467
     44          8           0       -2.760711   -4.734775    1.758305
     45          6           0       -2.264391   -5.120389    2.996717
     46          6           0        2.789879   -0.856901   -1.182929
     47          6           0        4.112173   -0.608892   -0.514055
     48          6           0        5.051795    0.275708   -0.977584
     49          6           0        5.010668    1.127476   -2.189371
     50          6           0        6.459928    0.257412   -0.259873
     51          6           0        7.614379   -0.224892   -0.997082
     52          6           0        8.914901   -0.211811   -0.110819
     53          6           0       10.169082   -0.625624   -0.928165
     54          6           0       10.158527   -2.131931   -1.169441
     55          6           0       11.411843   -0.210059   -0.095983
     56          6           0       12.728870   -0.445064   -0.870635
     57          6           0       13.905217   -0.009350   -0.100537
     58          6           0       15.384628   -0.123009   -0.652294
     59          6           0       15.639506   -1.599433   -1.094930
     60          6           0       16.457478    0.356022    0.290306
     61          6           0       17.782052    0.539792   -0.277536
     62          6           0       18.708598    1.295536    0.738724
     63          6           0       20.220502    1.400303    0.356823
     64          6           0       20.365755    2.173298   -0.947618
     65          6           0       21.009563    2.034061    1.511627
     66          1           0       -4.207045    3.410602    1.797731
     67          1           0      -10.017458    4.029010   -0.758073
     68          1           0      -10.486055   -2.275656   -1.254125
     69          1           0       -2.541365   -1.332454    2.109739
     70          1           0       -2.309940    1.767803    1.327045
     71          1           0       -1.915908    0.672090    3.713166
     72          1           0       -2.949388    2.174556    3.525264
     73          1           0       -3.683430    0.548460    3.686710
     74          1           0       -1.994851   -1.676134   -0.482043
     75          1           0       -1.906371    0.032069   -0.632238
     76          1           0       -0.253631    0.577818    1.020006
     77          1           0       -0.141854   -1.235133    1.244218
     78          1           0       -5.397952    6.765302    0.809750
     79          1           0       -5.664797    6.188701    2.339854
     80          1           0       -4.381476    5.695457    1.241970
     81          1           0       -9.204232    5.941766   -0.634428
     82          1           0       -8.545600    8.123032    0.383958
     83          1           0       -7.246758    7.484757    1.276757
     84          1           0      -12.022086    3.007213   -2.427488
     85          1           0      -13.274544    2.190224   -1.743403
     86          1           0      -12.289961    3.267169   -0.675432
     87          1           0      -12.373507   -1.515676   -1.213826
     88          1           0      -13.306672    0.028984   -1.666599
     89          1           0      -13.191489   -1.788352   -3.618727
     90          1           0      -12.251312   -0.102790   -3.717157
     91          1           0      -11.349095   -1.607367   -3.554265
     92          1           0       -9.173554   -4.604205   -1.736031
     93          1           0       -8.681160   -5.877041   -0.658066
     94          1           0       -9.796370   -4.513277   -0.202463
     95          1           0       -3.568388   -3.350747   -0.217725
     96          1           0       -1.527544   -4.399906    3.386710
     97          1           0       -3.158914   -5.146666    3.767803
     98          1           0       -2.041027   -5.999296    2.889759
     99          1           0        2.630982   -1.918370   -1.477538
    100          1           0        2.683023   -0.126605   -1.944830
    101          1           0        4.281576   -1.259899    0.243440
    102          1           0        4.049391    1.190385   -2.511501
    103          1           0        5.251582    2.070888   -2.012592
    104          1           0        5.585711    0.757594   -2.949301
    105          1           0        6.540331    1.465083   -0.108881
    106          1           0        6.254177   -0.189410    0.751534
    107          1           0        7.406589   -1.359415   -1.252322
    108          1           0        7.655740    0.209627   -1.980958
    109          1           0        9.106233    0.824061    0.407231
    110          1           0        8.608764   -1.120520    0.594637
    111          1           0       10.199431   -0.145218   -1.848174
    112          1           0        9.383452   -2.684650   -2.000423
    113          1           0       11.195124   -2.382196   -1.684328
    114          1           0        9.896082   -2.890755   -0.311544
    115          1           0       11.413590    0.731941    0.441379
    116          1           0       11.390895   -0.848361    0.676229
    117          1           0       12.872865   -1.417615   -1.138472
    118          1           0       12.661641    0.151506   -1.798736
    119          1           0       13.891667    1.233745    0.137051
    120          1           0       14.004096   -0.294279    0.915435
    121          1           0       15.375570    0.619838   -1.593750
    122          1           0       15.524306   -2.426133   -0.216273
    123          1           0       14.781662   -1.903371   -1.697657
    124          1           0       16.766202   -1.633405   -1.407217
    125          1           0       16.174702    1.354932    0.744853
    126          1           0       16.348576   -0.631422    1.148493
    127          1           0       18.004617   -0.520461   -0.375529
    128          1           0       17.960506    0.845059   -1.315454
    129          1           0       18.216645    2.138969    0.900913
    130          1           0       18.524465    0.800134    1.911417
    131          1           0       20.297414    0.332845    0.364247
    132          1           0       19.571119    3.028159   -0.630605
    133          1           0       21.302783    2.411470   -1.351077
    134          1           0       19.792668    1.745681   -1.730693
    135          1           0       20.762263    1.522632    2.440884
    136          1           0       22.080624    2.066369    1.348224
    137          1           0       20.783065    3.027118    1.722726
 ---------------------------------------------------------------------

 SCF Done:  E(RCAM-B3LYP) =  -2933.44257608     A.U. after   16 cycles

 Excitation energies and oscillator strengths:

 Excited State   1:      Singlet-A      2.0046 eV  618.49 nm  f=0.2423  <S**2>=0.000
     240 -> 243       -0.25090
     241 -> 242        0.64998
 This state for optimization and/or second-order correction.
 Total Energy, E(TD-HF/TD-DFT) =  -2933.36890706
 Copying the excited state density for this state as the 1-particle RhoCI density.

 The electronic state is 1-A.
 Alpha  occ. eigenvalues --  -46.79944 -19.22767 -19.21608 -19.16818 -19.16212
 Alpha  occ. eigenvalues --  -19.15452 -14.37991 -14.35451 -14.35162 -14.34777
 Alpha  occ. eigenvalues --  -10.34741 -10.34247 -10.30126 -10.27088 -10.26911
 Alpha  occ. eigenvalues --  -10.26395 -10.26058 -10.25450 -10.25318 -10.24913
 Alpha  occ. eigenvalues --  -10.24896 -10.24776 -10.24564 -10.24250 -10.24218
 Alpha  occ. eigenvalues --  -10.24075 -10.23938 -10.23789 -10.23665 -10.23653
 Alpha  occ. eigenvalues --  -10.23475 -10.23422 -10.23406 -10.23158 -10.22999
 Alpha  occ. eigenvalues --  -10.22653 -10.22641 -10.22556 -10.22545 -10.22482
 Alpha  occ. eigenvalues --  -10.22233 -10.22166 -10.22147 -10.22121 -10.22117
 Alpha  occ. eigenvalues --  -10.21943 -10.21849 -10.21846 -10.21814 -10.21696
 Alpha  occ. eigenvalues --  -10.21588 -10.21409 -10.21348 -10.21152 -10.21059
 Alpha  occ. eigenvalues --  -10.20981 -10.20720 -10.20612 -10.20472 -10.20168
 Alpha  occ. eigenvalues --  -10.20157 -10.20108 -10.20005 -10.19349 -10.19179
 Alpha  occ. eigenvalues --   -3.08461  -1.83410  -1.82967  -1.82828  -1.14387
 Alpha  occ. eigenvalues --   -1.12387  -1.04418  -1.04130  -1.02712  -0.98755
 Alpha  occ. eigenvalues --   -0.97840  -0.97471  -0.96518  -0.88891  -0.86395
 Alpha  occ. eigenvalues --   -0.85866  -0.85117  -0.84709  -0.84445  -0.83401
 Alpha  occ. eigenvalues --   -0.83197  -0.82560  -0.82388  -0.81288  -0.81181
 Alpha  occ. eigenvalues --   -0.80627  -0.79692  -0.79090  -0.78604  -0.78152
 Alpha  occ. eigenvalues --   -0.77677  -0.76824  -0.75841  -0.75776  -0.73927
 Alpha  occ. eigenvalues --   -0.73694  -0.72764  -0.72306  -0.71863  -0.71525
 Alpha  occ. eigenvalues --   -0.70764  -0.69883  -0.69556  -0.68718  -0.67981
 Alpha  occ. eigenvalues --   -0.67446  -0.66226  -0.65456  -0.64867  -0.64460
 Alpha  occ. eigenvalues --   -0.63816  -0.61978  -0.61152  -0.61029  -0.60652
 Alpha  occ. eigenvalues --   -0.60279  -0.59737  -0.59597  -0.58379  -0.58330
 Alpha  occ. eigenvalues --   -0.57116  -0.56578  -0.56390  -0.56179  -0.55389
 Alpha  occ. eigenvalues --   -0.54869  -0.54601  -0.54295  -0.53751  -0.53225
 Alpha  occ. eigenvalues --   -0.52132  -0.52080  -0.51613  -0.51325  -0.50997
 Alpha  occ. eigenvalues --   -0.50937  -0.50310  -0.50012  -0.49949  -0.49753
 Alpha  occ. eigenvalues --   -0.49428  -0.48948  -0.48838  -0.48610  -0.48393
 Alpha  occ. eigenvalues --   -0.48142  -0.47984  -0.47879  -0.47657  -0.47184
 Alpha  occ. eigenvalues --   -0.46862  -0.46601  -0.46563  -0.46438  -0.46168
 Alpha  occ. eigenvalues --   -0.46026  -0.45873  -0.45768  -0.45125  -0.44865
 Alpha  occ. eigenvalues --   -0.44807  -0.44642  -0.44341  -0.44261  -0.44122
 Alpha  occ. eigenvalues --   -0.43807  -0.43277  -0.43067  -0.42992  -0.42748
 Alpha  occ. eigenvalues --   -0.42667  -0.42404  -0.42148  -0.41869  -0.41703
 Alpha  occ. eigenvalues --   -0.41590  -0.41475  -0.41423  -0.41057  -0.40903
 Alpha  occ. eigenvalues --   -0.40552  -0.40395  -0.40251  -0.39857  -0.39692
 Alpha  occ. eigenvalues --   -0.39380  -0.39058  -0.38980  -0.38850  -0.38633
 Alpha  occ. eigenvalues --   -0.38587  -0.38430  -0.38219  -0.38117  -0.37963
 Alpha  occ. eigenvalues --   -0.37657  -0.37545  -0.37398  -0.37364  -0.37132
 Alpha  occ. eigenvalues --   -0.36969  -0.36904  -0.36767  -0.36408  -0.36307
 Alpha  occ. eigenvalues --   -0.35542  -0.35500  -0.35259  -0.34915  -0.34763
 Alpha  occ. eigenvalues --   -0.34573  -0.34196  -0.34071  -0.33881  -0.33403
 Alpha  occ. eigenvalues --   -0.32957  -0.32790  -0.32674  -0.32474  -0.32187
 Alpha  occ. eigenvalues --   -0.32008  -0.31741  -0.31524  -0.30517  -0.30425
 Alpha  occ. eigenvalues --   -0.30034  -0.29947  -0.29703  -0.27995  -0.27070
 Alpha  occ. eigenvalues --   -0.26898  -0.26635  -0.25848  -0.23737  -0.21658
 Alpha  occ. eigenvalues --   -0.19757
 Alpha virt. eigenvalues --   -0.06915  -0.04337  -0.00863   0.01880   0.03380
 Alpha virt. eigenvalues --    0.03665   0.04370   0.04806   0.05216   0.05465
 Alpha virt. eigenvalues --    0.06202   0.08372   0.09070   0.09226   0.09751

 Mulliken charges:
               1
     1  Mg   0.811679
     2  C    0.095614
     3  C   -0.156016
     4  C   -0.158620
     5  C   -0.174613
     6  N   -0.637317
     7  C    0.331014
     8  C   -0.158674
     9  C   -0.162269
    10  C    0.325400
    11  C   -0.294084
    12  C   -0.166777
    13  C   -0.251816
    14  C    0.583360
    15  O   -0.492325
    16  O   -0.468932
    17  N   -0.722711
    18  C    0.333266
    19  C    0.003876
    20  C   -0.037097
    21  C    0.349959
    22  C   -0.382602
    23  C   -0.073269
    24  C   -0.211681
    25  N   -0.685231
    26  C    0.281254
    27  C    0.020429
    28  C    0.053438
    29  C    0.274907
    30  C   -0.410099
    31  C   -0.243993
    32  C   -0.295012
    33  N   -0.706948
    34  C    0.260076
    35  C   -0.018911
    36  C    0.042941
    37  C    0.256073
    38  C   -0.368559
    39  C    0.376057
    40  O   -0.482476
    41  C   -0.307891
    42  C    0.619610
    43  O   -0.481404
    44  O   -0.423019
    45  C   -0.069392
    46  C    0.006510
    47  C   -0.110850
    48  C    0.082617
    49  C   -0.358643
    50  C   -0.199217
    51  C   -0.166384
    52  C   -0.162662
    53  C   -0.041952
    54  C   -0.309778
    55  C   -0.180154
    56  C   -0.176159
    57  C   -0.166219
    58  C   -0.048633
    59  C   -0.308277
    60  C   -0.150836
    61  C   -0.171472
    62  C   -0.192632
    63  C   -0.046872
    64  C   -0.306857
    65  C   -0.312641
    66  H    0.040090
    67  H    0.098247
    68  H    0.079360
    69  H    0.079962
    70  H    0.102983
    71  H    0.106401
    72  H    0.120880
    73  H    0.118015
    74  H    0.120423
    75  H    0.124385
    76  H    0.142738
    77  H    0.134790
    78  H    0.127389
    79  H    0.121009
    80  H    0.116471
    81  H    0.079626
    82  H    0.087623
    83  H    0.092287
    84  H    0.135525
    85  H    0.102621
    86  H    0.116276
    87  H    0.110713
    88  H    0.091615
    89  H    0.111269
    90  H    0.122582
    91  H    0.093685
    92  H    0.132525
    93  H    0.150160
    94  H    0.108718
    95  H    0.170203
    96  H    0.115152
    97  H    0.121223
    98  H    0.118996
    99  H    0.131825
   100  H    0.118728
   101  H    0.083859
   102  H    0.113514
   103  H    0.126311
   104  H    0.135560
   105  H    0.061978
   106  H    0.093621
   107  H    0.081981
   108  H    0.096080
   109  H    0.084407
   110  H    0.086981
   111  H    0.098694
   112  H    0.071980
   113  H    0.091063
   114  H    0.101428
   115  H    0.095321
   116  H    0.110216
   117  H    0.105756
   118  H    0.094041
   119  H    0.035653
   120  H    0.095802
   121  H    0.060795
   122  H    0.075319
   123  H    0.109761
   124  H    0.098375
   125  H    0.077156
   126  H    0.050913
   127  H    0.099006
   128  H    0.102242
   129  H    0.105483
   130  H    0.047652
   131  H    0.099344
   132  H    0.083995
   133  H    0.112615
   134  H    0.107993
   135  H    0.099123
   136  H    0.097736
   137  H    0.107647
 Sum of Mulliken charges =  -0.00000

 Dipole moment (field-independent basis, Debye):
    X=              2.8249    Y=              4.4522    Z=             -0.3827  Tot=              5.2867
 Quadrupole moment (field-independent basis, Debye-Ang):
   XX=           -349.0936   YY=           -395.8749   ZZ=           -398.6810
   XY=            -19.6410   XZ=              8.0652   YZ=             -2.1546

 Normal termination of Gaussian 16 at Fri Sep 13 10:21:01 2019.
