 Gaussian 09, Revision D.01,
 Gaussian 09:  ES64L-G09RevD.01 24-Apr-2013

 -------------------------------------
 # td=(NStates=1) CAM-B3LYP/6-31G(d,p)
 -------------------------------------

 --
 TD
 --
 Symbolic Z-matrix:
 Charge =  0 Multiplicity = 1

                         Standard orientation:
 ---------------------------------------------------------------------
 Center     Atomic      Atomic             Coordinates (Angstroms)
 Number     Number       Type             X           Y           Z
 ---------------------------------------------------------------------
      1         12           0       -7.140380    0.523862    0.204694
      2          6           0       -4.779287   -1.955107    0.462483
      3          6           0       -4.802235    2.803199    1.268395
      4          6           0       -9.379393    3.121067   -0.426979
      5          6           0       -9.514196   -1.709924   -1.011114
      6          7           0       -5.113948    0.378190    0.726066
      7          6           0       -4.339139   -0.719772    0.743410
      8          6           0       -2.923871   -0.441691    1.254552
      9          6           0       -3.036822    1.034572    1.791947
     10          6           0       -4.402771    1.524354    1.164115
     11          6           0       -2.988395    1.179041    3.304327
     12          6           0       -1.797757   -0.612472    0.153348
     13          6           0       -0.350241   -0.653526    0.500912
     14          6           0        0.563419   -0.859133   -0.525927
     15          8           0        0.208254   -1.119026   -1.700590
     16          8           0        1.833638   -0.565605   -0.150088
     17          7           0       -7.178532    2.567124    0.336525
     18          6           0       -6.141502    3.301556    0.815427
     19          6           0       -6.417377    4.788250    0.760356
     20          6           0       -7.753053    4.834201    0.374314
     21          6           0       -8.101187    3.467614    0.070874
     22          6           0       -5.482747    5.851719    1.315629
     23          6           0       -8.470768    6.095875    0.151784
     24          6           0       -8.434093    7.247752    0.828168
     25          7           0       -9.156829    0.677835   -0.534395
     26          6           0       -9.856943    1.811420   -0.662699
     27          6           0      -11.143510    1.449233   -1.210315
     28          6           0      -11.242106    0.113550   -1.257671
     29          6           0       -9.879397   -0.387626   -0.902005
     30          6           0      -12.164679    2.528552   -1.423547
     31          6           0      -12.387132   -0.659197   -1.859417
     32          6           0      -12.341914   -0.997554   -3.353180
     33          7           0       -7.190423   -1.451146   -0.156069
     34          6           0       -8.267009   -2.271981   -0.582270
     35          6           0       -7.836249   -3.589094   -0.521249
     36          6           0       -6.498008   -3.561989   -0.109226
     37          6           0       -6.129113   -2.221557    0.108551
     38          6           0       -8.717174   -4.829494   -0.859418
     39          6           0       -5.370851   -4.353445    0.189162
     40          8           0       -5.130895   -5.539029    0.202060
     41          6           0       -4.139691   -3.282635    0.509783
     42          6           0       -3.462460   -3.695291    1.828656
     43          8           0       -3.658541   -3.183527    2.981723
     44          8           0       -2.606633   -4.724423    1.662827
     45          6           0       -2.123538   -5.349902    2.953397
     46          6           0        2.788040   -0.789017   -1.259804
     47          6           0        4.094425   -0.453673   -0.599062
     48          6           0        5.077083    0.390494   -0.943983
     49          6           0        4.947857    1.270964   -2.216833
     50          6           0        6.344944    0.441439   -0.195242
     51          6           0        7.601524    0.038493   -0.947813
     52          6           0        8.842730   -0.021180   -0.116216
     53          6           0       10.219797   -0.404211   -0.871408
     54          6           0       10.098123   -1.943074   -1.218564
     55          6           0       11.432491   -0.102996   -0.013623
     56          6           0       12.717185   -0.256871   -0.706182
     57          6           0       13.906850    0.059085    0.166372
     58          6           0       15.372502   -0.057168   -0.521404
     59          6           0       15.604835   -1.602345   -0.789818
     60          6           0       16.366895    0.538421    0.444887
     61          6           0       17.727359    0.443752   -0.186137
     62          6           0       18.785372    1.206700    0.769016
     63          6           0       20.337979    1.229969    0.142481
     64          6           0       20.267309    1.892118   -1.171583
     65          6           0       21.198473    1.814073    1.137853
     66          1           0       -4.032481    3.639179    1.453319
     67          1           0       -9.957004    4.003138   -0.606535
     68          1           0      -10.378181   -2.456263   -1.146382
     69          1           0       -2.667242   -1.172233    1.979769
     70          1           0       -2.439827    1.946985    1.566918
     71          1           0       -2.159445    0.751417    3.749926
     72          1           0       -3.178267    2.228798    3.508198
     73          1           0       -3.823250    0.724001    3.765602
     74          1           0       -1.743457   -1.721499   -0.185634
     75          1           0       -1.853313    0.054672   -0.832956
     76          1           0       -0.222703    0.332413    0.950145
     77          1           0       -0.191100   -1.346347    1.468643
     78          1           0       -5.459402    6.821610    0.603509
     79          1           0       -6.022758    6.311528    2.225771
     80          1           0       -4.462054    5.422204    1.381663
     81          1           0       -9.402646    6.172135   -0.629328
     82          1           0       -9.120598    8.127174    0.445378
     83          1           0       -7.507196    7.398349    1.565058
     84          1           0      -11.977411    3.145943   -2.205110
     85          1           0      -13.148600    2.002726   -1.858435
     86          1           0      -12.325545    3.040362   -0.779218
     87          1           0      -12.715452   -1.444476   -1.299091
     88          1           0      -13.324491   -0.088678   -1.645288
     89          1           0      -13.249400   -1.378429   -3.781868
     90          1           0      -12.041418   -0.047676   -3.749775
     91          1           0      -11.515111   -1.612636   -3.733059
     92          1           0       -9.242385   -5.033853   -1.856664
     93          1           0       -8.135636   -5.594332   -0.422955
     94          1           0       -9.575676   -4.721082   -0.111844
     95          1           0       -3.293357   -3.562250   -0.235490
     96          1           0       -1.606396   -4.503987    3.661740
     97          1           0       -2.855495   -5.924360    3.297704
     98          1           0       -1.048180   -5.859888    2.728296
     99          1           0        2.672119   -1.896746   -1.277725
    100          1           0        2.498843   -0.220583   -2.101465
    101          1           0        4.311632   -1.083586    0.132706
    102          1           0        3.916033    1.111339   -2.646333
    103          1           0        5.153148    2.454632   -1.795482
    104          1           0        5.802679    0.813356   -2.967674
    105          1           0        6.659942    1.638487    0.267959
    106          1           0        6.185868   -0.196289    0.655494
    107          1           0        7.478001   -1.012106   -1.455740
    108          1           0        7.743443    0.530987   -1.835546
    109          1           0        8.788994    1.002444    0.285745
    110          1           0        8.685291   -0.536718    0.888867
    111          1           0       10.124095    0.057287   -1.846776
    112          1           0        9.328800   -2.189451   -1.834258
    113          1           0       10.954368   -2.409013   -1.745818
    114          1           0       10.098977   -2.531998   -0.266153
    115          1           0       11.291420    0.825025    0.335956
    116          1           0       11.225195   -0.742307    0.845317
    117          1           0       12.879842   -1.182499   -0.973744
    118          1           0       12.805826    0.357524   -1.751269
    119          1           0       13.855205    1.118511    0.520435
    120          1           0       13.789179   -0.572579    1.137795
    121          1           0       15.141440    0.396824   -1.536223
    122          1           0       15.776092   -2.113003    0.168176
    123          1           0       14.783898   -1.975667   -1.448175
    124          1           0       16.562740   -1.582565   -1.462537
    125          1           0       16.083713    1.659470    0.771362
    126          1           0       16.289410   -0.333288    1.297879
    127          1           0       18.111439   -0.558468   -0.182371
    128          1           0       17.696363    1.021598   -1.063141
    129          1           0       18.693373    2.234160    0.958519
    130          1           0       18.830548    0.616302    1.713155
    131          1           0       20.467331    0.193515   -0.029985
    132          1           0       19.624592    2.856012   -1.410136
    133          1           0       21.340136    2.260291   -1.527939
    134          1           0       19.840154    1.437559   -2.004646
    135          1           0       21.011633    1.563766    2.456224
    136          1           0       22.287313    1.684226    0.895449
    137          1           0       21.159024    3.038219    1.046357
 ---------------------------------------------------------------------

 SCF Done:  E(RCAM-B3LYP) =  -2932.56211004     A.U. after   15 cycles

 Excitation energies and oscillator strengths:

 Excited State   1:      Singlet-A      2.0001 eV  619.88 nm  f=0.3477  <S**2>=0.000
     240 -> 242       -0.12222
     240 -> 243        0.19810
     241 -> 242        0.66040
 This state for optimization and/or second-order correction.
 Total Energy, E(TD-HF/TD-KS) =  -2932.48860605
 Copying the excited state density for this state as the 1-particle RhoCI density.

 The electronic state is 1-A.
 Alpha  occ. eigenvalues --  -46.85001 -19.26052 -19.25831 -19.20260 -19.19498
 Alpha  occ. eigenvalues --  -19.19101 -14.41530 -14.41183 -14.39850 -14.38834
 Alpha  occ. eigenvalues --  -10.38646 -10.38484 -10.34343 -10.32637 -10.32100
 Alpha  occ. eigenvalues --  -10.31845 -10.31150 -10.30210 -10.30188 -10.29401
 Alpha  occ. eigenvalues --  -10.29233 -10.29189 -10.29120 -10.29066 -10.28950
 Alpha  occ. eigenvalues --  -10.28769 -10.28609 -10.28506 -10.28448 -10.28212
 Alpha  occ. eigenvalues --  -10.28188 -10.28139 -10.27841 -10.27794 -10.27781
 Alpha  occ. eigenvalues --  -10.27740 -10.27719 -10.27530 -10.27405 -10.27078
 Alpha  occ. eigenvalues --  -10.27024 -10.26907 -10.26644 -10.26576 -10.26460
 Alpha  occ. eigenvalues --  -10.26257 -10.25874 -10.25867 -10.25793 -10.25726
 Alpha  occ. eigenvalues --  -10.25631 -10.25580 -10.25420 -10.25420 -10.25038
 Alpha  occ. eigenvalues --  -10.24814 -10.24802 -10.24780 -10.24757 -10.24521
 Alpha  occ. eigenvalues --  -10.24288 -10.23927 -10.23918 -10.23728 -10.23497
 Alpha  occ. eigenvalues --   -3.13966  -1.88677  -1.88186  -1.88152  -1.16981
 Alpha  occ. eigenvalues --   -1.15425  -1.10460  -1.07333  -1.06304  -1.04724
 Alpha  occ. eigenvalues --   -1.04613  -1.03695  -1.02307  -0.92119  -0.91615
 Alpha  occ. eigenvalues --   -0.90677  -0.90079  -0.89880  -0.89502  -0.89108
 Alpha  occ. eigenvalues --   -0.88812  -0.88195  -0.88107  -0.86798  -0.86527
 Alpha  occ. eigenvalues --   -0.85861  -0.84562  -0.83839  -0.83384  -0.83142
 Alpha  occ. eigenvalues --   -0.81573  -0.80952  -0.80396  -0.79800  -0.79003
 Alpha  occ. eigenvalues --   -0.78459  -0.78326  -0.75921  -0.75574  -0.75488
 Alpha  occ. eigenvalues --   -0.75444  -0.75153  -0.73815  -0.73449  -0.72776
 Alpha  occ. eigenvalues --   -0.71813  -0.70792  -0.69960  -0.68905  -0.67972
 Alpha  occ. eigenvalues --   -0.66874  -0.66423  -0.65566  -0.65069  -0.64503
 Alpha  occ. eigenvalues --   -0.64317  -0.63856  -0.63014  -0.61903  -0.61797
 Alpha  occ. eigenvalues --   -0.61413  -0.60714  -0.60126  -0.59940  -0.59078
 Alpha  occ. eigenvalues --   -0.58895  -0.58324  -0.57279  -0.57239  -0.56697
 Alpha  occ. eigenvalues --   -0.55870  -0.55588  -0.55435  -0.55079  -0.54998
 Alpha  occ. eigenvalues --   -0.54590  -0.54179  -0.53545  -0.53334  -0.52785
 Alpha  occ. eigenvalues --   -0.52508  -0.52316  -0.52278  -0.52190  -0.51642
 Alpha  occ. eigenvalues --   -0.51245  -0.51172  -0.51109  -0.50740  -0.50563
 Alpha  occ. eigenvalues --   -0.50523  -0.50142  -0.49922  -0.49821  -0.49733
 Alpha  occ. eigenvalues --   -0.49533  -0.49156  -0.48860  -0.48765  -0.48433
 Alpha  occ. eigenvalues --   -0.48176  -0.48066  -0.47664  -0.47573  -0.47235
 Alpha  occ. eigenvalues --   -0.47122  -0.46920  -0.46804  -0.46187  -0.45912
 Alpha  occ. eigenvalues --   -0.45614  -0.45400  -0.45120  -0.44917  -0.44772
 Alpha  occ. eigenvalues --   -0.44678  -0.44479  -0.44191  -0.44095  -0.43885
 Alpha  occ. eigenvalues --   -0.43867  -0.43673  -0.43482  -0.43273  -0.43132
 Alpha  occ. eigenvalues --   -0.43104  -0.42738  -0.42447  -0.42296  -0.42230
 Alpha  occ. eigenvalues --   -0.41909  -0.41709  -0.41511  -0.41347  -0.41191
 Alpha  occ. eigenvalues --   -0.41044  -0.40980  -0.40825  -0.40434  -0.40368
 Alpha  occ. eigenvalues --   -0.39845  -0.39767  -0.39178  -0.38955  -0.38668
 Alpha  occ. eigenvalues --   -0.38569  -0.38277  -0.38068  -0.38060  -0.37836
 Alpha  occ. eigenvalues --   -0.37626  -0.37308  -0.37054  -0.36922  -0.36706
 Alpha  occ. eigenvalues --   -0.36220  -0.35950  -0.35789  -0.35617  -0.35218
 Alpha  occ. eigenvalues --   -0.34867  -0.34496  -0.34128  -0.33434  -0.33029
 Alpha  occ. eigenvalues --   -0.32348  -0.32015  -0.31710  -0.30980  -0.29791
 Alpha  occ. eigenvalues --   -0.29765  -0.29066  -0.28921  -0.28852  -0.23587
 Alpha  occ. eigenvalues --   -0.21861
 Alpha virt. eigenvalues --   -0.07734  -0.02633   0.02245   0.03961   0.04868
 Alpha virt. eigenvalues --    0.05137   0.05410   0.06073   0.06833   0.07373
 Alpha virt. eigenvalues --    0.08337   0.10253   0.11032   0.11376   0.11515

 Mulliken charges:
               1
     1  Mg   0.828987
     2  C    0.148978
     3  C   -0.220741
     4  C   -0.158704
     5  C   -0.153869
     6  N   -0.680688
     7  C    0.348578
     8  C   -0.154583
     9  C   -0.150710
    10  C    0.341244
    11  C   -0.301463
    12  C   -0.171530
    13  C   -0.289500
    14  C    0.648590
    15  O   -0.505163
    16  O   -0.493433
    17  N   -0.681446
    18  C    0.275768
    19  C    0.020063
    20  C    0.021249
    21  C    0.308063
    22  C   -0.369134
    23  C   -0.069719
    24  C   -0.243286
    25  N   -0.685067
    26  C    0.303803
    27  C    0.016738
    28  C   -0.012351
    29  C    0.308841
    30  C   -0.320662
    31  C   -0.245059
    32  C   -0.309924
    33  N   -0.767316
    34  C    0.261139
    35  C    0.004612
    36  C    0.037931
    37  C    0.290238
    38  C   -0.367764
    39  C    0.331868
    40  O   -0.463533
    41  C   -0.357137
    42  C    0.612288
    43  O   -0.523591
    44  O   -0.457044
    45  C   -0.067623
    46  C    0.013457
    47  C   -0.114219
    48  C    0.130193
    49  C   -0.329707
    50  C   -0.206705
    51  C   -0.174428
    52  C   -0.176542
    53  C   -0.079778
    54  C   -0.316636
    55  C   -0.153158
    56  C   -0.158891
    57  C   -0.176718
    58  C   -0.072717
    59  C   -0.308836
    60  C   -0.146135
    61  C   -0.177839
    62  C   -0.199326
    63  C   -0.034577
    64  C   -0.312403
    65  C   -0.284995
    66  H    0.086758
    67  H    0.087673
    68  H    0.110397
    69  H    0.132093
    70  H    0.101003
    71  H    0.119581
    72  H    0.098479
    73  H    0.123719
    74  H    0.103014
    75  H    0.108244
    76  H    0.141241
    77  H    0.120677
    78  H    0.115686
    79  H    0.136143
    80  H    0.118565
    81  H    0.080381
    82  H    0.110870
    83  H    0.082155
    84  H    0.121249
    85  H    0.084345
    86  H    0.114099
    87  H    0.106593
    88  H    0.097384
    89  H    0.110775
    90  H    0.113337
    91  H    0.108644
    92  H    0.130062
    93  H    0.150586
    94  H    0.112547
    95  H    0.156938
    96  H    0.123459
    97  H    0.158577
    98  H    0.109095
    99  H    0.133464
   100  H    0.138501
   101  H    0.080865
   102  H    0.107213
   103  H    0.093548
   104  H    0.105643
   105  H    0.051321
   106  H    0.108459
   107  H    0.071710
   108  H    0.109084
   109  H    0.081298
   110  H    0.081023
   111  H    0.086724
   112  H    0.111079
   113  H    0.091416
   114  H    0.092929
   115  H    0.103944
   116  H    0.092812
   117  H    0.108454
   118  H    0.061248
   119  H    0.074969
   120  H    0.068409
   121  H    0.079377
   122  H    0.105722
   123  H    0.107242
   124  H    0.090146
   125  H    0.088873
   126  H    0.071886
   127  H    0.110964
   128  H    0.105040
   129  H    0.100151
   130  H    0.082412
   131  H    0.100131
   132  H    0.077768
   133  H    0.076964
   134  H    0.119955
   135  H    0.064402
   136  H    0.102610
   137  H    0.079892
 Sum of Mulliken charges =   0.00000

 Dipole moment (field-independent basis, Debye):
    X=              0.4000    Y=              5.1935    Z=              0.2089  Tot=              5.2131
 Quadrupole moment (field-independent basis, Debye-Ang):
   XX=           -331.1936   YY=           -389.6993   ZZ=           -399.3974
   XY=            -35.0698   XZ=              3.3869   YZ=             -3.6964

 Normal termination of Gaussian 09 at Thu Jul  4 14:39:05 2019.
