 Gaussian 16, Revision A.03,
 Gaussian 16:  ES64L-G16RevA.03 25-Dec-2016

 ----------------------------------------------------------------------
 # td=(NStates=1) iop(3/107=0140000000,3/108=0140000000) CAM-B3LYP/6-31
 G(d,p)
 ----------------------------------------------------------------------

 --
 TD
 --
 Symbolic Z-matrix:
 Charge =  0 Multiplicity = 1

                         Standard orientation:
 ---------------------------------------------------------------------
 Center     Atomic      Atomic             Coordinates (Angstroms)
 Number     Number       Type             X           Y           Z
 ---------------------------------------------------------------------
      1         12           0       -7.058586    0.560558    0.094519
      2          6           0       -4.858467   -1.969485    0.543342
      3          6           0       -4.863805    2.737098    1.189918
      4          6           0       -9.373973    3.142821   -0.316129
      5          6           0       -9.411992   -1.760262   -0.872585
      6          7           0       -5.114024    0.418231    0.776736
      7          6           0       -4.285641   -0.719714    0.784828
      8          6           0       -2.844551   -0.368403    1.166666
      9          6           0       -3.141595    1.035259    1.720938
     10          6           0       -4.331408    1.538721    1.180519
     11          6           0       -3.092778    1.078529    3.244195
     12          6           0       -1.942266   -0.576213    0.040004
     13          6           0       -0.513512   -0.284252    0.389424
     14          6           0        0.520331   -0.697722   -0.745674
     15          8           0        0.257625   -1.059274   -1.782161
     16          8           0        1.766858   -0.339273   -0.232843
     17          7           0       -7.072865    2.581344    0.339617
     18          6           0       -6.019240    3.297768    0.798745
     19          6           0       -6.433414    4.703378    0.832222
     20          6           0       -7.674425    4.759546    0.371330
     21          6           0       -8.070952    3.552839    0.165036
     22          6           0       -5.628953    5.928593    1.304047
     23          6           0       -8.558625    6.010791    0.252117
     24          6           0       -8.391519    7.232746    0.713210
     25          7           0       -9.085425    0.660356   -0.547452
     26          6           0       -9.801018    1.807291   -0.689188
     27          6           0      -11.099327    1.380963   -1.151204
     28          6           0      -11.093809    0.106543   -1.428820
     29          6           0       -9.870201   -0.427849   -0.920866
     30          6           0      -12.245372    2.435131   -1.386568
     31          6           0      -12.306378   -0.700511   -1.907113
     32          6           0      -12.246506   -0.929224   -3.482384
     33          7           0       -7.211459   -1.355550   -0.259812
     34          6           0       -8.275745   -2.273586   -0.549507
     35          6           0       -7.758358   -3.573241   -0.647988
     36          6           0       -6.536297   -3.547848   -0.106584
     37          6           0       -6.228490   -2.140949    0.030205
     38          6           0       -8.709854   -4.693673   -0.874490
     39          6           0       -5.369167   -4.303999    0.236748
     40          8           0       -5.217776   -5.574969    0.328003
     41          6           0       -4.188571   -3.356020    0.564025
     42          6           0       -3.687638   -3.772836    2.025262
     43          8           0       -3.888724   -3.254447    3.054066
     44          8           0       -2.806724   -4.747176    1.844462
     45          6           0       -2.168567   -5.207144    3.101913
     46          6           0        2.871880   -0.633768   -1.133253
     47          6           0        4.140330   -0.461880   -0.438205
     48          6           0        5.176287    0.298336   -0.917459
     49          6           0        5.136355    1.061886   -2.166386
     50          6           0        6.383353    0.468659   -0.038348
     51          6           0        7.559531   -0.150317   -0.833990
     52          6           0        8.873536   -0.160765   -0.135164
     53          6           0       10.103176   -0.445644   -0.934598
     54          6           0       10.092204   -1.950091   -1.310884
     55          6           0       11.460363   -0.143978   -0.125873
     56          6           0       12.783173   -0.413391   -0.775407
     57          6           0       13.970757   -0.074022    0.151403
     58          6           0       15.360545   -0.085682   -0.609773
     59          6           0       15.666836   -1.510482   -1.038056
     60          6           0       16.421559    0.463008    0.464434
     61          6           0       17.819539    0.542971   -0.196450
     62          6           0       18.828698    1.193333    0.783722
     63          6           0       20.284349    1.327851    0.258364
     64          6           0       20.432060    2.125887   -1.093872
     65          6           0       21.226835    1.753865    1.407631
     66          1           0       -4.133588    3.616726    1.496103
     67          1           0      -10.077652    3.889851   -0.643565
     68          1           0      -10.335361   -2.359902   -1.244483
     69          1           0       -2.331797   -1.039177    2.095765
     70          1           0       -2.329113    1.565203    1.330199
     71          1           0       -2.104785    0.871191    3.531135
     72          1           0       -3.625965    2.049085    3.617368
     73          1           0       -3.802017    0.306257    3.803508
     74          1           0       -2.073118   -1.587834   -0.292225
     75          1           0       -2.167912   -0.028457   -0.915882
     76          1           0       -0.153589    0.587849    0.826665
     77          1           0       -0.142666   -0.830316    1.404191
     78          1           0       -6.177100    6.798599    0.789383
     79          1           0       -5.706926    6.174510    2.400862
     80          1           0       -4.444486    5.821978    0.991045
     81          1           0       -9.330315    5.791874   -0.302316
     82          1           0       -9.025377    8.061178    0.463456
     83          1           0       -7.951321    7.414822    1.565629
     84          1           0      -12.230853    3.109142   -2.289691
     85          1           0      -13.217022    1.742524   -1.305205
     86          1           0      -12.192415    2.991937   -0.492102
     87          1           0      -12.325657   -1.598608   -1.388941
     88          1           0      -13.284185   -0.120380   -1.722356
     89          1           0      -12.965990   -1.746013   -3.777810
     90          1           0      -12.500961    0.027809   -4.029518
     91          1           0      -11.245011   -1.517524   -3.757295
     92          1           0       -8.739872   -4.851375   -2.053578
     93          1           0       -8.184706   -5.611414   -0.578710
     94          1           0       -9.787004   -4.310914   -0.356351
     95          1           0       -3.494002   -3.380053   -0.342274
     96          1           0       -1.594715   -4.381020    3.680639
     97          1           0       -3.061172   -5.672460    3.777514
     98          1           0       -1.652631   -6.049676    2.699194
     99          1           0        2.776173   -1.645282   -1.600289
    100          1           0        2.713772   -0.092068   -2.125742
    101          1           0        4.015180   -1.241586    0.374522
    102          1           0        4.183225    1.318793   -2.563792
    103          1           0        5.695155    1.926000   -2.066518
    104          1           0        5.686736    0.461643   -3.170399
    105          1           0        6.597080    1.633506    0.217792
    106          1           0        6.279930   -0.177655    0.901575
    107          1           0        7.134759   -1.106235   -1.206222
    108          1           0        7.498307    0.520441   -1.888620
    109          1           0        8.858711    0.877092    0.316526
    110          1           0        8.687649   -0.763749    0.662649
    111          1           0        9.848809   -0.081261   -2.097536
    112          1           0        9.239163   -2.267584   -1.833684
    113          1           0       10.974123   -2.298051   -1.938597
    114          1           0       10.279091   -2.571176   -0.349027
    115          1           0       11.264276    1.036464    0.034077
    116          1           0       11.423831   -0.720600    0.916289
    117          1           0       12.854510   -1.485997   -1.106540
    118          1           0       12.933209    0.159841   -1.666735
    119          1           0       13.905786    0.883663    0.764625
    120          1           0       13.986885   -0.836111    1.007512
    121          1           0       15.256424    0.511770   -1.358244
    122          1           0       15.462305   -2.347519   -0.315722
    123          1           0       14.947256   -2.059688   -1.732153
    124          1           0       16.643285   -1.790592   -1.533469
    125          1           0       16.222359    1.443079    0.948415
    126          1           0       16.445791   -0.439243    1.252313
    127          1           0       18.297810   -0.384544   -0.416519
    128          1           0       17.823210    1.072087   -1.030791
    129          1           0       18.256820    2.396783    0.966230
    130          1           0       18.700624    0.830596    1.599733
    131          1           0       20.557484    0.203090    0.081071
    132          1           0       20.079970    3.209045   -1.089588
    133          1           0       21.448563    2.042244   -1.345630
    134          1           0       19.821859    1.759832   -1.995624
    135          1           0       21.234711    1.084120    2.330603
    136          1           0       22.221454    1.570628    1.016778
    137          1           0       20.796666    2.671361    1.709725
 ---------------------------------------------------------------------

 SCF Done:  E(RCAM-B3LYP) =  -2933.39192311     A.U. after   15 cycles

 Excitation energies and oscillator strengths:

 Excited State   1:      Singlet-A      2.1017 eV  589.93 nm  f=0.2335  <S**2>=0.000
     240 -> 243       -0.23718
     241 -> 242        0.65209
 This state for optimization and/or second-order correction.
 Total Energy, E(TD-HF/TD-DFT) =  -2933.31468803
 Copying the excited state density for this state as the 1-particle RhoCI density.

 The electronic state is 1-A.
 Alpha  occ. eigenvalues --  -46.78953 -19.21514 -19.21311 -19.18639 -19.16890
 Alpha  occ. eigenvalues --  -19.15303 -14.36854 -14.35268 -14.34661 -14.34236
 Alpha  occ. eigenvalues --  -10.34613 -10.34169 -10.30111 -10.28134 -10.26845
 Alpha  occ. eigenvalues --  -10.26300 -10.25089 -10.24991 -10.24628 -10.24464
 Alpha  occ. eigenvalues --  -10.24424 -10.24051 -10.23963 -10.23878 -10.23856
 Alpha  occ. eigenvalues --  -10.23803 -10.23770 -10.23630 -10.23505 -10.23479
 Alpha  occ. eigenvalues --  -10.23349 -10.23313 -10.23266 -10.23200 -10.22922
 Alpha  occ. eigenvalues --  -10.22883 -10.22570 -10.22533 -10.22528 -10.22517
 Alpha  occ. eigenvalues --  -10.22388 -10.22375 -10.22291 -10.22252 -10.22160
 Alpha  occ. eigenvalues --  -10.22151 -10.21995 -10.21988 -10.21960 -10.21397
 Alpha  occ. eigenvalues --  -10.21256 -10.21253 -10.21036 -10.21024 -10.21007
 Alpha  occ. eigenvalues --  -10.20889 -10.20687 -10.20659 -10.20437 -10.20303
 Alpha  occ. eigenvalues --  -10.20237 -10.20236 -10.20234 -10.20183 -10.18686
 Alpha  occ. eigenvalues --   -3.07709  -1.82644  -1.82188  -1.82121  -1.15247
 Alpha  occ. eigenvalues --   -1.14031  -1.06613  -1.05266  -1.02197  -1.00318
 Alpha  occ. eigenvalues --   -0.99436  -0.97550  -0.97189  -0.87067  -0.86738
 Alpha  occ. eigenvalues --   -0.85994  -0.85151  -0.84856  -0.84552  -0.84079
 Alpha  occ. eigenvalues --   -0.83307  -0.82868  -0.82761  -0.82215  -0.81135
 Alpha  occ. eigenvalues --   -0.80134  -0.79368  -0.78805  -0.78282  -0.77455
 Alpha  occ. eigenvalues --   -0.76856  -0.75859  -0.75675  -0.75275  -0.73681
 Alpha  occ. eigenvalues --   -0.73465  -0.71751  -0.71532  -0.71272  -0.71069
 Alpha  occ. eigenvalues --   -0.70068  -0.69994  -0.68980  -0.68638  -0.67948
 Alpha  occ. eigenvalues --   -0.67208  -0.66157  -0.65003  -0.64577  -0.64528
 Alpha  occ. eigenvalues --   -0.63718  -0.61832  -0.61355  -0.60766  -0.60666
 Alpha  occ. eigenvalues --   -0.59823  -0.59295  -0.58884  -0.58381  -0.57965
 Alpha  occ. eigenvalues --   -0.57472  -0.57216  -0.56888  -0.56239  -0.55680
 Alpha  occ. eigenvalues --   -0.54896  -0.54030  -0.54022  -0.53488  -0.52880
 Alpha  occ. eigenvalues --   -0.52168  -0.51816  -0.51157  -0.51031  -0.50704
 Alpha  occ. eigenvalues --   -0.50473  -0.50267  -0.49922  -0.49832  -0.49725
 Alpha  occ. eigenvalues --   -0.49403  -0.48867  -0.48531  -0.48354  -0.47805
 Alpha  occ. eigenvalues --   -0.47528  -0.47457  -0.47226  -0.47063  -0.46617
 Alpha  occ. eigenvalues --   -0.46462  -0.46341  -0.46287  -0.46015  -0.45856
 Alpha  occ. eigenvalues --   -0.45569  -0.45446  -0.45290  -0.45158  -0.44764
 Alpha  occ. eigenvalues --   -0.44650  -0.44290  -0.43945  -0.43845  -0.43147
 Alpha  occ. eigenvalues --   -0.43011  -0.42899  -0.42585  -0.42333  -0.42081
 Alpha  occ. eigenvalues --   -0.41969  -0.41897  -0.41655  -0.41544  -0.41459
 Alpha  occ. eigenvalues --   -0.41331  -0.41038  -0.40908  -0.40672  -0.40627
 Alpha  occ. eigenvalues --   -0.40432  -0.40100  -0.39807  -0.39762  -0.39574
 Alpha  occ. eigenvalues --   -0.39482  -0.39433  -0.39011  -0.38882  -0.38650
 Alpha  occ. eigenvalues --   -0.38552  -0.38410  -0.38043  -0.38015  -0.37888
 Alpha  occ. eigenvalues --   -0.37715  -0.37573  -0.37283  -0.37264  -0.37176
 Alpha  occ. eigenvalues --   -0.36914  -0.36849  -0.36461  -0.36312  -0.36051
 Alpha  occ. eigenvalues --   -0.35568  -0.35427  -0.34822  -0.34707  -0.34612
 Alpha  occ. eigenvalues --   -0.34580  -0.34415  -0.34188  -0.33678  -0.33597
 Alpha  occ. eigenvalues --   -0.33266  -0.33191  -0.33042  -0.32874  -0.32443
 Alpha  occ. eigenvalues --   -0.32065  -0.31854  -0.31345  -0.31183  -0.30603
 Alpha  occ. eigenvalues --   -0.30123  -0.29959  -0.29748  -0.28598  -0.27885
 Alpha  occ. eigenvalues --   -0.26416  -0.26382  -0.26070  -0.25444  -0.21649
 Alpha  occ. eigenvalues --   -0.20294
 Alpha virt. eigenvalues --   -0.07071  -0.03965  -0.00161   0.02099   0.02273
 Alpha virt. eigenvalues --    0.04415   0.04537   0.05201   0.05524   0.05741
 Alpha virt. eigenvalues --    0.06669   0.08533   0.09212   0.09652   0.09943

 Mulliken charges:
               1
     1  Mg   0.787997
     2  C    0.013893
     3  C   -0.223200
     4  C   -0.183342
     5  C   -0.203317
     6  N   -0.654490
     7  C    0.308795
     8  C   -0.143481
     9  C   -0.132995
    10  C    0.381098
    11  C   -0.300048
    12  C   -0.163937
    13  C   -0.285277
    14  C    0.607584
    15  O   -0.394545
    16  O   -0.495477
    17  N   -0.715335
    18  C    0.346141
    19  C   -0.018897
    20  C    0.076889
    21  C    0.266899
    22  C   -0.383228
    23  C    0.003408
    24  C   -0.270376
    25  N   -0.691748
    26  C    0.315394
    27  C   -0.015902
    28  C    0.060604
    29  C    0.264344
    30  C   -0.363813
    31  C   -0.248153
    32  C   -0.306540
    33  N   -0.743753
    34  C    0.303413
    35  C    0.024586
    36  C    0.093450
    37  C    0.356029
    38  C   -0.367471
    39  C    0.318801
    40  O   -0.504390
    41  C   -0.312717
    42  C    0.623768
    43  O   -0.439752
    44  O   -0.431548
    45  C   -0.092862
    46  C   -0.011029
    47  C   -0.117000
    48  C    0.131886
    49  C   -0.354614
    50  C   -0.219301
    51  C   -0.181307
    52  C   -0.136175
    53  C   -0.057486
    54  C   -0.312593
    55  C   -0.159078
    56  C   -0.172235
    57  C   -0.182128
    58  C   -0.034369
    59  C   -0.327602
    60  C   -0.178295
    61  C   -0.173753
    62  C   -0.115229
    63  C   -0.065292
    64  C   -0.313095
    65  C   -0.308845
    66  H    0.060057
    67  H    0.087322
    68  H    0.077414
    69  H    0.091913
    70  H    0.102177
    71  H    0.114517
    72  H    0.104665
    73  H    0.118199
    74  H    0.128427
    75  H    0.119191
    76  H    0.147642
    77  H    0.094146
    78  H    0.120809
    79  H    0.122087
    80  H    0.090529
    81  H    0.071895
    82  H    0.101011
    83  H    0.116037
    84  H    0.120389
    85  H    0.088364
    86  H    0.126345
    87  H    0.109913
    88  H    0.096034
    89  H    0.098324
    90  H    0.116848
    91  H    0.095502
    92  H    0.114257
    93  H    0.151270
    94  H    0.112950
    95  H    0.161353
    96  H    0.130847
    97  H    0.120364
    98  H    0.138194
    99  H    0.115325
   100  H    0.098413
   101  H    0.099881
   102  H    0.126320
   103  H    0.128757
   104  H    0.085978
   105  H    0.085408
   106  H    0.096550
   107  H    0.100134
   108  H    0.055339
   109  H    0.079401
   110  H    0.103349
   111  H    0.067095
   112  H    0.108238
   113  H    0.090456
   114  H    0.076759
   115  H    0.075161
   116  H    0.082737
   117  H    0.096402
   118  H    0.101140
   119  H    0.082702
   120  H    0.078258
   121  H    0.096613
   122  H    0.098085
   123  H    0.090298
   124  H    0.100507
   125  H    0.094384
   126  H    0.076344
   127  H    0.094208
   128  H    0.103213
   129  H   -0.004601
   130  H    0.092701
   131  H    0.068375
   132  H    0.101218
   133  H    0.110961
   134  H    0.099227
   135  H    0.094018
   136  H    0.104014
   137  H    0.118679
 Sum of Mulliken charges =  -0.00000

 Dipole moment (field-independent basis, Debye):
    X=              2.4047    Y=              3.2637    Z=             -0.1493  Tot=              4.0566
 Quadrupole moment (field-independent basis, Debye-Ang):
   XX=           -348.1002   YY=           -398.9443   ZZ=           -394.9823
   XY=            -29.1575   XZ=              4.9667   YZ=             -0.0474

 Normal termination of Gaussian 16 at Sun Sep 22 15:14:09 2019.
