 Gaussian 09, Revision D.01,
 Gaussian 09:  ES64L-G09RevD.01 24-Apr-2013

 -------------------------------------
 # td=(NStates=1) CAM-B3LYP/6-31G(d,p)
 -------------------------------------

 --
 TD
 --
 Symbolic Z-matrix:
 Charge =  0 Multiplicity = 1

                         Standard orientation:
 ---------------------------------------------------------------------
 Center     Atomic      Atomic             Coordinates (Angstroms)
 Number     Number       Type             X           Y           Z
 ---------------------------------------------------------------------
      1         12           0       -7.121083    0.683814    0.155061
      2          6           0       -4.884671   -1.850388    0.481101
      3          6           0       -4.802864    2.849766    1.080112
      4          6           0       -9.429622    3.094269   -0.416740
      5          6           0       -9.640189   -1.745749   -0.764661
      6          7           0       -5.115651    0.399361    0.788406
      7          6           0       -4.301406   -0.702298    0.846316
      8          6           0       -2.911331   -0.370084    1.207907
      9          6           0       -2.941037    1.042755    1.568418
     10          6           0       -4.396551    1.511673    1.155155
     11          6           0       -2.964808    1.178753    3.153483
     12          6           0       -1.990021   -0.657458   -0.000714
     13          6           0       -0.420022   -0.542810    0.375104
     14          6           0        0.464945   -0.876988   -0.711364
     15          8           0        0.164529   -1.253064   -1.841000
     16          8           0        1.789415   -0.647015   -0.320676
     17          7           0       -7.081290    2.630500    0.287664
     18          6           0       -6.065250    3.377682    0.804418
     19          6           0       -6.362957    4.832934    0.773621
     20          6           0       -7.715057    4.885780    0.333297
     21          6           0       -8.149309    3.448925    0.000878
     22          6           0       -5.367397    5.877750    1.132721
     23          6           0       -8.641060    5.975677    0.108839
     24          6           0       -8.514492    7.150821    0.898295
     25          7           0       -9.158144    0.698769   -0.506396
     26          6           0       -9.850853    1.846747   -0.674382
     27          6           0      -11.218489    1.526445   -1.027682
     28          6           0      -11.279838    0.140208   -1.198440
     29          6           0       -9.878824   -0.404617   -0.796924
     30          6           0      -12.292047    2.453935   -1.366801
     31          6           0      -12.400943   -0.817767   -1.688719
     32          6           0      -12.273020   -0.992144   -3.247627
     33          7           0       -7.307368   -1.385124   -0.112323
     34          6           0       -8.319785   -2.200013   -0.523118
     35          6           0       -7.850586   -3.538640   -0.452238
     36          6           0       -6.591675   -3.501569   -0.005544
     37          6           0       -6.194456   -2.116082    0.125277
     38          6           0       -8.653110   -4.801546   -0.804223
     39          6           0       -5.378861   -4.343336    0.309764
     40          8           0       -5.207835   -5.589111    0.253025
     41          6           0       -4.211328   -3.249268    0.589436
     42          6           0       -3.616299   -3.641217    1.984449
     43          8           0       -3.674173   -3.077301    3.010553
     44          8           0       -2.754573   -4.798125    1.677052
     45          6           0       -2.203232   -5.333555    2.835420
     46          6           0        2.850094   -0.874187   -1.266773
     47          6           0        4.181717   -0.499051   -0.565428
     48          6           0        5.106012    0.285887   -1.096746
     49          6           0        5.054962    0.990303   -2.363186
     50          6           0        6.413091    0.416125   -0.236839
     51          6           0        7.604926   -0.122740   -1.054404
     52          6           0        8.874496   -0.065895   -0.219127
     53          6           0       10.232842   -0.336790   -0.983710
     54          6           0       10.264812   -1.764454   -1.445898
     55          6           0       11.516757   -0.094659   -0.109463
     56          6           0       12.843404   -0.353890   -0.690260
     57          6           0       14.038082    0.014177    0.140846
     58          6           0       15.396416   -0.152813   -0.482739
     59          6           0       15.631522   -1.605009   -0.844837
     60          6           0       16.426321    0.410602    0.476950
     61          6           0       17.763466    0.696073   -0.208227
     62          6           0       18.855277    1.245001    0.857448
     63          6           0       20.223432    1.233826    0.366483
     64          6           0       20.441403    2.012517   -0.918755
     65          6           0       21.154405    1.785685    1.431471
     66          1           0       -4.225759    3.596266    1.500923
     67          1           0      -10.159041    3.970703   -0.517596
     68          1           0      -10.204995   -2.530712   -0.898079
     69          1           0       -2.635557   -1.029957    2.022756
     70          1           0       -2.225529    1.850626    1.144949
     71          1           0       -2.210950    0.783864    3.688955
     72          1           0       -3.156453    2.129196    3.537120
     73          1           0       -3.957931    0.578676    3.586574
     74          1           0       -2.093185   -1.664915   -0.272411
     75          1           0       -2.102985    0.118443   -0.771879
     76          1           0        0.157736    0.347823    0.881963
     77          1           0       -0.250238   -1.247247    1.392928
     78          1           0       -5.781195    6.890458    0.682044
     79          1           0       -5.512354    5.986676    2.171008
     80          1           0       -4.315063    5.448483    0.789200
     81          1           0       -9.364171    5.668942   -0.435434
     82          1           0       -9.150950    8.186485    0.805232
     83          1           0       -7.700210    7.406700    1.410107
     84          1           0      -12.072140    3.206924   -2.181216
     85          1           0      -13.292292    2.059240   -1.533230
     86          1           0      -12.452771    2.993543   -0.489091
     87          1           0      -12.452455   -1.689081   -1.213980
     88          1           0      -13.329976   -0.264654   -1.691275
     89          1           0      -13.179927   -1.662269   -3.503819
     90          1           0      -12.045491    0.086442   -3.936047
     91          1           0      -11.428916   -1.619217   -3.398984
     92          1           0       -9.260904   -4.805955   -1.682515
     93          1           0       -7.917539   -5.496792   -0.784585
     94          1           0       -9.407298   -4.949277   -0.108035
     95          1           0       -3.553965   -3.300227   -0.219464
     96          1           0       -1.346944   -4.813117    3.355316
     97          1           0       -2.891995   -5.467221    3.688817
     98          1           0       -1.753143   -6.242045    2.660068
     99          1           0        2.643430   -1.817102   -1.617640
    100          1           0        2.894015   -0.302408   -2.099351
    101          1           0        4.465928   -1.157449    0.212644
    102          1           0        4.074542    1.349684   -2.828296
    103          1           0        5.404408    1.943661   -2.222624
    104          1           0        5.784025    0.680828   -3.121804
    105          1           0        6.659024    1.400661    0.135391
    106          1           0        6.337849   -0.103905    0.793773
    107          1           0        7.378371   -1.010740   -1.313884
    108          1           0        7.715221    0.622257   -1.926187
    109          1           0        8.909817    1.039399    0.251546
    110          1           0        8.906546   -0.829175    0.684205
    111          1           0       10.297473    0.430497   -1.594236
    112          1           0        9.241518   -2.125458   -1.970666
    113          1           0       11.123774   -1.871757   -2.055109
    114          1           0       10.348868   -2.579362   -0.573058
    115          1           0       11.410403    0.974828    0.308325
    116          1           0       11.375466   -0.637786    0.646664
    117          1           0       13.051966   -1.380598   -1.070570
    118          1           0       12.902248    0.305934   -1.665147
    119          1           0       13.850364    0.979483    0.578659
    120          1           0       13.946696   -0.502274    0.904552
    121          1           0       15.475075    0.405013   -1.383238
    122          1           0       15.399589   -2.284424    0.082727
    123          1           0       14.951159   -1.963293   -1.635318
    124          1           0       16.734835   -1.585652   -1.172064
    125          1           0       16.210680    1.510543    0.863777
    126          1           0       16.448460   -0.464825    1.346366
    127          1           0       18.067175   -0.368337   -0.690296
    128          1           0       17.588293    1.514375   -0.869877
    129          1           0       18.690192    2.246342    1.060598
    130          1           0       18.875725    0.510947    1.800881
    131          1           0       20.390320    0.064036    0.303274
    132          1           0       20.202413    3.157007   -0.685314
    133          1           0       21.470909    1.776513   -1.347179
    134          1           0       19.701044    1.564002   -1.675044
    135          1           0       20.857691    1.274758    2.423990
    136          1           0       22.273640    1.662538    1.233523
    137          1           0       21.004730    2.975278    1.682026
 ---------------------------------------------------------------------

 SCF Done:  E(RCAM-B3LYP) =  -2932.59973896     A.U. after   18 cycles

 Excitation energies and oscillator strengths:

 Excited State   1:      Singlet-A      1.9829 eV  625.25 nm  f=0.3214  <S**2>=0.000
     240 -> 243        0.21525
     241 -> 242        0.66820
 This state for optimization and/or second-order correction.
 Total Energy, E(TD-HF/TD-KS) =  -2932.52686693
 Copying the excited state density for this state as the 1-particle RhoCI density.

 The electronic state is 1-A.
 Alpha  occ. eigenvalues --  -46.84562 -19.25254 -19.24602 -19.24124 -19.20886
 Alpha  occ. eigenvalues --  -19.20747 -14.42148 -14.40056 -14.39295 -14.38800
 Alpha  occ. eigenvalues --  -10.40737 -10.39016 -10.36040 -10.31803 -10.30520
 Alpha  occ. eigenvalues --  -10.30480 -10.30149 -10.29594 -10.29376 -10.29225
 Alpha  occ. eigenvalues --  -10.29186 -10.29139 -10.28913 -10.28899 -10.28414
 Alpha  occ. eigenvalues --  -10.28301 -10.28094 -10.28080 -10.28006 -10.27981
 Alpha  occ. eigenvalues --  -10.27855 -10.27782 -10.27632 -10.27612 -10.27225
 Alpha  occ. eigenvalues --  -10.27127 -10.26927 -10.26752 -10.26726 -10.26706
 Alpha  occ. eigenvalues --  -10.26585 -10.26438 -10.26429 -10.26425 -10.26272
 Alpha  occ. eigenvalues --  -10.26247 -10.26023 -10.25924 -10.25922 -10.25819
 Alpha  occ. eigenvalues --  -10.25781 -10.25771 -10.25752 -10.25709 -10.25214
 Alpha  occ. eigenvalues --  -10.25210 -10.25150 -10.25135 -10.24967 -10.24938
 Alpha  occ. eigenvalues --  -10.24886 -10.24842 -10.23925 -10.23524 -10.22029
 Alpha  occ. eigenvalues --   -3.13589  -1.88301  -1.87820  -1.87769  -1.18288
 Alpha  occ. eigenvalues --   -1.15806  -1.10586  -1.08567  -1.07952  -1.04956
 Alpha  occ. eigenvalues --   -1.03747  -1.03480  -1.02347  -0.92500  -0.91957
 Alpha  occ. eigenvalues --   -0.91444  -0.90845  -0.90313  -0.89544  -0.89271
 Alpha  occ. eigenvalues --   -0.89231  -0.88171  -0.87652  -0.87156  -0.86456
 Alpha  occ. eigenvalues --   -0.85538  -0.84762  -0.84079  -0.83341  -0.83172
 Alpha  occ. eigenvalues --   -0.81876  -0.80878  -0.80375  -0.80238  -0.79024
 Alpha  occ. eigenvalues --   -0.77490  -0.76693  -0.76169  -0.76044  -0.75503
 Alpha  occ. eigenvalues --   -0.75389  -0.74794  -0.74073  -0.73685  -0.73352
 Alpha  occ. eigenvalues --   -0.72159  -0.71461  -0.70091  -0.69416  -0.68800
 Alpha  occ. eigenvalues --   -0.67605  -0.67209  -0.66264  -0.65794  -0.65293
 Alpha  occ. eigenvalues --   -0.65057  -0.63885  -0.62744  -0.62369  -0.62260
 Alpha  occ. eigenvalues --   -0.60914  -0.60816  -0.60438  -0.60349  -0.59847
 Alpha  occ. eigenvalues --   -0.59273  -0.58270  -0.58202  -0.57628  -0.56769
 Alpha  occ. eigenvalues --   -0.56530  -0.55958  -0.55461  -0.55155  -0.54890
 Alpha  occ. eigenvalues --   -0.54693  -0.54484  -0.54226  -0.54194  -0.53342
 Alpha  occ. eigenvalues --   -0.52933  -0.52641  -0.52513  -0.52192  -0.52126
 Alpha  occ. eigenvalues --   -0.51853  -0.51690  -0.51191  -0.50860  -0.50634
 Alpha  occ. eigenvalues --   -0.50365  -0.50160  -0.49869  -0.49784  -0.49748
 Alpha  occ. eigenvalues --   -0.49286  -0.49209  -0.48891  -0.48809  -0.48761
 Alpha  occ. eigenvalues --   -0.48643  -0.48498  -0.48309  -0.48255  -0.47656
 Alpha  occ. eigenvalues --   -0.47476  -0.47287  -0.46955  -0.46876  -0.46602
 Alpha  occ. eigenvalues --   -0.46279  -0.45798  -0.45745  -0.45336  -0.45200
 Alpha  occ. eigenvalues --   -0.45062  -0.44893  -0.44781  -0.44721  -0.44596
 Alpha  occ. eigenvalues --   -0.43933  -0.43709  -0.43630  -0.43237  -0.42992
 Alpha  occ. eigenvalues --   -0.42560  -0.42520  -0.42439  -0.42328  -0.42265
 Alpha  occ. eigenvalues --   -0.42068  -0.42005  -0.41826  -0.41573  -0.41441
 Alpha  occ. eigenvalues --   -0.41182  -0.41064  -0.40811  -0.40653  -0.40389
 Alpha  occ. eigenvalues --   -0.40301  -0.39766  -0.39625  -0.39494  -0.39337
 Alpha  occ. eigenvalues --   -0.39175  -0.39022  -0.38567  -0.38339  -0.38221
 Alpha  occ. eigenvalues --   -0.38153  -0.37696  -0.37391  -0.36851  -0.36819
 Alpha  occ. eigenvalues --   -0.36332  -0.35941  -0.35931  -0.35791  -0.35472
 Alpha  occ. eigenvalues --   -0.35365  -0.34805  -0.34549  -0.34394  -0.33670
 Alpha  occ. eigenvalues --   -0.33388  -0.32327  -0.32117  -0.31801  -0.30323
 Alpha  occ. eigenvalues --   -0.30028  -0.29319  -0.27757  -0.27104  -0.23685
 Alpha  occ. eigenvalues --   -0.20894
 Alpha virt. eigenvalues --   -0.06802  -0.02646   0.00803   0.02697   0.04656
 Alpha virt. eigenvalues --    0.05229   0.06014   0.06208   0.06359   0.06910
 Alpha virt. eigenvalues --    0.08212   0.10798   0.11268   0.11604   0.11836

 Mulliken charges:
               1
     1  Mg   0.819837
     2  C    0.009060
     3  C   -0.191764
     4  C   -0.184928
     5  C   -0.089695
     6  N   -0.637849
     7  C    0.326751
     8  C   -0.133815
     9  C   -0.147857
    10  C    0.326933
    11  C   -0.318191
    12  C   -0.159191
    13  C   -0.303714
    14  C    0.644073
    15  O   -0.486382
    16  O   -0.515218
    17  N   -0.736378
    18  C    0.304849
    19  C    0.018553
    20  C   -0.027528
    21  C    0.311166
    22  C   -0.368748
    23  C   -0.034034
    24  C   -0.239210
    25  N   -0.704472
    26  C    0.345706
    27  C    0.014807
    28  C   -0.021028
    29  C    0.308078
    30  C   -0.384413
    31  C   -0.226080
    32  C   -0.300173
    33  N   -0.728830
    34  C    0.250101
    35  C   -0.057416
    36  C    0.029979
    37  C    0.296091
    38  C   -0.359552
    39  C    0.362123
    40  O   -0.467821
    41  C   -0.306950
    42  C    0.613643
    43  O   -0.410070
    44  O   -0.467240
    45  C   -0.078158
    46  C    0.040927
    47  C   -0.148885
    48  C    0.140561
    49  C   -0.401083
    50  C   -0.239944
    51  C   -0.145715
    52  C   -0.181131
    53  C   -0.048334
    54  C   -0.302497
    55  C   -0.167263
    56  C   -0.186101
    57  C   -0.144656
    58  C   -0.061012
    59  C   -0.303680
    60  C   -0.148538
    61  C   -0.190577
    62  C   -0.148123
    63  C   -0.045513
    64  C   -0.295924
    65  C   -0.287857
    66  H    0.070202
    67  H    0.101999
    68  H    0.070375
    69  H    0.136122
    70  H    0.111034
    71  H    0.122826
    72  H    0.116125
    73  H    0.094331
    74  H    0.135404
    75  H    0.130253
    76  H    0.145454
    77  H    0.120339
    78  H    0.115713
    79  H    0.147379
    80  H    0.119201
    81  H    0.072023
    82  H    0.088038
    83  H    0.105935
    84  H    0.113920
    85  H    0.116401
    86  H    0.125645
    87  H    0.114485
    88  H    0.111692
    89  H    0.093508
    90  H    0.089000
    91  H    0.117818
    92  H    0.117706
    93  H    0.148977
    94  H    0.127837
    95  H    0.180158
    96  H    0.086892
    97  H    0.113313
    98  H    0.123979
    99  H    0.120951
   100  H    0.108710
   101  H    0.091397
   102  H    0.121100
   103  H    0.129287
   104  H    0.132700
   105  H    0.102553
   106  H    0.092292
   107  H    0.112811
   108  H    0.086087
   109  H    0.060126
   110  H    0.072546
   111  H    0.095792
   112  H    0.080732
   113  H    0.117307
   114  H    0.084857
   115  H    0.070282
   116  H    0.098408
   117  H    0.086872
   118  H    0.059871
   119  H    0.079373
   120  H    0.096525
   121  H    0.085460
   122  H    0.088407
   123  H    0.112307
   124  H    0.089991
   125  H    0.078493
   126  H    0.062592
   127  H    0.072504
   128  H    0.110686
   129  H    0.091226
   130  H    0.078270
   131  H    0.071513
   132  H    0.087984
   133  H    0.103631
   134  H    0.097523
   135  H    0.086333
   136  H    0.098162
   137  H    0.070555
 Sum of Mulliken charges =   0.00000

 Dipole moment (field-independent basis, Debye):
    X=              1.4219    Y=              6.0271    Z=              0.8842  Tot=              6.2553
 Quadrupole moment (field-independent basis, Debye-Ang):
   XX=           -345.9628   YY=           -396.8788   ZZ=           -399.8231
   XY=            -21.5824   XZ=              1.1659   YZ=             -1.6311

 Normal termination of Gaussian 09 at Sat Jul  6 23:46:17 2019.
