 Gaussian 09, Revision D.01,
 Gaussian 09:  ES64L-G09RevD.01 24-Apr-2013

 -------------------------------------
 # td=(NStates=1) CAM-B3LYP/6-31G(d,p)
 -------------------------------------

 --
 TD
 --
 Symbolic Z-matrix:
 Charge =  0 Multiplicity = 1

                         Standard orientation:
 ---------------------------------------------------------------------
 Center     Atomic      Atomic             Coordinates (Angstroms)
 Number     Number       Type             X           Y           Z
 ---------------------------------------------------------------------
      1         12           0       -7.165569    0.604714    0.135124
      2          6           0       -4.915011   -2.007952    0.572716
      3          6           0       -4.811282    2.781619    1.087370
      4          6           0       -9.417083    3.123565   -0.387803
      5          6           0       -9.509699   -1.697048   -0.936034
      6          7           0       -5.111249    0.431263    0.769596
      7          6           0       -4.388526   -0.757715    0.873827
      8          6           0       -2.929603   -0.443400    1.187039
      9          6           0       -3.107940    1.016265    1.685288
     10          6           0       -4.375688    1.455605    1.100776
     11          6           0       -2.937448    1.286534    3.138095
     12          6           0       -1.963803   -0.677889    0.071793
     13          6           0       -0.460805   -0.471716    0.538997
     14          6           0        0.510655   -0.622912   -0.639470
     15          8           0        0.198675   -0.848097   -1.792872
     16          8           0        1.729162   -0.504308   -0.198274
     17          7           0       -7.164230    2.572505    0.457191
     18          6           0       -6.107246    3.279434    0.738640
     19          6           0       -6.420457    4.721640    0.675586
     20          6           0       -7.745677    4.850159    0.284667
     21          6           0       -8.208203    3.472941    0.103574
     22          6           0       -5.532087    5.735947    1.207144
     23          6           0       -8.628077    6.025113    0.181916
     24          6           0       -8.565925    7.157950    0.723578
     25          7           0       -9.141228    0.701857   -0.480898
     26          6           0       -9.923895    1.791424   -0.605781
     27          6           0      -11.212808    1.456691   -1.106982
     28          6           0      -11.204472    0.030024   -1.162550
     29          6           0       -9.933457   -0.371618   -0.920333
     30          6           0      -12.318414    2.491873   -1.266821
     31          6           0      -12.335240   -0.725281   -1.744181
     32          6           0      -12.209325   -1.050676   -3.258181
     33          7           0       -7.263568   -1.336414   -0.163106
     34          6           0       -8.261588   -2.199708   -0.557490
     35          6           0       -7.829268   -3.589016   -0.577202
     36          6           0       -6.528531   -3.530080   -0.142573
     37          6           0       -6.251319   -2.262706    0.147924
     38          6           0       -8.726619   -4.779386   -0.881491
     39          6           0       -5.390524   -4.418420    0.204469
     40          8           0       -5.058374   -5.643298    0.267309
     41          6           0       -4.174232   -3.355366    0.552154
     42          6           0       -3.507125   -3.741811    1.807059
     43          8           0       -3.725687   -3.225650    2.894607
     44          8           0       -2.647121   -4.754805    1.616220
     45          6           0       -2.101627   -5.220933    2.897925
     46          6           0        2.852306   -0.670161   -1.234512
     47          6           0        4.151050   -0.387283   -0.481687
     48          6           0        5.173581    0.415863   -0.931480
     49          6           0        5.071129    1.290509   -2.197964
     50          6           0        6.440408    0.458083   -0.143729
     51          6           0        7.615624   -0.109213   -0.964654
     52          6           0        8.867378    0.017774   -0.122834
     53          6           0       10.152176   -0.512808   -0.785231
     54          6           0       10.128768   -2.028900   -1.076813
     55          6           0       11.429734   -0.235818    0.079175
     56          6           0       12.782818   -0.467370   -0.653332
     57          6           0       13.942427   -0.022522    0.046775
     58          6           0       15.407655   -0.186165   -0.515872
     59          6           0       15.711146   -1.545801   -1.055066
     60          6           0       16.457615    0.430189    0.327788
     61          6           0       17.894105    0.568006   -0.279113
     62          6           0       18.770468    1.354262    0.750227
     63          6           0       20.306386    1.240743    0.284242
     64          6           0       20.454382    1.862734   -1.129103
     65          6           0       21.247045    1.884348    1.369876
     66          1           0       -4.060193    3.584072    1.270879
     67          1           0      -10.161526    3.999862   -0.382374
     68          1           0      -10.288641   -2.307869   -1.206079
     69          1           0       -2.624498   -1.139430    2.219371
     70          1           0       -2.438212    1.754245    1.152701
     71          1           0       -1.841079    0.807343    3.473096
     72          1           0       -3.010120    2.425085    3.443821
     73          1           0       -3.653597    0.519274    3.717081
     74          1           0       -2.075686   -1.688106   -0.418078
     75          1           0       -2.215887   -0.022335   -0.833136
     76          1           0       -0.180708    0.446899    1.138661
     77          1           0       -0.122917   -1.250270    1.175719
     78          1           0       -5.679831    6.846561    0.742477
     79          1           0       -5.644812    5.703885    2.246044
     80          1           0       -4.500170    5.416722    0.787675
     81          1           0       -9.044522    5.928942   -0.823240
     82          1           0       -9.226011    7.993733    0.284532
     83          1           0       -7.971579    7.460042    1.674365
     84          1           0      -12.317784    2.964725   -2.323855
     85          1           0      -13.356268    2.052237   -1.386495
     86          1           0      -12.283540    3.107053   -0.326682
     87          1           0      -12.389871   -1.549761   -1.190711
     88          1           0      -13.224792   -0.041057   -1.620423
     89          1           0      -12.956597   -1.792997   -3.713410
     90          1           0      -12.426459   -0.043648   -3.758450
     91          1           0      -11.198610   -1.427548   -3.437827
     92          1           0       -9.014588   -4.841588   -1.949576
     93          1           0       -8.147268   -5.720071   -0.479854
     94          1           0       -9.642049   -4.826622   -0.422419
     95          1           0       -3.465272   -3.306173   -0.397330
     96          1           0       -1.185266   -4.445024    3.208069
     97          1           0       -2.833782   -5.236573    3.644268
     98          1           0       -1.698393   -6.155174    2.432336
     99          1           0        2.570756   -1.563475   -1.403468
    100          1           0        2.500714   -0.216525   -1.990800
    101          1           0        4.249035   -0.896218    0.489076
    102          1           0        4.098308    1.193505   -2.393313
    103          1           0        5.492030    2.205783   -1.810293
    104          1           0        5.956169    1.024237   -2.923385
    105          1           0        6.718748    1.419834   -0.038119
    106          1           0        6.202008    0.073476    0.877499
    107          1           0        7.413308   -1.192953   -1.315997
    108          1           0        7.780723    0.530551   -1.992849
    109          1           0        9.013452    1.166595    0.260331
    110          1           0        8.482762   -0.452053    0.835029
    111          1           0       10.531881    0.086314   -1.608952
    112          1           0        9.347710   -2.185810   -1.785465
    113          1           0       11.003043   -2.336551   -1.648831
    114          1           0        9.898126   -2.746829   -0.318398
    115          1           0       11.391260    0.844841    0.233226
    116          1           0       11.271188   -0.697642    1.073531
    117          1           0       13.068085   -1.554172   -0.840844
    118          1           0       12.744344    0.112307   -1.675654
    119          1           0       13.802448    0.962683    0.474084
    120          1           0       13.905609   -0.536707    1.024858
    121          1           0       15.297065    0.444717   -1.391959
    122          1           0       15.645813   -2.194669   -0.142369
    123          1           0       14.950731   -1.913291   -1.749919
    124          1           0       16.645211   -1.507914   -1.398292
    125          1           0       16.237723    1.261231    0.599309
    126          1           0       16.595332   -0.023360    1.235371
    127          1           0       18.361610   -0.294517   -0.442911
    128          1           0       18.028195    1.182072   -1.238812
    129          1           0       18.681429    2.424729    1.083746
    130          1           0       18.769384    0.756378    1.765309
    131          1           0       20.784139    0.185249    0.365293
    132          1           0       20.102552    2.869253   -1.027212
    133          1           0       21.434580    1.940765   -1.390605
    134          1           0       19.789643    1.574482   -1.825532
    135          1           0       21.253310    1.376322    2.279595
    136          1           0       22.267802    1.926697    0.928933
    137          1           0       20.766726    2.844732    1.608703
 ---------------------------------------------------------------------

 SCF Done:  E(RCAM-B3LYP) =  -2932.67708314     A.U. after   17 cycles

 Excitation energies and oscillator strengths:

 Excited State   1:      Singlet-A      2.2543 eV  549.98 nm  f=0.1778  <S**2>=0.000
     240 -> 242       -0.15517
     240 -> 243       -0.28868
     241 -> 242        0.60860
     241 -> 243       -0.10820
 This state for optimization and/or second-order correction.
 Total Energy, E(TD-HF/TD-KS) =  -2932.59423782
 Copying the excited state density for this state as the 1-particle RhoCI density.

 The electronic state is 1-A.
 Alpha  occ. eigenvalues --  -46.83325 -19.25694 -19.25004 -19.21025 -19.19926
 Alpha  occ. eigenvalues --  -19.19427 -14.40731 -14.39348 -14.39250 -14.38203
 Alpha  occ. eigenvalues --  -10.38145 -10.37837 -10.36632 -10.31694 -10.30307
 Alpha  occ. eigenvalues --  -10.30121 -10.30074 -10.29900 -10.29294 -10.28613
 Alpha  occ. eigenvalues --  -10.28588 -10.28504 -10.28439 -10.28384 -10.28376
 Alpha  occ. eigenvalues --  -10.28374 -10.28287 -10.28041 -10.27401 -10.27370
 Alpha  occ. eigenvalues --  -10.27271 -10.27247 -10.27196 -10.27147 -10.27145
 Alpha  occ. eigenvalues --  -10.27104 -10.27055 -10.26973 -10.26901 -10.26901
 Alpha  occ. eigenvalues --  -10.26828 -10.26609 -10.26580 -10.26560 -10.26422
 Alpha  occ. eigenvalues --  -10.26397 -10.26326 -10.26302 -10.26088 -10.26049
 Alpha  occ. eigenvalues --  -10.25795 -10.25691 -10.25508 -10.25310 -10.25228
 Alpha  occ. eigenvalues --  -10.25210 -10.25135 -10.25050 -10.24929 -10.24058
 Alpha  occ. eigenvalues --  -10.23921 -10.23846 -10.23330 -10.22554 -10.22196
 Alpha  occ. eigenvalues --   -3.12529  -1.87226  -1.86762  -1.86729  -1.17732
 Alpha  occ. eigenvalues --   -1.17391  -1.08334  -1.07904  -1.07760  -1.04985
 Alpha  occ. eigenvalues --   -1.03807  -1.03689  -1.02290  -0.92162  -0.92056
 Alpha  occ. eigenvalues --   -0.91402  -0.90221  -0.89668  -0.89278  -0.89134
 Alpha  occ. eigenvalues --   -0.88071  -0.87993  -0.87385  -0.86703  -0.86580
 Alpha  occ. eigenvalues --   -0.85537  -0.85078  -0.84234  -0.83219  -0.82844
 Alpha  occ. eigenvalues --   -0.81977  -0.81316  -0.81107  -0.80134  -0.78257
 Alpha  occ. eigenvalues --   -0.77753  -0.77200  -0.77143  -0.76781  -0.76477
 Alpha  occ. eigenvalues --   -0.75709  -0.75374  -0.74454  -0.73761  -0.72133
 Alpha  occ. eigenvalues --   -0.71154  -0.70195  -0.69900  -0.69602  -0.68360
 Alpha  occ. eigenvalues --   -0.67521  -0.67284  -0.65325  -0.64876  -0.64227
 Alpha  occ. eigenvalues --   -0.63481  -0.63440  -0.63211  -0.62935  -0.62041
 Alpha  occ. eigenvalues --   -0.61514  -0.60344  -0.59972  -0.59275  -0.58985
 Alpha  occ. eigenvalues --   -0.58296  -0.57854  -0.57570  -0.56707  -0.56616
 Alpha  occ. eigenvalues --   -0.55769  -0.55233  -0.55032  -0.54647  -0.54566
 Alpha  occ. eigenvalues --   -0.54344  -0.54116  -0.53810  -0.53196  -0.53072
 Alpha  occ. eigenvalues --   -0.52831  -0.52540  -0.52388  -0.52187  -0.51927
 Alpha  occ. eigenvalues --   -0.51793  -0.51465  -0.51158  -0.51115  -0.50874
 Alpha  occ. eigenvalues --   -0.50688  -0.50314  -0.50175  -0.49862  -0.49507
 Alpha  occ. eigenvalues --   -0.49198  -0.49118  -0.48727  -0.48635  -0.48411
 Alpha  occ. eigenvalues --   -0.48043  -0.47995  -0.47537  -0.47354  -0.47079
 Alpha  occ. eigenvalues --   -0.46910  -0.46626  -0.46382  -0.46102  -0.45937
 Alpha  occ. eigenvalues --   -0.45885  -0.45734  -0.45453  -0.45295  -0.45136
 Alpha  occ. eigenvalues --   -0.44889  -0.44747  -0.44644  -0.44533  -0.44329
 Alpha  occ. eigenvalues --   -0.44066  -0.43937  -0.43858  -0.43784  -0.43239
 Alpha  occ. eigenvalues --   -0.43128  -0.42770  -0.42506  -0.42385  -0.42303
 Alpha  occ. eigenvalues --   -0.42225  -0.41909  -0.41701  -0.41584  -0.41416
 Alpha  occ. eigenvalues --   -0.41307  -0.41247  -0.41067  -0.40747  -0.40681
 Alpha  occ. eigenvalues --   -0.40332  -0.40152  -0.39973  -0.39748  -0.39349
 Alpha  occ. eigenvalues --   -0.39205  -0.38809  -0.38468  -0.38264  -0.37748
 Alpha  occ. eigenvalues --   -0.37497  -0.37237  -0.36853  -0.36825  -0.36710
 Alpha  occ. eigenvalues --   -0.36168  -0.35863  -0.35846  -0.35525  -0.35293
 Alpha  occ. eigenvalues --   -0.35117  -0.35019  -0.34583  -0.33459  -0.33377
 Alpha  occ. eigenvalues --   -0.33127  -0.32684  -0.32499  -0.30714  -0.29983
 Alpha  occ. eigenvalues --   -0.29740  -0.29709  -0.28540  -0.27031  -0.22807
 Alpha  occ. eigenvalues --   -0.21693
 Alpha virt. eigenvalues --   -0.05801  -0.03056   0.01066   0.04675   0.05157
 Alpha virt. eigenvalues --    0.06206   0.06456   0.07111   0.07171   0.08309
 Alpha virt. eigenvalues --    0.09002   0.10628   0.11267   0.11311   0.11775

 Mulliken charges:
               1
     1  Mg   0.804810
     2  C    0.038342
     3  C   -0.232901
     4  C   -0.201818
     5  C   -0.157434
     6  N   -0.638530
     7  C    0.286504
     8  C   -0.158907
     9  C   -0.136364
    10  C    0.396110
    11  C   -0.283830
    12  C   -0.168551
    13  C   -0.269220
    14  C    0.596397
    15  O   -0.507892
    16  O   -0.497788
    17  N   -0.719467
    18  C    0.384576
    19  C   -0.022197
    20  C    0.016859
    21  C    0.301484
    22  C   -0.371948
    23  C   -0.039233
    24  C   -0.252436
    25  N   -0.695089
    26  C    0.301100
    27  C    0.008736
    28  C   -0.003966
    29  C    0.301015
    30  C   -0.379996
    31  C   -0.225775
    32  C   -0.298088
    33  N   -0.710377
    34  C    0.271699
    35  C    0.016904
    36  C    0.036248
    37  C    0.282452
    38  C   -0.377065
    39  C    0.377654
    40  O   -0.485227
    41  C   -0.325841
    42  C    0.649882
    43  O   -0.499790
    44  O   -0.454365
    45  C   -0.079099
    46  C    0.034754
    47  C   -0.147694
    48  C    0.088574
    49  C   -0.330624
    50  C   -0.221891
    51  C   -0.169267
    52  C   -0.164220
    53  C   -0.056409
    54  C   -0.324147
    55  C   -0.184028
    56  C   -0.163834
    57  C   -0.185754
    58  C   -0.068573
    59  C   -0.303746
    60  C   -0.143416
    61  C   -0.187877
    62  C   -0.192074
    63  C   -0.072214
    64  C   -0.310326
    65  C   -0.315404
    66  H    0.067501
    67  H    0.094412
    68  H    0.078632
    69  H    0.104733
    70  H    0.098730
    71  H    0.083077
    72  H    0.109249
    73  H    0.114095
    74  H    0.116954
    75  H    0.118241
    76  H    0.132180
    77  H    0.140558
    78  H    0.103876
    79  H    0.145004
    80  H    0.109569
    81  H    0.109597
    82  H    0.098669
    83  H    0.105231
    84  H    0.117129
    85  H    0.106001
    86  H    0.127877
    87  H    0.107952
    88  H    0.096035
    89  H    0.097276
    90  H    0.100634
    91  H    0.111220
    92  H    0.126266
    93  H    0.132240
    94  H    0.137973
    95  H    0.155977
    96  H    0.095678
    97  H    0.159475
    98  H    0.134621
    99  H    0.133558
   100  H    0.133040
   101  H    0.097469
   102  H    0.121287
   103  H    0.123658
   104  H    0.117258
   105  H    0.112534
   106  H    0.103480
   107  H    0.103785
   108  H    0.069808
   109  H    0.067471
   110  H    0.094356
   111  H    0.092437
   112  H    0.099343
   113  H    0.108714
   114  H    0.110747
   115  H    0.086512
   116  H    0.090024
   117  H    0.091587
   118  H    0.067288
   119  H    0.078460
   120  H    0.075504
   121  H    0.079339
   122  H    0.088170
   123  H    0.103390
   124  H    0.110687
   125  H    0.097428
   126  H    0.092409
   127  H    0.118604
   128  H    0.084760
   129  H    0.095077
   130  H    0.072013
   131  H    0.071290
   132  H    0.096622
   133  H    0.105632
   134  H    0.112583
   135  H    0.111555
   136  H    0.096631
   137  H    0.089422
 Sum of Mulliken charges =   0.00000

 Dipole moment (field-independent basis, Debye):
    X=              2.7766    Y=              5.1199    Z=              0.1626  Tot=              5.8266
 Quadrupole moment (field-independent basis, Debye-Ang):
   XX=           -334.6270   YY=           -390.2937   ZZ=           -398.6588
   XY=            -19.9066   XZ=             11.4287   YZ=              0.4262

 Normal termination of Gaussian 09 at Fri Jul  5 17:31:43 2019.
