 Gaussian 09, Revision D.01,
 Gaussian 09:  ES64L-G09RevD.01 24-Apr-2013

 -------------------------------------
 # td=(NStates=1) CAM-B3LYP/6-31G(d,p)
 -------------------------------------

 --
 TD
 --
 Symbolic Z-matrix:
 Charge =  0 Multiplicity = 1

                         Standard orientation:
 ---------------------------------------------------------------------
 Center     Atomic      Atomic             Coordinates (Angstroms)
 Number     Number       Type             X           Y           Z
 ---------------------------------------------------------------------
      1         12           0       -7.193265    0.574144    0.152690
      2          6           0       -4.812751   -1.956720    0.585432
      3          6           0       -4.875925    2.913266    1.013160
      4          6           0       -9.414125    3.115697   -0.499546
      5          6           0       -9.455258   -1.772135   -0.790202
      6          7           0       -5.233561    0.465774    0.666239
      7          6           0       -4.344738   -0.627091    0.844558
      8          6           0       -2.938948   -0.294403    1.305777
      9          6           0       -3.092780    1.187411    1.630709
     10          6           0       -4.465806    1.590049    1.051370
     11          6           0       -3.195155    1.364374    3.224213
     12          6           0       -1.997126   -0.600942    0.012703
     13          6           0       -0.540769   -0.316927    0.474540
     14          6           0        0.442318   -0.759429   -0.600372
     15          8           0        0.125684   -1.152978   -1.731473
     16          8           0        1.729591   -0.487845   -0.273882
     17          7           0       -7.147532    2.639047    0.193419
     18          6           0       -6.137031    3.350920    0.686701
     19          6           0       -6.468642    4.784945    0.787001
     20          6           0       -7.741286    4.936692    0.199049
     21          6           0       -8.133827    3.563731   -0.102159
     22          6           0       -5.543784    5.992116    1.112804
     23          6           0       -8.565893    6.058596    0.176107
     24          6           0       -8.300430    7.293183    0.736533
     25          7           0       -9.066581    0.608602   -0.448235
     26          6           0       -9.818628    1.729569   -0.590631
     27          6           0      -11.146661    1.473763   -1.122328
     28          6           0      -11.251605    0.103339   -1.219331
     29          6           0       -9.979833   -0.415191   -0.836748
     30          6           0      -12.290519    2.362428   -1.443695
     31          6           0      -12.358013   -0.801750   -1.681644
     32          6           0      -12.335969   -1.224172   -3.219059
     33          7           0       -7.169243   -1.418006   -0.242309
     34          6           0       -8.177797   -2.202375   -0.459501
     35          6           0       -7.763845   -3.613794   -0.431508
     36          6           0       -6.479312   -3.551166   -0.127270
     37          6           0       -6.172020   -2.184569    0.092554
     38          6           0       -8.571218   -4.788938   -0.939677
     39          6           0       -5.280024   -4.358373    0.201889
     40          8           0       -4.990800   -5.614070    0.252412
     41          6           0       -4.174287   -3.253775    0.591842
     42          6           0       -3.584130   -3.583314    1.944071
     43          8           0       -3.780265   -3.067051    2.994467
     44          8           0       -2.652937   -4.541347    1.772580
     45          6           0       -2.163478   -5.092793    3.085784
     46          6           0        2.786832   -0.740052   -1.274755
     47          6           0        4.104129   -0.593199   -0.572006
     48          6           0        5.162104    0.148271   -1.009574
     49          6           0        5.150110    1.021982   -2.220970
     50          6           0        6.498046    0.074076   -0.224523
     51          6           0        7.712316   -0.472069   -1.037995
     52          6           0        8.896438   -0.340608   -0.084784
     53          6           0       10.182211   -0.776245   -0.816284
     54          6           0       10.153041   -2.207707   -1.077160
     55          6           0       11.452069   -0.396368    0.072087
     56          6           0       12.809522   -0.545961   -0.693836
     57          6           0       13.940658    0.018525    0.173909
     58          6           0       15.437612   -0.153195   -0.560965
     59          6           0       15.820123   -1.641060   -0.768974
     60          6           0       16.436219    0.597383    0.325800
     61          6           0       17.847571    0.653354   -0.211784
     62          6           0       18.844455    1.344891    0.755461
     63          6           0       20.285276    1.521007    0.151787
     64          6           0       20.377912    2.350052   -1.102631
     65          6           0       21.082617    2.152857    1.244859
     66          1           0       -4.059260    3.534102    1.603655
     67          1           0      -10.116299    3.751391   -0.806509
     68          1           0      -10.216811   -2.416296   -0.902422
     69          1           0       -2.853473   -0.882774    2.120546
     70          1           0       -2.362576    1.913095    1.282446
     71          1           0       -2.221025    1.006501    3.685865
     72          1           0       -3.135934    2.364150    3.729183
     73          1           0       -4.048723    0.711747    3.612861
     74          1           0       -2.252617   -1.699030   -0.016903
     75          1           0       -2.194957   -0.049302   -0.854283
     76          1           0       -0.359253    0.704097    0.760245
     77          1           0       -0.362229   -0.854315    1.411183
     78          1           0       -5.803756    6.879031    0.565638
     79          1           0       -5.559256    6.255846    2.157550
     80          1           0       -4.490823    5.833710    0.785752
     81          1           0       -9.280283    5.972448   -0.565967
     82          1           0       -8.955056    8.014405    0.522842
     83          1           0       -7.412760    7.503829    1.371041
     84          1           0      -12.396850    2.644557   -2.596808
     85          1           0      -13.174346    1.919169   -1.389491
     86          1           0      -12.213016    3.350646   -0.763455
     87          1           0      -12.425626   -1.608353   -1.063563
     88          1           0      -13.369645   -0.251042   -1.706394
     89          1           0      -13.131432   -1.909314   -3.581798
     90          1           0      -12.155616   -0.313295   -3.752870
     91          1           0      -11.401471   -1.781614   -3.174144
     92          1           0       -9.039433   -4.483291   -1.831038
     93          1           0       -7.687630   -5.595034   -1.149608
     94          1           0       -9.219806   -4.820557   -0.072342
     95          1           0       -3.347526   -3.605302   -0.168941
     96          1           0       -1.664914   -4.196678    3.456391
     97          1           0       -2.960102   -5.315319    3.904231
     98          1           0       -1.480159   -5.927278    2.909670
     99          1           0        2.375017   -1.800783   -1.682158
    100          1           0        2.683702    0.005390   -2.039133
    101          1           0        4.152033   -1.269815    0.218181
    102          1           0        4.356749    1.048792   -2.912280
    103          1           0        5.295080    2.151288   -1.835887
    104          1           0        6.032629    0.725356   -2.861665
    105          1           0        6.551189    1.106446    0.186604
    106          1           0        6.091336   -0.386701    0.833351
    107          1           0        7.410578   -1.657272   -1.096328
    108          1           0        7.751358    0.042757   -1.878260
    109          1           0        8.942388    0.853496    0.262446
    110          1           0        8.829442   -0.861516    0.747622
    111          1           0       10.151339   -0.126628   -1.732135
    112          1           0        9.259958   -2.747357   -1.492546
    113          1           0       10.877044   -2.700320   -1.657564
    114          1           0       10.263830   -2.737561   -0.107372
    115          1           0       11.353022    0.629425    0.386342
    116          1           0       11.647700   -1.134170    0.946694
    117          1           0       12.926340   -1.667207   -0.759754
    118          1           0       12.677530   -0.300921   -1.659021
    119          1           0       13.760098    1.124156    0.490382
    120          1           0       13.780308   -0.370964    1.172141
    121          1           0       15.252844    0.431184   -1.498143
    122          1           0       15.837223   -2.270344    0.233628
    123          1           0       15.120980   -2.129345   -1.293294
    124          1           0       16.739467   -1.555438   -1.183276
    125          1           0       15.934707    1.576625    0.768799
    126          1           0       16.518367    0.051512    1.260552
    127          1           0       18.170844   -0.446349   -0.492389
    128          1           0       17.916784    1.071901   -1.229730
    129          1           0       18.316568    2.249214    1.125900
    130          1           0       19.005054    0.683174    1.530338
    131          1           0       20.661802    0.459517   -0.029534
    132          1           0       19.678730    3.211553   -0.795955
    133          1           0       21.434987    2.710204   -1.537429
    134          1           0       19.791806    1.784237   -1.984281
    135          1           0       21.184807    1.507788    2.086019
    136          1           0       22.059459    2.286825    0.726485
    137          1           0       20.647182    3.121657    1.606459
 ---------------------------------------------------------------------

 SCF Done:  E(RCAM-B3LYP) =  -2932.71125814     A.U. after   18 cycles

 Excitation energies and oscillator strengths:

 Excited State   1:      Singlet-A      2.0234 eV  612.74 nm  f=0.2327  <S**2>=0.000
     240 -> 243       -0.24275
     241 -> 242        0.65581
 This state for optimization and/or second-order correction.
 Total Energy, E(TD-HF/TD-KS) =  -2932.63689850
 Copying the excited state density for this state as the 1-particle RhoCI density.

 The electronic state is 1-A.
 Alpha  occ. eigenvalues --  -46.83567 -19.25447 -19.24935 -19.20716 -19.20711
 Alpha  occ. eigenvalues --  -19.20105 -14.41815 -14.39646 -14.39314 -14.39105
 Alpha  occ. eigenvalues --  -10.38769 -10.38314 -10.36353 -10.31810 -10.31573
 Alpha  occ. eigenvalues --  -10.31523 -10.30891 -10.29801 -10.29256 -10.28983
 Alpha  occ. eigenvalues --  -10.28835 -10.28678 -10.28518 -10.28481 -10.28392
 Alpha  occ. eigenvalues --  -10.28109 -10.27671 -10.27519 -10.27436 -10.27364
 Alpha  occ. eigenvalues --  -10.27219 -10.27171 -10.27130 -10.27044 -10.26957
 Alpha  occ. eigenvalues --  -10.26877 -10.26850 -10.26747 -10.26705 -10.26691
 Alpha  occ. eigenvalues --  -10.26571 -10.26499 -10.26467 -10.26403 -10.26362
 Alpha  occ. eigenvalues --  -10.26309 -10.26059 -10.25978 -10.25958 -10.25844
 Alpha  occ. eigenvalues --  -10.25804 -10.25700 -10.25681 -10.25593 -10.25541
 Alpha  occ. eigenvalues --  -10.25414 -10.25377 -10.25207 -10.25150 -10.25060
 Alpha  occ. eigenvalues --  -10.24651 -10.24195 -10.24112 -10.23966 -10.23783
 Alpha  occ. eigenvalues --   -3.12886  -1.87560  -1.87127  -1.87103  -1.17973
 Alpha  occ. eigenvalues --   -1.16116  -1.08864  -1.07849  -1.07004  -1.06829
 Alpha  occ. eigenvalues --   -1.04045  -1.02041  -1.01605  -0.92650  -0.91367
 Alpha  occ. eigenvalues --   -0.90072  -0.89920  -0.89693  -0.89393  -0.88973
 Alpha  occ. eigenvalues --   -0.88440  -0.88041  -0.87677  -0.86854  -0.85740
 Alpha  occ. eigenvalues --   -0.85033  -0.83823  -0.83540  -0.82918  -0.82257
 Alpha  occ. eigenvalues --   -0.81273  -0.80841  -0.80447  -0.80037  -0.78329
 Alpha  occ. eigenvalues --   -0.77972  -0.77324  -0.76271  -0.75630  -0.75554
 Alpha  occ. eigenvalues --   -0.74935  -0.74919  -0.74273  -0.72966  -0.72355
 Alpha  occ. eigenvalues --   -0.71547  -0.70621  -0.69794  -0.69391  -0.68510
 Alpha  occ. eigenvalues --   -0.68325  -0.67057  -0.65801  -0.65330  -0.64566
 Alpha  occ. eigenvalues --   -0.64242  -0.64031  -0.62827  -0.61880  -0.61591
 Alpha  occ. eigenvalues --   -0.61344  -0.60420  -0.60308  -0.59736  -0.59505
 Alpha  occ. eigenvalues --   -0.58181  -0.58140  -0.57943  -0.56757  -0.56447
 Alpha  occ. eigenvalues --   -0.55830  -0.55430  -0.55116  -0.54798  -0.54232
 Alpha  occ. eigenvalues --   -0.53944  -0.53915  -0.53658  -0.53349  -0.52987
 Alpha  occ. eigenvalues --   -0.52836  -0.52487  -0.52376  -0.52158  -0.51938
 Alpha  occ. eigenvalues --   -0.51389  -0.51294  -0.50864  -0.50641  -0.50581
 Alpha  occ. eigenvalues --   -0.50445  -0.50085  -0.50024  -0.49619  -0.49609
 Alpha  occ. eigenvalues --   -0.49467  -0.49116  -0.48891  -0.48790  -0.48153
 Alpha  occ. eigenvalues --   -0.48076  -0.47804  -0.47584  -0.47543  -0.47091
 Alpha  occ. eigenvalues --   -0.46913  -0.46728  -0.46575  -0.46459  -0.46423
 Alpha  occ. eigenvalues --   -0.46015  -0.45683  -0.45444  -0.45171  -0.44739
 Alpha  occ. eigenvalues --   -0.44623  -0.44298  -0.44271  -0.44039  -0.43913
 Alpha  occ. eigenvalues --   -0.43749  -0.43683  -0.43124  -0.43084  -0.43000
 Alpha  occ. eigenvalues --   -0.42892  -0.42674  -0.42317  -0.42246  -0.42142
 Alpha  occ. eigenvalues --   -0.41928  -0.41765  -0.41701  -0.41538  -0.41430
 Alpha  occ. eigenvalues --   -0.41246  -0.41026  -0.40611  -0.40473  -0.40407
 Alpha  occ. eigenvalues --   -0.40200  -0.40088  -0.39802  -0.39569  -0.39223
 Alpha  occ. eigenvalues --   -0.39204  -0.38599  -0.38310  -0.38178  -0.38069
 Alpha  occ. eigenvalues --   -0.37896  -0.37240  -0.37097  -0.37021  -0.36848
 Alpha  occ. eigenvalues --   -0.36755  -0.36434  -0.36283  -0.35878  -0.35448
 Alpha  occ. eigenvalues --   -0.35391  -0.35067  -0.34870  -0.34208  -0.33643
 Alpha  occ. eigenvalues --   -0.33253  -0.32222  -0.32026  -0.30585  -0.30362
 Alpha  occ. eigenvalues --   -0.29826  -0.29298  -0.28253  -0.26857  -0.22883
 Alpha  occ. eigenvalues --   -0.20821
 Alpha virt. eigenvalues --   -0.06047  -0.03186   0.01085   0.03264   0.05187
 Alpha virt. eigenvalues --    0.05390   0.06437   0.06533   0.07257   0.07477
 Alpha virt. eigenvalues --    0.08432   0.10685   0.11445   0.11910   0.12261

 Mulliken charges:
               1
     1  Mg   0.819105
     2  C    0.087620
     3  C   -0.210370
     4  C   -0.147898
     5  C   -0.169104
     6  N   -0.640818
     7  C    0.270101
     8  C   -0.137978
     9  C   -0.153355
    10  C    0.341681
    11  C   -0.321752
    12  C   -0.152764
    13  C   -0.275682
    14  C    0.606918
    15  O   -0.490569
    16  O   -0.495321
    17  N   -0.693897
    18  C    0.346026
    19  C   -0.016914
    20  C    0.044913
    21  C    0.267364
    22  C   -0.385410
    23  C   -0.077258
    24  C   -0.234171
    25  N   -0.688121
    26  C    0.298920
    27  C    0.013961
    28  C    0.053419
    29  C    0.224626
    30  C   -0.362944
    31  C   -0.260288
    32  C   -0.308563
    33  N   -0.686648
    34  C    0.288700
    35  C   -0.044187
    36  C    0.043696
    37  C    0.266738
    38  C   -0.336489
    39  C    0.370764
    40  O   -0.493912
    41  C   -0.383711
    42  C    0.648285
    43  O   -0.473441
    44  O   -0.470535
    45  C   -0.091404
    46  C    0.016620
    47  C   -0.116482
    48  C    0.099977
    49  C   -0.359875
    50  C   -0.235305
    51  C   -0.156656
    52  C   -0.146793
    53  C   -0.062334
    54  C   -0.320856
    55  C   -0.185759
    56  C   -0.181440
    57  C   -0.187848
    58  C   -0.063424
    59  C   -0.297160
    60  C   -0.164199
    61  C   -0.190695
    62  C   -0.170253
    63  C   -0.066069
    64  C   -0.286312
    65  C   -0.290047
    66  H    0.084142
    67  H    0.069774
    68  H    0.068905
    69  H    0.140008
    70  H    0.107254
    71  H    0.098021
    72  H    0.110096
    73  H    0.127868
    74  H    0.123763
    75  H    0.137976
    76  H    0.141707
    77  H    0.135492
    78  H    0.130039
    79  H    0.124048
    80  H    0.111672
    81  H    0.091034
    82  H    0.101102
    83  H    0.106869
    84  H    0.097754
    85  H    0.131250
    86  H    0.099134
    87  H    0.115902
    88  H    0.091121
    89  H    0.109930
    90  H    0.117938
    91  H    0.105774
    92  H    0.137250
    93  H    0.137892
    94  H    0.140031
    95  H    0.175814
    96  H    0.131899
    97  H    0.134288
    98  H    0.132693
    99  H    0.123567
   100  H    0.115577
   101  H    0.091676
   102  H    0.126713
   103  H    0.102346
   104  H    0.112599
   105  H    0.103383
   106  H    0.085154
   107  H    0.099924
   108  H    0.111971
   109  H    0.058866
   110  H    0.108583
   111  H    0.077382
   112  H    0.095688
   113  H    0.112201
   114  H    0.096149
   115  H    0.092831
   116  H    0.081942
   117  H    0.084732
   118  H    0.098651
   119  H    0.068469
   120  H    0.090422
   121  H    0.090329
   122  H    0.083860
   123  H    0.114354
   124  H    0.113106
   125  H    0.071053
   126  H    0.094375
   127  H    0.073336
   128  H    0.089147
   129  H    0.090868
   130  H    0.106267
   131  H    0.079263
   132  H    0.096039
   133  H    0.093768
   134  H    0.083629
   135  H    0.103080
   136  H    0.089806
   137  H    0.096031
 Sum of Mulliken charges =   0.00000

 Dipole moment (field-independent basis, Debye):
    X=              2.3836    Y=              4.1194    Z=              0.9835  Tot=              4.8599
 Quadrupole moment (field-independent basis, Debye-Ang):
   XX=           -342.0498   YY=           -396.2450   ZZ=           -394.1826
   XY=            -23.7472   XZ=              8.8376   YZ=             -2.3728

 Normal termination of Gaussian 09 at Fri Jul  5 06:50:07 2019.
