 Gaussian 09, Revision D.01,
 Gaussian 09:  ES64L-G09RevD.01 24-Apr-2013

 -------------------------------------
 # td=(NStates=1) CAM-B3LYP/6-31G(d,p)
 -------------------------------------

 --
 TD
 --
 Symbolic Z-matrix:
 Charge =  0 Multiplicity = 1

                         Standard orientation:
 ---------------------------------------------------------------------
 Center     Atomic      Atomic             Coordinates (Angstroms)
 Number     Number       Type             X           Y           Z
 ---------------------------------------------------------------------
      1         12           0       -7.104900    0.736463    0.047988
      2          6           0       -4.879846   -2.011967    0.476700
      3          6           0       -4.672198    2.783546    1.124915
      4          6           0       -9.223416    3.179094   -0.303118
      5          6           0       -9.586917   -1.712987   -0.817728
      6          7           0       -5.097463    0.414335    0.785326
      7          6           0       -4.438723   -0.800642    0.765303
      8          6           0       -2.951333   -0.470463    1.238406
      9          6           0       -2.977366    0.971360    1.578013
     10          6           0       -4.326792    1.420893    1.183630
     11          6           0       -2.729588    1.316081    3.074258
     12          6           0       -1.925833   -0.769058    0.043967
     13          6           0       -0.518278   -0.679828    0.527451
     14          6           0        0.544494   -0.833473   -0.655468
     15          8           0        0.157434   -1.193224   -1.860756
     16          8           0        1.778686   -0.630947   -0.246721
     17          7           0       -6.890674    2.728267    0.381174
     18          6           0       -5.851552    3.444916    0.676021
     19          6           0       -6.215083    4.800283    0.791700
     20          6           0       -7.506913    4.892979    0.404134
     21          6           0       -7.990783    3.594713    0.241924
     22          6           0       -5.292459    5.916310    0.979028
     23          6           0       -8.396743    6.072312    0.183594
     24          6           0       -8.226807    7.230532    0.816959
     25          7           0       -9.004491    0.734268   -0.432379
     26          6           0       -9.768003    1.949767   -0.611674
     27          6           0      -11.146997    1.624012   -1.060438
     28          6           0      -11.212550    0.290144   -1.213621
     29          6           0       -9.901984   -0.321601   -0.881808
     30          6           0      -12.282224    2.586748   -1.323055
     31          6           0      -12.322198   -0.537316   -1.744187
     32          6           0      -12.279557   -0.937719   -3.229345
     33          7           0       -7.250479   -1.296193   -0.097222
     34          6           0       -8.313044   -2.096178   -0.523208
     35          6           0       -7.989638   -3.556943   -0.415023
     36          6           0       -6.612005   -3.538117   -0.096714
     37          6           0       -6.215864   -2.148234    0.138214
     38          6           0       -8.822730   -4.636954   -0.724590
     39          6           0       -5.456587   -4.402262    0.202193
     40          8           0       -5.395427   -5.601460    0.230123
     41          6           0       -4.301384   -3.370408    0.478680
     42          6           0       -3.567975   -3.801262    1.739515
     43          8           0       -3.750887   -3.150080    2.838325
     44          8           0       -2.799037   -4.919888    1.684183
     45          6           0       -2.207561   -5.302443    2.874624
     46          6           0        2.777576   -0.953420   -1.309288
     47          6           0        4.083749   -0.652372   -0.688689
     48          6           0        5.114184    0.224545   -1.046766
     49          6           0        5.009783    1.113296   -2.258764
     50          6           0        6.287191    0.229634   -0.184952
     51          6           0        7.633779   -0.326093   -0.976493
     52          6           0        8.850859   -0.168920   -0.123645
     53          6           0       10.188592   -0.651717   -0.832123
     54          6           0       10.059299   -2.066255   -1.331108
     55          6           0       11.346594   -0.277728    0.085372
     56          6           0       12.730025   -0.574659   -0.527608
     57          6           0       13.864506   -0.210285    0.394767
     58          6           0       15.292481   -0.160340   -0.416765
     59          6           0       15.619813   -1.506502   -0.751483
     60          6           0       16.384095    0.533266    0.548520
     61          6           0       17.722937    0.735242   -0.139574
     62          6           0       18.774549    1.404964    0.773242
     63          6           0       20.230220    1.457234    0.142099
     64          6           0       20.247760    2.222530   -1.132714
     65          6           0       21.217336    1.989477    1.125870
     66          1           0       -3.848770    3.462003    1.568847
     67          1           0       -9.793557    4.187819   -0.643107
     68          1           0      -10.274587   -2.517607   -1.007403
     69          1           0       -2.601192   -1.032749    2.228492
     70          1           0       -1.974456    1.542117    1.038755
     71          1           0       -1.942551    0.571037    3.630099
     72          1           0       -2.647513    2.379254    3.362442
     73          1           0       -3.691419    0.897896    3.660900
     74          1           0       -2.140240   -1.788051   -0.456834
     75          1           0       -2.212751   -0.074334   -0.807981
     76          1           0       -0.420504    0.403197    0.788243
     77          1           0       -0.349152   -1.369090    1.296913
     78          1           0       -5.660967    6.763216    0.278688
     79          1           0       -5.379918    6.564865    2.022914
     80          1           0       -4.167088    5.628629    0.793582
     81          1           0       -9.156669    6.213308   -0.442976
     82          1           0       -8.943428    7.984552    0.899313
     83          1           0       -7.759764    7.296822    1.842541
     84          1           0      -12.146986    3.328734   -2.056516
     85          1           0      -13.115590    2.036061   -1.634984
     86          1           0      -12.484104    2.921873   -0.371066
     87          1           0      -12.363515   -1.477994   -1.145391
     88          1           0      -13.249598    0.158655   -1.590009
     89          1           0      -13.310220   -1.477836   -3.595419
     90          1           0      -12.150925    0.077548   -3.816551
     91          1           0      -11.426094   -1.463788   -3.501244
     92          1           0       -9.328167   -4.655435   -1.799181
     93          1           0       -8.492184   -5.580498   -0.611744
     94          1           0       -9.837984   -4.844863   -0.140545
     95          1           0       -3.562235   -3.660207   -0.215620
     96          1           0       -1.889312   -4.236225    3.149092
     97          1           0       -2.792989   -5.746962    3.495049
     98          1           0       -1.223075   -5.908356    2.549098
     99          1           0        2.641739   -1.998770   -1.679706
    100          1           0        2.659306   -0.202677   -2.104656
    101          1           0        4.309861   -1.124919    0.354488
    102          1           0        4.040406    1.288795   -2.736959
    103          1           0        5.589960    2.069420   -2.088708
    104          1           0        5.563028    0.690195   -3.127327
    105          1           0        6.614042    1.309388   -0.101374
    106          1           0        5.946244   -0.235389    0.705408
    107          1           0        7.341728   -1.286606   -1.135686
    108          1           0        7.899245    0.047074   -1.948952
    109          1           0        9.128711    0.837932    0.335724
    110          1           0        8.585403   -0.815608    0.724676
    111          1           0       10.125949   -0.118985   -1.802401
    112          1           0        8.930602   -2.265889   -1.708314
    113          1           0       10.998105   -2.506852   -1.895387
    114          1           0        9.957240   -2.936255   -0.485984
    115          1           0       11.471966    0.762521    0.437030
    116          1           0       11.084533   -1.137421    0.830248
    117          1           0       12.925770   -1.674043   -0.743248
    118          1           0       12.887967   -0.179885   -1.493367
    119          1           0       13.837608    0.893842    0.665109
    120          1           0       13.905817   -0.969129    1.247776
    121          1           0       15.059677    0.724865   -1.275723
    122          1           0       15.944829   -2.126729    0.074857
    123          1           0       14.874495   -1.858617   -1.465982
    124          1           0       16.601537   -1.661935   -1.288726
    125          1           0       15.981061    1.592470    0.807865
    126          1           0       16.440191    0.127584    1.625752
    127          1           0       18.263968   -0.199078   -0.700760
    128          1           0       17.562585    1.337108   -0.948113
    129          1           0       18.414257    2.338866    1.024883
    130          1           0       18.798313    0.790354    1.831539
    131          1           0       20.597675    0.384817   -0.255970
    132          1           0       19.554454    3.264410   -1.040890
    133          1           0       21.338586    2.415457   -1.488418
    134          1           0       19.849428    1.522443   -1.896560
    135          1           0       21.558784    1.278661    1.873818
    136          1           0       22.177336    2.248082    0.542071
    137          1           0       20.696139    2.807024    1.633299
 ---------------------------------------------------------------------

 SCF Done:  E(RCAM-B3LYP) =  -2932.63300998     A.U. after   16 cycles

 Excitation energies and oscillator strengths:

 Excited State   1:      Singlet-A      1.9692 eV  629.60 nm  f=0.2819  <S**2>=0.000
     240 -> 243       -0.22326
     241 -> 242        0.65979
 This state for optimization and/or second-order correction.
 Total Energy, E(TD-HF/TD-KS) =  -2932.56064181
 Copying the excited state density for this state as the 1-particle RhoCI density.

 The electronic state is 1-A.
 Alpha  occ. eigenvalues --  -46.83516 -19.28106 -19.27024 -19.21195 -19.20351
 Alpha  occ. eigenvalues --  -19.19895 -14.41382 -14.40211 -14.40021 -14.38469
 Alpha  occ. eigenvalues --  -10.40025 -10.39842 -10.35762 -10.32967 -10.30858
 Alpha  occ. eigenvalues --  -10.30843 -10.30252 -10.30077 -10.29752 -10.29638
 Alpha  occ. eigenvalues --  -10.29566 -10.29254 -10.29011 -10.28617 -10.28525
 Alpha  occ. eigenvalues --  -10.28443 -10.28396 -10.28117 -10.27728 -10.27555
 Alpha  occ. eigenvalues --  -10.27530 -10.27500 -10.27409 -10.27398 -10.27389
 Alpha  occ. eigenvalues --  -10.27210 -10.26935 -10.26902 -10.26873 -10.26834
 Alpha  occ. eigenvalues --  -10.26831 -10.26830 -10.26813 -10.26782 -10.26691
 Alpha  occ. eigenvalues --  -10.26548 -10.26521 -10.26427 -10.26347 -10.26315
 Alpha  occ. eigenvalues --  -10.26314 -10.26055 -10.26026 -10.25968 -10.25849
 Alpha  occ. eigenvalues --  -10.25730 -10.25691 -10.25678 -10.25636 -10.25262
 Alpha  occ. eigenvalues --  -10.25241 -10.24737 -10.24630 -10.24340 -10.24179
 Alpha  occ. eigenvalues --   -3.12729  -1.87420  -1.87003  -1.86889  -1.18591
 Alpha  occ. eigenvalues --   -1.18092  -1.12511  -1.06351  -1.05080  -1.04340
 Alpha  occ. eigenvalues --   -1.04189  -1.02937  -0.99685  -0.93895  -0.91695
 Alpha  occ. eigenvalues --   -0.90460  -0.89796  -0.89667  -0.89363  -0.89046
 Alpha  occ. eigenvalues --   -0.88733  -0.88469  -0.87736  -0.86936  -0.85839
 Alpha  occ. eigenvalues --   -0.85341  -0.84515  -0.84049  -0.83584  -0.83204
 Alpha  occ. eigenvalues --   -0.82304  -0.81700  -0.81001  -0.80422  -0.78419
 Alpha  occ. eigenvalues --   -0.77680  -0.77266  -0.77083  -0.76090  -0.75324
 Alpha  occ. eigenvalues --   -0.74874  -0.74565  -0.74135  -0.72547  -0.72002
 Alpha  occ. eigenvalues --   -0.71510  -0.69845  -0.69395  -0.68378  -0.68019
 Alpha  occ. eigenvalues --   -0.67251  -0.66808  -0.65465  -0.64723  -0.64346
 Alpha  occ. eigenvalues --   -0.63932  -0.63073  -0.62856  -0.62646  -0.61786
 Alpha  occ. eigenvalues --   -0.61142  -0.60804  -0.60063  -0.59779  -0.59553
 Alpha  occ. eigenvalues --   -0.58951  -0.58566  -0.57952  -0.57598  -0.57033
 Alpha  occ. eigenvalues --   -0.56747  -0.56226  -0.55902  -0.55449  -0.55377
 Alpha  occ. eigenvalues --   -0.54511  -0.54143  -0.53629  -0.53581  -0.53378
 Alpha  occ. eigenvalues --   -0.53070  -0.52649  -0.52550  -0.51703  -0.51599
 Alpha  occ. eigenvalues --   -0.51476  -0.51361  -0.51186  -0.50792  -0.50628
 Alpha  occ. eigenvalues --   -0.50425  -0.50192  -0.49969  -0.49898  -0.49762
 Alpha  occ. eigenvalues --   -0.49651  -0.49208  -0.49071  -0.48691  -0.48540
 Alpha  occ. eigenvalues --   -0.48307  -0.47943  -0.47844  -0.47196  -0.46814
 Alpha  occ. eigenvalues --   -0.46666  -0.46269  -0.46186  -0.45743  -0.45562
 Alpha  occ. eigenvalues --   -0.45315  -0.45141  -0.45028  -0.44865  -0.44620
 Alpha  occ. eigenvalues --   -0.44563  -0.44427  -0.44353  -0.44120  -0.44003
 Alpha  occ. eigenvalues --   -0.43772  -0.43592  -0.43529  -0.43520  -0.42839
 Alpha  occ. eigenvalues --   -0.42772  -0.42741  -0.42410  -0.42373  -0.42246
 Alpha  occ. eigenvalues --   -0.42171  -0.42077  -0.41583  -0.41298  -0.40992
 Alpha  occ. eigenvalues --   -0.40637  -0.40609  -0.40311  -0.39988  -0.39955
 Alpha  occ. eigenvalues --   -0.39718  -0.39513  -0.39394  -0.39349  -0.39196
 Alpha  occ. eigenvalues --   -0.38854  -0.38770  -0.38057  -0.37896  -0.37706
 Alpha  occ. eigenvalues --   -0.37494  -0.37233  -0.36984  -0.36439  -0.36346
 Alpha  occ. eigenvalues --   -0.36054  -0.35891  -0.35702  -0.35572  -0.35440
 Alpha  occ. eigenvalues --   -0.35359  -0.34997  -0.34680  -0.33212  -0.32835
 Alpha  occ. eigenvalues --   -0.32676  -0.32048  -0.31977  -0.30826  -0.30518
 Alpha  occ. eigenvalues --   -0.29712  -0.28740  -0.28542  -0.27528  -0.23403
 Alpha  occ. eigenvalues --   -0.21010
 Alpha virt. eigenvalues --   -0.06895  -0.02886   0.01326   0.03791   0.04493
 Alpha virt. eigenvalues --    0.04759   0.05417   0.05723   0.06695   0.07655
 Alpha virt. eigenvalues --    0.08231   0.10532   0.10967   0.11352   0.11597

 Mulliken charges:
               1
     1  Mg   0.827430
     2  C    0.192490
     3  C   -0.204835
     4  C   -0.182925
     5  C   -0.150991
     6  N   -0.659090
     7  C    0.266962
     8  C   -0.165670
     9  C   -0.120902
    10  C    0.386874
    11  C   -0.312297
    12  C   -0.176161
    13  C   -0.242216
    14  C    0.589266
    15  O   -0.525285
    16  O   -0.443358
    17  N   -0.690756
    18  C    0.324878
    19  C    0.033790
    20  C    0.041468
    21  C    0.255031
    22  C   -0.386911
    23  C   -0.069037
    24  C   -0.261286
    25  N   -0.694655
    26  C    0.276386
    27  C    0.021288
    28  C    0.029546
    29  C    0.251615
    30  C   -0.358523
    31  C   -0.235393
    32  C   -0.288592
    33  N   -0.718704
    34  C    0.267000
    35  C    0.100656
    36  C   -0.035113
    37  C    0.272148
    38  C   -0.427950
    39  C    0.383372
    40  O   -0.442550
    41  C   -0.338195
    42  C    0.611754
    43  O   -0.512280
    44  O   -0.437993
    45  C   -0.064395
    46  C    0.010238
    47  C   -0.161987
    48  C    0.153551
    49  C   -0.381720
    50  C   -0.241641
    51  C   -0.203183
    52  C   -0.166817
    53  C   -0.058351
    54  C   -0.310769
    55  C   -0.159595
    56  C   -0.190196
    57  C   -0.171078
    58  C   -0.052126
    59  C   -0.300910
    60  C   -0.187540
    61  C   -0.164282
    62  C   -0.167548
    63  C   -0.046021
    64  C   -0.280229
    65  C   -0.293561
    66  H    0.072014
    67  H    0.084283
    68  H    0.103691
    69  H    0.119682
    70  H    0.076974
    71  H    0.091569
    72  H    0.120181
    73  H    0.102206
    74  H    0.103021
    75  H    0.116751
    76  H    0.128101
    77  H    0.138786
    78  H    0.121827
    79  H    0.094385
    80  H    0.104768
    81  H    0.102634
    82  H    0.100299
    83  H    0.094378
    84  H    0.128267
    85  H    0.112300
    86  H    0.139076
    87  H    0.102795
    88  H    0.088522
    89  H    0.090144
    90  H    0.089951
    91  H    0.122704
    92  H    0.118803
    93  H    0.157318
    94  H    0.112446
    95  H    0.170662
    96  H    0.121289
    97  H    0.142070
    98  H    0.103784
    99  H    0.148899
   100  H    0.131194
   101  H    0.072888
   102  H    0.124694
   103  H    0.111267
   104  H    0.123694
   105  H    0.099470
   106  H    0.112793
   107  H    0.121750
   108  H    0.101597
   109  H    0.087557
   110  H    0.090648
   111  H    0.083504
   112  H    0.098631
   113  H    0.104382
   114  H    0.065125
   115  H    0.099758
   116  H    0.094950
   117  H    0.086544
   118  H    0.096015
   119  H    0.075780
   120  H    0.091062
   121  H    0.059886
   122  H    0.115661
   123  H    0.107459
   124  H    0.087034
   125  H    0.074722
   126  H    0.084320
   127  H    0.066243
   128  H    0.111866
   129  H    0.102199
   130  H    0.063279
   131  H    0.062534
   132  H    0.068694
   133  H    0.090176
   134  H    0.105399
   135  H    0.105358
   136  H    0.083942
   137  H    0.101222
 Sum of Mulliken charges =   0.00000

 Dipole moment (field-independent basis, Debye):
    X=              1.4875    Y=              2.6456    Z=             -0.9725  Tot=              3.1871
 Quadrupole moment (field-independent basis, Debye-Ang):
   XX=           -328.8845   YY=           -393.7587   ZZ=           -402.2218
   XY=            -16.7485   XZ=             12.5542   YZ=             -1.8860

 Normal termination of Gaussian 09 at Thu Jul  4 15:14:48 2019.
