 Gaussian 09, Revision D.01,
 Gaussian 09:  ES64L-G09RevD.01 24-Apr-2013

 -------------------------------------
 # td=(NStates=1) CAM-B3LYP/6-31G(d,p)
 -------------------------------------

 --
 TD
 --
 Symbolic Z-matrix:
 Charge =  0 Multiplicity = 1

                         Standard orientation:
 ---------------------------------------------------------------------
 Center     Atomic      Atomic             Coordinates (Angstroms)
 Number     Number       Type             X           Y           Z
 ---------------------------------------------------------------------
      1         12           0       -7.123712    0.564689    0.038300
      2          6           0       -4.920404   -1.967215    0.535891
      3          6           0       -4.845061    2.781361    1.170522
      4          6           0       -9.400420    3.150578   -0.422625
      5          6           0       -9.503084   -1.797234   -0.847545
      6          7           0       -5.064468    0.440139    0.767194
      7          6           0       -4.298561   -0.776689    0.761064
      8          6           0       -2.912935   -0.484611    1.281202
      9          6           0       -3.057869    1.121435    1.690736
     10          6           0       -4.386960    1.501831    1.168879
     11          6           0       -2.958820    1.347886    3.205791
     12          6           0       -1.939198   -0.683485    0.155434
     13          6           0       -0.486204   -0.465576    0.644721
     14          6           0        0.457757   -0.724221   -0.413479
     15          8           0        0.322104   -0.961702   -1.607364
     16          8           0        1.778282   -0.570372    0.041945
     17          7           0       -7.050273    2.627586    0.291754
     18          6           0       -6.108472    3.348825    0.685226
     19          6           0       -6.433860    4.813682    0.774675
     20          6           0       -7.637357    4.789285    0.312398
     21          6           0       -8.075419    3.491974    0.026390
     22          6           0       -5.525938    5.918116    1.267822
     23          6           0       -8.561515    5.968104    0.159876
     24          6           0       -8.487747    7.049818    0.875672
     25          7           0       -9.121185    0.664744   -0.603874
     26          6           0       -9.853929    1.787089   -0.782289
     27          6           0      -11.148508    1.565876   -1.213504
     28          6           0      -11.173289    0.111567   -1.272825
     29          6           0       -9.914299   -0.397242   -0.891709
     30          6           0      -12.282477    2.461983   -1.644256
     31          6           0      -12.374808   -0.694389   -1.733155
     32          6           0      -12.222709   -1.036241   -3.304945
     33          7           0       -7.168466   -1.346240   -0.204612
     34          6           0       -8.201327   -2.231173   -0.471189
     35          6           0       -7.990777   -3.635189   -0.357408
     36          6           0       -6.543373   -3.545818   -0.085602
     37          6           0       -6.195469   -2.174750    0.043736
     38          6           0       -8.811026   -4.860283   -0.718570
     39          6           0       -5.388375   -4.353791    0.183956
     40          8           0       -5.190837   -5.547355    0.231493
     41          6           0       -4.145800   -3.299483    0.488525
     42          6           0       -3.550820   -3.660610    1.865175
     43          8           0       -3.681487   -3.103315    2.864662
     44          8           0       -2.646338   -4.745248    1.692341
     45          6           0       -2.078324   -5.223351    2.858601
     46          6           0        2.777209   -0.706457   -1.119825
     47          6           0        4.106684   -0.443130   -0.439791
     48          6           0        5.018142    0.356544   -0.953392
     49          6           0        4.968523    1.107307   -2.149643
     50          6           0        6.411416    0.405483   -0.200874
     51          6           0        7.599628   -0.077349   -1.054974
     52          6           0        8.892924    0.068334   -0.130407
     53          6           0       10.170478   -0.442029   -0.900902
     54          6           0        9.995719   -1.950162   -1.242057
     55          6           0       11.411370   -0.272330   -0.026955
     56          6           0       12.693195   -0.405343   -0.760189
     57          6           0       13.863229    0.114540    0.152210
     58          6           0       15.343191   -0.096472   -0.544715
     59          6           0       15.655992   -1.570013   -0.896857
     60          6           0       16.453140    0.419575    0.459494
     61          6           0       17.916750    0.555263   -0.096337
     62          6           0       18.897823    1.379394    0.761860
     63          6           0       20.306022    1.190714    0.191686
     64          6           0       20.387955    1.803452   -1.205751
     65          6           0       21.284165    1.835363    1.192722
     66          1           0       -4.250457    3.460137    1.725951
     67          1           0      -10.248575    3.954272   -0.413038
     68          1           0      -10.121018   -2.522258   -0.992405
     69          1           0       -2.775039   -1.083330    2.105548
     70          1           0       -2.127392    1.637050    1.295402
     71          1           0       -1.959413    1.198192    3.630159
     72          1           0       -3.069773    2.441648    3.354478
     73          1           0       -3.681886    0.675610    3.989603
     74          1           0       -1.939890   -1.754411   -0.293117
     75          1           0       -1.925580   -0.010260   -0.721921
     76          1           0       -0.395732    0.504996    0.879089
     77          1           0       -0.100570   -1.015375    1.436491
     78          1           0       -5.434793    6.787790    0.415524
     79          1           0       -6.064358    6.219406    2.180006
     80          1           0       -4.335326    5.620972    1.349707
     81          1           0       -9.360912    5.969356   -0.762754
     82          1           0       -9.060981    7.935354    0.714478
     83          1           0       -7.775626    6.962580    1.773621
     84          1           0      -12.299348    3.035648   -2.682426
     85          1           0      -13.243088    2.231734   -1.649670
     86          1           0      -12.169809    3.277463   -0.740993
     87          1           0      -12.335128   -1.649662   -1.079588
     88          1           0      -13.323295   -0.393364   -1.636443
     89          1           0      -13.031440   -1.851862   -3.494979
     90          1           0      -12.198031   -0.166693   -3.926511
     91          1           0      -11.251698   -1.740868   -3.500880
     92          1           0       -9.186428   -4.608364   -1.832438
     93          1           0       -8.175403   -5.836266   -0.757106
     94          1           0       -9.717273   -5.016846   -0.099039
     95          1           0       -3.458970   -3.386619   -0.382078
     96          1           0       -1.393579   -4.361368    3.445534
     97          1           0       -2.945748   -5.680755    3.360255
     98          1           0       -1.484165   -5.990339    2.471879
     99          1           0        2.604227   -1.802733   -1.552372
    100          1           0        2.462907   -0.066565   -1.873336
    101          1           0        4.259421   -1.130045    0.556590
    102          1           0        4.055920    0.809781   -2.883389
    103          1           0        5.254102    2.281474   -2.064639
    104          1           0        5.848040    0.835073   -2.768774
    105          1           0        6.551944    1.388856    0.139398
    106          1           0        6.425110   -0.284810    0.712336
    107          1           0        7.576993   -1.256290   -1.108464
    108          1           0        7.790750    0.371776   -2.076508
    109          1           0        9.016299    1.194376    0.116049
    110          1           0        8.465605   -0.414618    0.796420
    111          1           0       10.272146    0.112394   -1.735902
    112          1           0        9.180147   -2.081970   -2.004501
    113          1           0       11.030150   -2.500976   -1.651240
    114          1           0        9.864268   -2.513029   -0.400837
    115          1           0       11.376172    0.791165    0.336390
    116          1           0       11.332936   -0.792140    0.905175
    117          1           0       12.845183   -1.543764   -1.076907
    118          1           0       12.879700    0.276242   -1.552150
    119          1           0       13.796836    1.250750    0.619046
    120          1           0       13.625714   -0.505527    1.014241
    121          1           0       15.392415    0.303396   -1.529545
    122          1           0       15.605000   -2.170119   -0.093934
    123          1           0       14.854855   -2.027120   -1.652721
    124          1           0       16.699249   -1.509662   -1.344759
    125          1           0       16.210003    1.391671    0.843760
    126          1           0       16.538209   -0.294905    1.255373
    127          1           0       18.276822   -0.535533   -0.091112
    128          1           0       18.013412    0.961226   -1.122934
    129          1           0       18.416544    2.652891    0.526368
    130          1           0       18.723270    1.009029    1.727010
    131          1           0       20.454733    0.257627    0.071221
    132          1           0       19.902064    2.901482   -1.200717
    133          1           0       21.441272    1.789366   -1.528868
    134          1           0       19.932299    1.295966   -1.994690
    135          1           0       21.393337    1.099762    2.124148
    136          1           0       22.200763    1.958600    0.800622
    137          1           0       20.756344    2.772949    1.409379
 ---------------------------------------------------------------------

 SCF Done:  E(RCAM-B3LYP) =  -2932.60832794     A.U. after   17 cycles

 Excitation energies and oscillator strengths:

 Excited State   1:      Singlet-A      2.2196 eV  558.58 nm  f=0.1708  <S**2>=0.000
     240 -> 243       -0.30315
     241 -> 242        0.62927
 This state for optimization and/or second-order correction.
 Total Energy, E(TD-HF/TD-KS) =  -2932.52675821
 Copying the excited state density for this state as the 1-particle RhoCI density.

 The electronic state is 1-A.
 Alpha  occ. eigenvalues --  -46.84943 -19.23843 -19.23714 -19.22060 -19.20348
 Alpha  occ. eigenvalues --  -19.19790 -14.40283 -14.40124 -14.39887 -14.38842
 Alpha  occ. eigenvalues --  -10.38725 -10.38092 -10.34518 -10.31176 -10.30332
 Alpha  occ. eigenvalues --  -10.30326 -10.30276 -10.30216 -10.29774 -10.29760
 Alpha  occ. eigenvalues --  -10.29464 -10.29434 -10.29398 -10.29092 -10.29035
 Alpha  occ. eigenvalues --  -10.28918 -10.28543 -10.28454 -10.28058 -10.27994
 Alpha  occ. eigenvalues --  -10.27812 -10.27511 -10.27300 -10.27248 -10.27189
 Alpha  occ. eigenvalues --  -10.27020 -10.26954 -10.26844 -10.26659 -10.26625
 Alpha  occ. eigenvalues --  -10.26603 -10.26400 -10.26296 -10.26290 -10.26288
 Alpha  occ. eigenvalues --  -10.26266 -10.26180 -10.26150 -10.26029 -10.26026
 Alpha  occ. eigenvalues --  -10.25954 -10.25818 -10.25746 -10.25714 -10.25503
 Alpha  occ. eigenvalues --  -10.25239 -10.25224 -10.25053 -10.24785 -10.24599
 Alpha  occ. eigenvalues --  -10.24436 -10.24395 -10.24306 -10.24170 -10.24122
 Alpha  occ. eigenvalues --   -3.13968  -1.88675  -1.88238  -1.88121  -1.18716
 Alpha  occ. eigenvalues --   -1.15136  -1.10743  -1.10430  -1.07782  -1.06098
 Alpha  occ. eigenvalues --   -1.05798  -1.03371  -1.02431  -0.92307  -0.91172
 Alpha  occ. eigenvalues --   -0.90905  -0.90569  -0.90177  -0.89796  -0.88917
 Alpha  occ. eigenvalues --   -0.87389  -0.87139  -0.87110  -0.86965  -0.85838
 Alpha  occ. eigenvalues --   -0.84822  -0.84301  -0.83099  -0.82746  -0.82242
 Alpha  occ. eigenvalues --   -0.80761  -0.80487  -0.79883  -0.79774  -0.78699
 Alpha  occ. eigenvalues --   -0.78109  -0.76536  -0.75937  -0.75798  -0.74797
 Alpha  occ. eigenvalues --   -0.74727  -0.74348  -0.74016  -0.73071  -0.71910
 Alpha  occ. eigenvalues --   -0.71387  -0.70058  -0.69337  -0.68127  -0.67799
 Alpha  occ. eigenvalues --   -0.66849  -0.65863  -0.65577  -0.64408  -0.64390
 Alpha  occ. eigenvalues --   -0.63961  -0.63871  -0.63032  -0.62939  -0.61673
 Alpha  occ. eigenvalues --   -0.61512  -0.60382  -0.60037  -0.59740  -0.59013
 Alpha  occ. eigenvalues --   -0.58535  -0.57996  -0.57256  -0.57092  -0.56508
 Alpha  occ. eigenvalues --   -0.55900  -0.55352  -0.55105  -0.54939  -0.54785
 Alpha  occ. eigenvalues --   -0.54095  -0.53609  -0.53367  -0.53243  -0.52853
 Alpha  occ. eigenvalues --   -0.52609  -0.52504  -0.52214  -0.51986  -0.51429
 Alpha  occ. eigenvalues --   -0.51350  -0.51186  -0.51152  -0.50723  -0.50296
 Alpha  occ. eigenvalues --   -0.50211  -0.49921  -0.49730  -0.49524  -0.49391
 Alpha  occ. eigenvalues --   -0.49200  -0.49030  -0.48786  -0.48471  -0.48323
 Alpha  occ. eigenvalues --   -0.48038  -0.47869  -0.47682  -0.47471  -0.47328
 Alpha  occ. eigenvalues --   -0.47065  -0.46744  -0.46583  -0.46356  -0.45863
 Alpha  occ. eigenvalues --   -0.45718  -0.45566  -0.45124  -0.44968  -0.44803
 Alpha  occ. eigenvalues --   -0.44527  -0.44436  -0.44307  -0.44217  -0.44189
 Alpha  occ. eigenvalues --   -0.43997  -0.43630  -0.43383  -0.43308  -0.43107
 Alpha  occ. eigenvalues --   -0.43032  -0.42785  -0.42248  -0.42091  -0.42039
 Alpha  occ. eigenvalues --   -0.41886  -0.41593  -0.41311  -0.41103  -0.41074
 Alpha  occ. eigenvalues --   -0.40934  -0.40751  -0.40409  -0.40295  -0.40009
 Alpha  occ. eigenvalues --   -0.39681  -0.39656  -0.39479  -0.39208  -0.39086
 Alpha  occ. eigenvalues --   -0.39027  -0.38686  -0.38312  -0.37783  -0.37597
 Alpha  occ. eigenvalues --   -0.37590  -0.37352  -0.37198  -0.36998  -0.36502
 Alpha  occ. eigenvalues --   -0.36126  -0.35946  -0.35715  -0.35516  -0.35376
 Alpha  occ. eigenvalues --   -0.34741  -0.34560  -0.34314  -0.33978  -0.33619
 Alpha  occ. eigenvalues --   -0.32940  -0.32136  -0.31897  -0.30987  -0.30153
 Alpha  occ. eigenvalues --   -0.29669  -0.29482  -0.29012  -0.26923  -0.22538
 Alpha  occ. eigenvalues --   -0.22277
 Alpha virt. eigenvalues --   -0.06394  -0.03167   0.01754   0.05395   0.05817
 Alpha virt. eigenvalues --    0.06261   0.06484   0.06689   0.07166   0.07895
 Alpha virt. eigenvalues --    0.08965   0.10530   0.11080   0.11197   0.11288

 Mulliken charges:
               1
     1  Mg   0.836514
     2  C    0.051832
     3  C   -0.222702
     4  C   -0.182573
     5  C   -0.100441
     6  N   -0.654186
     7  C    0.267857
     8  C   -0.147490
     9  C   -0.168748
    10  C    0.420456
    11  C   -0.308348
    12  C   -0.191359
    13  C   -0.253918
    14  C    0.602312
    15  O   -0.494539
    16  O   -0.532740
    17  N   -0.653176
    18  C    0.294030
    19  C    0.027980
    20  C    0.015316
    21  C    0.291671
    22  C   -0.362524
    23  C   -0.054168
    24  C   -0.241618
    25  N   -0.700682
    26  C    0.284509
    27  C    0.032835
    28  C   -0.027336
    29  C    0.301942
    30  C   -0.348318
    31  C   -0.231773
    32  C   -0.305054
    33  N   -0.740297
    34  C    0.224687
    35  C    0.095022
    36  C   -0.031422
    37  C    0.338561
    38  C   -0.377050
    39  C    0.321067
    40  O   -0.461049
    41  C   -0.334757
    42  C    0.626243
    43  O   -0.411814
    44  O   -0.479748
    45  C   -0.064166
    46  C    0.017445
    47  C   -0.133110
    48  C    0.165676
    49  C   -0.380889
    50  C   -0.224083
    51  C   -0.192529
    52  C   -0.180644
    53  C   -0.039018
    54  C   -0.312740
    55  C   -0.180409
    56  C   -0.173053
    57  C   -0.185981
    58  C   -0.064014
    59  C   -0.309927
    60  C   -0.176861
    61  C   -0.199421
    62  C   -0.140385
    63  C   -0.040881
    64  C   -0.315555
    65  C   -0.294024
    66  H    0.058914
    67  H    0.106412
    68  H    0.065065
    69  H    0.141272
    70  H    0.103775
    71  H    0.109257
    72  H    0.108453
    73  H    0.102455
    74  H    0.116642
    75  H    0.130407
    76  H    0.150027
    77  H    0.146591
    78  H    0.119187
    79  H    0.139273
    80  H    0.110234
    81  H    0.082081
    82  H    0.109253
    83  H    0.080091
    84  H    0.103350
    85  H    0.132738
    86  H    0.084747
    87  H    0.084385
    88  H    0.115877
    89  H    0.092016
    90  H    0.126804
    91  H    0.083482
    92  H    0.119759
    93  H    0.157356
    94  H    0.137344
    95  H    0.163344
    96  H    0.085686
    97  H    0.121519
    98  H    0.127117
    99  H    0.116083
   100  H    0.132775
   101  H    0.091770
   102  H    0.101730
   103  H    0.104894
   104  H    0.126943
   105  H    0.109564
   106  H    0.095342
   107  H    0.095851
   108  H    0.091576
   109  H    0.076361
   110  H    0.088488
   111  H    0.096669
   112  H    0.104313
   113  H    0.064608
   114  H    0.118641
   115  H    0.081370
   116  H    0.096303
   117  H    0.084210
   118  H    0.104928
   119  H    0.068265
   120  H    0.091231
   121  H    0.094194
   122  H    0.112639
   123  H    0.078574
   124  H    0.099039
   125  H    0.091306
   126  H    0.097220
   127  H    0.075540
   128  H    0.093963
   129  H    0.026425
   130  H    0.098962
   131  H    0.098133
   132  H    0.082149
   133  H    0.093329
   134  H    0.116577
   135  H    0.079432
   136  H    0.105117
   137  H    0.110136
 Sum of Mulliken charges =   0.00000

 Dipole moment (field-independent basis, Debye):
    X=             -0.0807    Y=              4.1475    Z=             -0.0402  Tot=              4.1485
 Quadrupole moment (field-independent basis, Debye-Ang):
   XX=           -326.4286   YY=           -393.4909   ZZ=           -397.9563
   XY=            -23.8340   XZ=              6.3104   YZ=             -0.7983

 Normal termination of Gaussian 09 at Fri Jul  5 20:43:21 2019.
