 Gaussian 09, Revision D.01,
 Gaussian 09:  ES64L-G09RevD.01 24-Apr-2013

 -------------------------------------
 # td=(NStates=1) CAM-B3LYP/6-31G(d,p)
 -------------------------------------

 --
 TD
 --
 Symbolic Z-matrix:
 Charge =  0 Multiplicity = 1

                         Standard orientation:
 ---------------------------------------------------------------------
 Center     Atomic      Atomic             Coordinates (Angstroms)
 Number     Number       Type             X           Y           Z
 ---------------------------------------------------------------------
      1         12           0       -7.148721    0.590566    0.009428
      2          6           0       -4.846518   -1.927500    0.465313
      3          6           0       -4.883619    2.819272    1.177170
      4          6           0       -9.475471    3.074548   -0.364576
      5          6           0       -9.582595   -1.829237   -0.889723
      6          7           0       -5.035848    0.435247    0.560260
      7          6           0       -4.318043   -0.662204    0.724856
      8          6           0       -2.892209   -0.325584    1.177455
      9          6           0       -3.003216    1.140122    1.580540
     10          6           0       -4.436554    1.553379    1.030928
     11          6           0       -2.991253    1.400244    3.131599
     12          6           0       -1.881584   -0.558404    0.077196
     13          6           0       -0.446193   -0.433507    0.503162
     14          6           0        0.473020   -0.691453   -0.612440
     15          8           0        0.223699   -1.075879   -1.762374
     16          8           0        1.762977   -0.650888   -0.270785
     17          7           0       -7.108207    2.669027    0.305139
     18          6           0       -6.013372    3.434027    0.676773
     19          6           0       -6.397479    4.841506    0.689027
     20          6           0       -7.775897    4.875135    0.383293
     21          6           0       -8.181332    3.394598    0.112477
     22          6           0       -5.527406    5.956629    0.986209
     23          6           0       -8.680970    5.996995    0.243957
     24          6           0       -8.516714    7.159168    0.780533
     25          7           0       -9.163062    0.546642   -0.582464
     26          6           0       -9.899170    1.748485   -0.694809
     27          6           0      -11.213884    1.417940   -1.022023
     28          6           0      -11.239425    0.130926   -1.342398
     29          6           0       -9.989134   -0.493129   -0.964838
     30          6           0      -12.317535    2.424441   -1.379132
     31          6           0      -12.387280   -0.815160   -1.747325
     32          6           0      -12.445977   -1.168303   -3.283667
     33          7           0       -7.211159   -1.355869   -0.199125
     34          6           0       -8.291440   -2.302240   -0.467043
     35          6           0       -7.852273   -3.669406   -0.540247
     36          6           0       -6.484396   -3.537497   -0.130462
     37          6           0       -6.191085   -2.164668   -0.003431
     38          6           0       -8.612405   -4.888239   -0.894650
     39          6           0       -5.308580   -4.281279    0.270430
     40          8           0       -5.114101   -5.497838    0.318357
     41          6           0       -4.095427   -3.244208    0.664375
     42          6           0       -3.544549   -3.511827    1.999477
     43          8           0       -3.952564   -2.966500    3.086071
     44          8           0       -2.750720   -4.494279    2.038842
     45          6           0       -2.307031   -5.010000    3.303093
     46          6           0        2.869661   -0.836505   -1.119544
     47          6           0        4.149911   -0.608266   -0.497079
     48          6           0        5.103511    0.206908   -0.986338
     49          6           0        5.157679    0.948008   -2.274393
     50          6           0        6.473063    0.321802   -0.194271
     51          6           0        7.655754   -0.304227   -0.967016
     52          6           0        8.882050   -0.097774    0.009874
     53          6           0       10.168645   -0.543068   -0.765157
     54          6           0       10.270058   -2.011511   -1.205978
     55          6           0       11.402314   -0.150795   -0.004052
     56          6           0       12.730942   -0.447485   -0.682084
     57          6           0       14.001197   -0.030588    0.008721
     58          6           0       15.404941   -0.100907   -0.623939
     59          6           0       15.755179   -1.527915   -0.984382
     60          6           0       16.426593    0.616323    0.341234
     61          6           0       17.846428    0.563152   -0.228076
     62          6           0       18.882781    1.111540    0.766919
     63          6           0       20.368917    1.295508    0.241114
     64          6           0       20.556845    2.063713   -1.065919
     65          6           0       21.195668    1.929158    1.399225
     66          1           0       -4.072815    3.561252    1.518399
     67          1           0      -10.234253    3.919641   -0.313817
     68          1           0      -10.409760   -2.529273   -1.332098
     69          1           0       -2.687407   -0.779571    2.119215
     70          1           0       -2.303705    1.851540    1.173198
     71          1           0       -1.942831    0.909129    3.447710
     72          1           0       -2.914851    2.495581    3.479830
     73          1           0       -3.844040    0.936435    3.876953
     74          1           0       -2.060829   -1.669373   -0.217188
     75          1           0       -2.085834    0.186944   -0.690332
     76          1           0       -0.127487    0.623911    0.804952
     77          1           0       -0.237740   -1.072972    1.193891
     78          1           0       -5.770220    6.799294    0.311042
     79          1           0       -5.471602    6.407931    2.023359
     80          1           0       -4.519443    5.661326    0.771254
     81          1           0       -9.661043    5.824032   -0.395409
     82          1           0       -9.337468    7.963464    0.735769
     83          1           0       -7.578661    7.228347    1.559072
     84          1           0      -11.922974    3.321750   -2.131281
     85          1           0      -13.059465    1.927085   -2.111283
     86          1           0      -12.698705    2.761612   -0.404114
     87          1           0      -12.593534   -1.855634   -0.912335
     88          1           0      -13.317793   -0.312971   -1.564140
     89          1           0      -13.139910   -1.789512   -3.618988
     90          1           0      -12.529656   -0.314183   -3.917205
     91          1           0      -11.601723   -1.834427   -3.462968
     92          1           0       -8.896895   -4.902415   -1.924243
     93          1           0       -8.012262   -5.786198   -0.746547
     94          1           0       -9.514727   -5.022141   -0.329607
     95          1           0       -3.102173   -3.432168    0.067578
     96          1           0       -1.844579   -4.134259    3.779412
     97          1           0       -3.072529   -5.639945    4.008595
     98          1           0       -1.484907   -5.702336    2.866229
     99          1           0        3.007286   -1.894699   -1.433287
    100          1           0        2.870844   -0.288867   -2.082887
    101          1           0        4.119643   -1.101084    0.542402
    102          1           0        4.093855    1.073073   -2.625113
    103          1           0        5.660740    1.842527   -2.246482
    104          1           0        5.804054    0.420412   -3.029695
    105          1           0        6.518532    1.346021   -0.142128
    106          1           0        6.534749   -0.193600    0.805383
    107          1           0        7.349801   -1.461394   -1.085814
    108          1           0        7.836308    0.457064   -1.885407
    109          1           0        8.899705    1.006514    0.364281
    110          1           0        8.807948   -0.683082    0.921867
    111          1           0       10.381539    0.190161   -1.552226
    112          1           0        9.242740   -2.411854   -1.666308
    113          1           0       11.242087   -2.306910   -1.790191
    114          1           0       10.207020   -2.690295   -0.224714
    115          1           0       11.316855    0.791256    0.507322
    116          1           0       11.419943   -0.847047    0.884249
    117          1           0       12.523113   -1.537332   -1.075124
    118          1           0       12.381762    0.127269   -1.784420
    119          1           0       13.708912    0.964690    0.288118
    120          1           0       13.943382   -0.625241    0.620820
    121          1           0       15.352224    0.581798   -1.613764
    122          1           0       16.105899   -2.159718    0.141608
    123          1           0       14.665811   -2.042216   -1.330711
    124          1           0       16.658187   -1.895793   -1.695078
    125          1           0       16.112385    1.746034    0.552258
    126          1           0       16.284923    0.145208    1.390489
    127          1           0       18.322210   -0.349985   -0.490024
    128          1           0       17.899103    1.173414   -1.223834
    129          1           0       18.741657    2.255220    1.090787
    130          1           0       18.773718    0.531594    1.649364
    131          1           0       20.810113    0.212096    0.042889
    132          1           0       20.187551    3.106275   -0.917047
    133          1           0       21.584492    1.831015   -1.274165
    134          1           0       19.817609    1.662556   -1.949704
    135          1           0       21.193822    1.532994    2.404277
    136          1           0       22.213180    1.771134    1.063914
    137          1           0       21.045521    2.945993    1.342720
 ---------------------------------------------------------------------

 SCF Done:  E(RCAM-B3LYP) =  -2932.58887620     A.U. after   18 cycles

 Excitation energies and oscillator strengths:

 Excited State   1:      Singlet-A      2.0239 eV  612.60 nm  f=0.2326  <S**2>=0.000
     240 -> 242       -0.11050
     240 -> 243       -0.25240
     241 -> 242        0.64187
 This state for optimization and/or second-order correction.
 Total Energy, E(TD-HF/TD-KS) =  -2932.51449915
 Copying the excited state density for this state as the 1-particle RhoCI density.

 The electronic state is 1-A.
 Alpha  occ. eigenvalues --  -46.84934 -19.27080 -19.25621 -19.19607 -19.19561
 Alpha  occ. eigenvalues --  -19.17982 -14.41580 -14.39973 -14.39765 -14.39014
 Alpha  occ. eigenvalues --  -10.38929 -10.37920 -10.35063 -10.33351 -10.31109
 Alpha  occ. eigenvalues --  -10.30957 -10.30767 -10.30339 -10.30227 -10.29930
 Alpha  occ. eigenvalues --  -10.29177 -10.29105 -10.29029 -10.28923 -10.28875
 Alpha  occ. eigenvalues --  -10.28706 -10.28554 -10.28438 -10.28245 -10.28083
 Alpha  occ. eigenvalues --  -10.28057 -10.28056 -10.27987 -10.27911 -10.27725
 Alpha  occ. eigenvalues --  -10.27604 -10.27604 -10.27600 -10.27501 -10.27406
 Alpha  occ. eigenvalues --  -10.27317 -10.27252 -10.27049 -10.26923 -10.26913
 Alpha  occ. eigenvalues --  -10.26866 -10.26745 -10.26730 -10.26386 -10.26380
 Alpha  occ. eigenvalues --  -10.26129 -10.26092 -10.26023 -10.25975 -10.25820
 Alpha  occ. eigenvalues --  -10.25536 -10.25470 -10.25382 -10.25335 -10.25319
 Alpha  occ. eigenvalues --  -10.25100 -10.24391 -10.24204 -10.23492 -10.23035
 Alpha  occ. eigenvalues --   -3.13854  -1.88566  -1.88102  -1.88014  -1.20551
 Alpha  occ. eigenvalues --   -1.18240  -1.09337  -1.07167  -1.05128  -1.04410
 Alpha  occ. eigenvalues --   -1.03926  -1.03223  -1.01980  -0.91858  -0.91545
 Alpha  occ. eigenvalues --   -0.91269  -0.90682  -0.89883  -0.89365  -0.89124
 Alpha  occ. eigenvalues --   -0.88179  -0.87779  -0.87635  -0.87187  -0.86808
 Alpha  occ. eigenvalues --   -0.85533  -0.85061  -0.84160  -0.83904  -0.82709
 Alpha  occ. eigenvalues --   -0.82012  -0.81522  -0.80888  -0.79795  -0.78836
 Alpha  occ. eigenvalues --   -0.77706  -0.76957  -0.76455  -0.75804  -0.75738
 Alpha  occ. eigenvalues --   -0.75324  -0.74906  -0.73530  -0.73454  -0.73026
 Alpha  occ. eigenvalues --   -0.71621  -0.70319  -0.69535  -0.68408  -0.67743
 Alpha  occ. eigenvalues --   -0.66600  -0.66413  -0.65377  -0.65076  -0.64301
 Alpha  occ. eigenvalues --   -0.63483  -0.63371  -0.62526  -0.61828  -0.61740
 Alpha  occ. eigenvalues --   -0.60845  -0.60639  -0.59981  -0.59594  -0.59181
 Alpha  occ. eigenvalues --   -0.58638  -0.58486  -0.58038  -0.57368  -0.56685
 Alpha  occ. eigenvalues --   -0.56106  -0.55887  -0.55692  -0.54899  -0.54689
 Alpha  occ. eigenvalues --   -0.54441  -0.54418  -0.54280  -0.53764  -0.53094
 Alpha  occ. eigenvalues --   -0.52428  -0.52338  -0.52116  -0.51482  -0.51343
 Alpha  occ. eigenvalues --   -0.51240  -0.50990  -0.50946  -0.50504  -0.50422
 Alpha  occ. eigenvalues --   -0.50205  -0.50102  -0.49886  -0.49727  -0.49498
 Alpha  occ. eigenvalues --   -0.49378  -0.49170  -0.48820  -0.48718  -0.48174
 Alpha  occ. eigenvalues --   -0.47914  -0.47686  -0.47090  -0.46965  -0.46943
 Alpha  occ. eigenvalues --   -0.46484  -0.46237  -0.46103  -0.45903  -0.45722
 Alpha  occ. eigenvalues --   -0.45659  -0.45583  -0.45437  -0.45365  -0.45103
 Alpha  occ. eigenvalues --   -0.44725  -0.44686  -0.44467  -0.44391  -0.44035
 Alpha  occ. eigenvalues --   -0.43905  -0.43819  -0.43606  -0.43548  -0.43228
 Alpha  occ. eigenvalues --   -0.42829  -0.42543  -0.42347  -0.42153  -0.42032
 Alpha  occ. eigenvalues --   -0.41898  -0.41659  -0.41352  -0.41290  -0.41205
 Alpha  occ. eigenvalues --   -0.41060  -0.40896  -0.40755  -0.40189  -0.39880
 Alpha  occ. eigenvalues --   -0.39681  -0.39484  -0.39233  -0.39154  -0.38880
 Alpha  occ. eigenvalues --   -0.38766  -0.38526  -0.38486  -0.38128  -0.38008
 Alpha  occ. eigenvalues --   -0.37826  -0.37462  -0.36955  -0.36638  -0.36178
 Alpha  occ. eigenvalues --   -0.36046  -0.35637  -0.35250  -0.35132  -0.34944
 Alpha  occ. eigenvalues --   -0.34589  -0.34382  -0.33531  -0.33222  -0.33042
 Alpha  occ. eigenvalues --   -0.32718  -0.32344  -0.31305  -0.30862  -0.29653
 Alpha  occ. eigenvalues --   -0.29210  -0.29176  -0.28481  -0.27813  -0.22963
 Alpha  occ. eigenvalues --   -0.21451
 Alpha virt. eigenvalues --   -0.06852  -0.03391   0.01847   0.03985   0.05764
 Alpha virt. eigenvalues --    0.06044   0.06518   0.06653   0.06854   0.07461
 Alpha virt. eigenvalues --    0.08406   0.10000   0.10838   0.10895   0.11674

 Mulliken charges:
               1
     1  Mg   0.823139
     2  C    0.068032
     3  C   -0.187261
     4  C   -0.173600
     5  C   -0.170574
     6  N   -0.630343
     7  C    0.302399
     8  C   -0.150412
     9  C   -0.150552
    10  C    0.340431
    11  C   -0.305371
    12  C   -0.154969
    13  C   -0.240620
    14  C    0.582798
    15  O   -0.489489
    16  O   -0.471798
    17  N   -0.713750
    18  C    0.289779
    19  C    0.042666
    20  C   -0.015586
    21  C    0.349055
    22  C   -0.401181
    23  C   -0.043805
    24  C   -0.267273
    25  N   -0.703399
    26  C    0.298429
    27  C    0.007933
    28  C    0.031848
    29  C    0.307493
    30  C   -0.354621
    31  C   -0.247647
    32  C   -0.313743
    33  N   -0.732059
    34  C    0.201736
    35  C    0.071390
    36  C   -0.003109
    37  C    0.340566
    38  C   -0.389490
    39  C    0.355275
    40  O   -0.478879
    41  C   -0.313149
    42  C    0.597664
    43  O   -0.543494
    44  O   -0.394641
    45  C   -0.074264
    46  C    0.039885
    47  C   -0.139507
    48  C    0.090549
    49  C   -0.369323
    50  C   -0.214205
    51  C   -0.165195
    52  C   -0.185478
    53  C   -0.037905
    54  C   -0.314637
    55  C   -0.175005
    56  C   -0.192953
    57  C   -0.121603
    58  C   -0.039592
    59  C   -0.280522
    60  C   -0.163694
    61  C   -0.172286
    62  C   -0.154085
    63  C   -0.078948
    64  C   -0.291480
    65  C   -0.312439
    66  H    0.077216
    67  H    0.102596
    68  H    0.102579
    69  H    0.132687
    70  H    0.106180
    71  H    0.083118
    72  H    0.104895
    73  H    0.119726
    74  H    0.112488
    75  H    0.121503
    76  H    0.131366
    77  H    0.148175
    78  H    0.132398
    79  H    0.122172
    80  H    0.114064
    81  H    0.089096
    82  H    0.107716
    83  H    0.095512
    84  H    0.098127
    85  H    0.112692
    86  H    0.129283
    87  H    0.062101
    88  H    0.108521
    89  H    0.116772
    90  H    0.114918
    91  H    0.104739
    92  H    0.133999
    93  H    0.151222
    94  H    0.132551
    95  H    0.139564
    96  H    0.137980
    97  H    0.136089
    98  H    0.120405
    99  H    0.114435
   100  H    0.104535
   101  H    0.090283
   102  H    0.112381
   103  H    0.124485
   104  H    0.128415
   105  H    0.105711
   106  H    0.092079
   107  H    0.100469
   108  H    0.085797
   109  H    0.091471
   110  H    0.101404
   111  H    0.089586
   112  H    0.091830
   113  H    0.118116
   114  H    0.085905
   115  H    0.086820
   116  H    0.064920
   117  H    0.079468
   118  H    0.020679
   119  H    0.099681
   120  H    0.102901
   121  H    0.072144
   122  H    0.043128
   123  H    0.088098
   124  H    0.106216
   125  H    0.084119
   126  H    0.080877
   127  H    0.107251
   128  H    0.078632
   129  H    0.053073
   130  H    0.097796
   131  H    0.056557
   132  H    0.103978
   133  H    0.117514
   134  H    0.083604
   135  H    0.109788
   136  H    0.095199
   137  H    0.111073
 Sum of Mulliken charges =   0.00000

 Dipole moment (field-independent basis, Debye):
    X=              1.2263    Y=              5.0566    Z=              0.6869  Tot=              5.2483
 Quadrupole moment (field-independent basis, Debye-Ang):
   XX=           -336.6141   YY=           -388.9263   ZZ=           -401.5186
   XY=            -21.0396   XZ=             21.5471   YZ=             -0.4687

 Normal termination of Gaussian 09 at Sat Jul  6 23:40:45 2019.
