 Gaussian 16, Revision A.03,
 Gaussian 16:  ES64L-G16RevA.03 25-Dec-2016

 ----------------------------------------------------------------------
 # td=(NStates=1) iop(3/107=0140000000,3/108=0140000000) CAM-B3LYP/6-31
 G(d,p)
 ----------------------------------------------------------------------

 --
 TD
 --
 Symbolic Z-matrix:
 Charge =  0 Multiplicity = 1

                         Standard orientation:
 ---------------------------------------------------------------------
 Center     Atomic      Atomic             Coordinates (Angstroms)
 Number     Number       Type             X           Y           Z
 ---------------------------------------------------------------------
      1         12           0       -7.074584    0.625176   -0.033569
      2          6           0       -4.915995   -2.058032    0.465179
      3          6           0       -4.830965    2.836189    1.230197
      4          6           0       -9.334993    3.097024   -0.454939
      5          6           0       -9.590141   -1.725541   -0.986002
      6          7           0       -5.024954    0.438750    0.711999
      7          6           0       -4.302977   -0.705074    0.773407
      8          6           0       -2.909429   -0.381562    1.206601
      9          6           0       -2.988381    1.009955    1.723974
     10          6           0       -4.367298    1.456540    1.083944
     11          6           0       -2.862253    1.157608    3.203511
     12          6           0       -1.865209   -0.672337    0.064636
     13          6           0       -0.468736   -0.498873    0.458659
     14          6           0        0.538897   -0.594707   -0.686188
     15          8           0        0.186481   -0.885980   -1.770591
     16          8           0        1.771318   -0.391326   -0.250500
     17          7           0       -7.062041    2.651469    0.271106
     18          6           0       -6.016818    3.372599    0.803004
     19          6           0       -6.445452    4.770165    0.913426
     20          6           0       -7.634054    4.832103    0.407358
     21          6           0       -8.046726    3.500445    0.053235
     22          6           0       -5.487996    5.926436    1.277597
     23          6           0       -8.461889    6.052556    0.333478
     24          6           0       -8.410296    7.238666    1.062761
     25          7           0       -9.095156    0.652584   -0.678451
     26          6           0       -9.847648    1.814361   -0.789018
     27          6           0      -11.110736    1.493193   -1.196665
     28          6           0      -11.134625    0.115969   -1.349531
     29          6           0       -9.944645   -0.386800   -1.014316
     30          6           0      -12.262518    2.502511   -1.495447
     31          6           0      -12.353001   -0.637794   -1.778852
     32          6           0      -12.246070   -1.062269   -3.318007
     33          7           0       -7.292503   -1.371697   -0.243662
     34          6           0       -8.366590   -2.241453   -0.572801
     35          6           0       -7.865788   -3.653881   -0.397788
     36          6           0       -6.581261   -3.514503   -0.051776
     37          6           0       -6.249456   -2.126855    0.080017
     38          6           0       -8.677880   -4.878466   -0.797675
     39          6           0       -5.440374   -4.333062    0.212881
     40          8           0       -5.256496   -5.531794    0.224288
     41          6           0       -4.266921   -3.240192    0.571080
     42          6           0       -3.633841   -3.639184    1.846527
     43          8           0       -3.808494   -3.115168    2.884956
     44          8           0       -2.899585   -4.817648    1.837170
     45          6           0       -2.512633   -5.342451    3.069757
     46          6           0        2.799422   -0.694881   -1.268057
     47          6           0        4.149220   -0.434408   -0.547764
     48          6           0        5.188231    0.221515   -1.025601
     49          6           0        5.035503    1.259154   -2.119610
     50          6           0        6.495309    0.391234   -0.181152
     51          6           0        7.605020   -0.312694   -0.973540
     52          6           0        8.935169   -0.112503   -0.018418
     53          6           0       10.212593   -0.519053   -0.775128
     54          6           0       10.147612   -1.937154   -1.203609
     55          6           0       11.400900   -0.267517    0.231658
     56          6           0       12.731637   -0.474144   -0.461054
     57          6           0       14.029198   -0.044097    0.308832
     58          6           0       15.342129   -0.259710   -0.452694
     59          6           0       15.688705   -1.690921   -0.974280
     60          6           0       16.520134    0.237058    0.464453
     61          6           0       17.816702    0.592607   -0.349039
     62          6           0       18.796991    1.252556    0.670134
     63          6           0       20.247841    1.406772    0.089150
     64          6           0       20.228196    2.187392   -1.250268
     65          6           0       21.269313    1.913694    1.105946
     66          1           0       -4.131313    3.505408    1.483723
     67          1           0      -10.213481    3.768516   -0.577507
     68          1           0      -10.287565   -2.459278   -1.369381
     69          1           0       -2.373293   -1.022179    2.086884
     70          1           0       -1.978643    1.659964    1.382477
     71          1           0       -1.704968    1.229099    3.630813
     72          1           0       -3.130188    2.136346    3.444719
     73          1           0       -3.508201    0.368249    3.377197
     74          1           0       -1.957600   -1.725889   -0.269677
     75          1           0       -1.987089    0.000991   -0.850618
     76          1           0       -0.311969    0.457781    1.117743
     77          1           0       -0.162986   -1.255837    1.118426
     78          1           0       -5.651281    6.867886    0.776069
     79          1           0       -5.594905    6.191334    2.348309
     80          1           0       -4.397260    5.695664    1.083653
     81          1           0       -9.328943    5.889619   -0.272801
     82          1           0       -9.284889    8.074133    1.009480
     83          1           0       -7.714260    7.433423    1.904512
     84          1           0      -12.069770    3.400332   -2.267307
     85          1           0      -13.163487    2.041122   -1.888217
     86          1           0      -12.669817    2.945762   -0.620488
     87          1           0      -12.340982   -1.486880   -1.232659
     88          1           0      -13.459139   -0.124587   -1.525228
     89          1           0      -12.963659   -1.671512   -3.727785
     90          1           0      -12.337186   -0.247948   -4.007248
     91          1           0      -11.042372   -1.274018   -3.557287
     92          1           0       -8.909442   -4.973221   -1.884933
     93          1           0       -8.107371   -5.764674   -0.545681
     94          1           0       -9.623858   -4.840489   -0.045595
     95          1           0       -3.597339   -3.654458   -0.230834
     96          1           0       -1.739690   -4.815777    3.607891
     97          1           0       -3.187281   -5.704978    3.773670
     98          1           0       -1.803973   -6.364408    2.952545
     99          1           0        2.848173   -1.590954   -1.607273
    100          1           0        2.427118    0.056636   -1.936210
    101          1           0        4.172684   -0.990817    0.526745
    102          1           0        4.012641    1.546365   -2.412122
    103          1           0        5.658682    2.289880   -1.772508
    104          1           0        5.670742    0.864654   -2.910079
    105          1           0        6.614189    1.470493    0.089071
    106          1           0        6.448608   -0.006742    0.875460
    107          1           0        7.349492   -1.254343   -1.197646
    108          1           0        7.770120    0.215274   -1.890954
    109          1           0        9.039982    1.010912    0.317322
    110          1           0        8.776620   -0.705995    0.894610
    111          1           0       10.394818    0.023372   -1.736848
    112          1           0        9.466627   -2.117202   -2.071982
    113          1           0       11.301857   -2.223749   -1.403775
    114          1           0        9.818308   -2.535883   -0.268391
    115          1           0       11.256612    0.750591    0.614865
    116          1           0       11.320035   -0.923716    1.324039
    117          1           0       12.846479   -1.420724   -0.780844
    118          1           0       12.732223    0.104777   -1.407337
    119          1           0       14.011472    0.959000    0.728275
    120          1           0       14.124272   -0.897821    1.112670
    121          1           0       15.297843    0.370976   -1.328110
    122          1           0       16.001374   -2.413377    0.036623
    123          1           0       14.903926   -2.167270   -1.482347
    124          1           0       16.472661   -1.858205   -1.467388
    125          1           0       16.161061    1.141938    0.942851
    126          1           0       16.631765   -0.577826    1.221288
    127          1           0       18.367089   -0.264021   -0.695662
    128          1           0       17.516293    0.986647   -1.059866
    129          1           0       18.439884    2.236615    1.002703
    130          1           0       18.811438    0.744768    1.545549
    131          1           0       20.454026    0.254782   -0.030998
    132          1           0       19.896552    3.261789   -0.953517
    133          1           0       21.339773    2.222478   -1.792891
    134          1           0       19.618431    1.866070   -2.069025
    135          1           0       21.285517    1.246745    2.028856
    136          1           0       22.206888    1.762237    0.498024
    137          1           0       21.068946    2.928512    1.532138
 ---------------------------------------------------------------------

 SCF Done:  E(RCAM-B3LYP) =  -2933.43584760     A.U. after   16 cycles

 Excitation energies and oscillator strengths:

 Excited State   1:      Singlet-A      2.1340 eV  580.99 nm  f=0.1135  <S**2>=0.000
     240 -> 242       -0.10079
     240 -> 243       -0.33081
     241 -> 242        0.60222
     241 -> 243       -0.11343
 This state for optimization and/or second-order correction.
 Total Energy, E(TD-HF/TD-DFT) =  -2933.35742384
 Copying the excited state density for this state as the 1-particle RhoCI density.

 The electronic state is 1-A.
 Alpha  occ. eigenvalues --  -46.81222 -19.21998 -19.20856 -19.17105 -19.16486
 Alpha  occ. eigenvalues --  -19.15977 -14.38919 -14.35960 -14.35634 -14.33388
 Alpha  occ. eigenvalues --  -10.33840 -10.33760 -10.31030 -10.27678 -10.27129
 Alpha  occ. eigenvalues --  -10.26640 -10.26268 -10.25582 -10.25490 -10.25213
 Alpha  occ. eigenvalues --  -10.24916 -10.24558 -10.24006 -10.23893 -10.23688
 Alpha  occ. eigenvalues --  -10.23618 -10.23533 -10.23304 -10.23284 -10.23239
 Alpha  occ. eigenvalues --  -10.23056 -10.22997 -10.22932 -10.22756 -10.22702
 Alpha  occ. eigenvalues --  -10.22577 -10.22514 -10.22460 -10.22426 -10.22324
 Alpha  occ. eigenvalues --  -10.22241 -10.22227 -10.22207 -10.22121 -10.22099
 Alpha  occ. eigenvalues --  -10.22081 -10.21970 -10.21743 -10.21679 -10.21530
 Alpha  occ. eigenvalues --  -10.21457 -10.21405 -10.21344 -10.21342 -10.21193
 Alpha  occ. eigenvalues --  -10.21123 -10.21011 -10.20948 -10.20850 -10.20417
 Alpha  occ. eigenvalues --  -10.20277 -10.20076 -10.19976 -10.19584 -10.18419
 Alpha  occ. eigenvalues --   -3.09600  -1.84555  -1.84079  -1.83979  -1.14255
 Alpha  occ. eigenvalues --   -1.13198  -1.06985  -1.05999  -1.04481  -1.02463
 Alpha  occ. eigenvalues --   -1.00201  -0.99115  -0.97513  -0.89637  -0.85938
 Alpha  occ. eigenvalues --   -0.85628  -0.84974  -0.84500  -0.84192  -0.83927
 Alpha  occ. eigenvalues --   -0.82982  -0.82589  -0.82532  -0.82001  -0.81842
 Alpha  occ. eigenvalues --   -0.80017  -0.79050  -0.78523  -0.78050  -0.76738
 Alpha  occ. eigenvalues --   -0.76371  -0.76181  -0.75842  -0.75312  -0.73644
 Alpha  occ. eigenvalues --   -0.73296  -0.72486  -0.71879  -0.71284  -0.70750
 Alpha  occ. eigenvalues --   -0.70264  -0.70198  -0.69419  -0.68664  -0.68375
 Alpha  occ. eigenvalues --   -0.67683  -0.66257  -0.65989  -0.65265  -0.64783
 Alpha  occ. eigenvalues --   -0.63681  -0.62935  -0.61746  -0.61437  -0.60882
 Alpha  occ. eigenvalues --   -0.60115  -0.58927  -0.58679  -0.58227  -0.57870
 Alpha  occ. eigenvalues --   -0.57337  -0.57167  -0.56823  -0.56055  -0.55735
 Alpha  occ. eigenvalues --   -0.55258  -0.54747  -0.54235  -0.53822  -0.53363
 Alpha  occ. eigenvalues --   -0.52812  -0.51969  -0.51367  -0.51333  -0.51214
 Alpha  occ. eigenvalues --   -0.50468  -0.50294  -0.50184  -0.49651  -0.49478
 Alpha  occ. eigenvalues --   -0.49096  -0.48962  -0.48196  -0.48137  -0.47803
 Alpha  occ. eigenvalues --   -0.47667  -0.47250  -0.47241  -0.46823  -0.46672
 Alpha  occ. eigenvalues --   -0.46561  -0.46503  -0.46207  -0.46108  -0.45963
 Alpha  occ. eigenvalues --   -0.45570  -0.45277  -0.45191  -0.44777  -0.44768
 Alpha  occ. eigenvalues --   -0.44478  -0.44173  -0.43955  -0.43745  -0.43641
 Alpha  occ. eigenvalues --   -0.43356  -0.43150  -0.43030  -0.42990  -0.42737
 Alpha  occ. eigenvalues --   -0.42597  -0.42396  -0.42287  -0.42157  -0.41915
 Alpha  occ. eigenvalues --   -0.41714  -0.41163  -0.41070  -0.40958  -0.40822
 Alpha  occ. eigenvalues --   -0.40460  -0.40433  -0.40244  -0.40117  -0.39816
 Alpha  occ. eigenvalues --   -0.39701  -0.39613  -0.39558  -0.39232  -0.39125
 Alpha  occ. eigenvalues --   -0.38771  -0.38508  -0.38427  -0.38240  -0.37917
 Alpha  occ. eigenvalues --   -0.37772  -0.37478  -0.37146  -0.37045  -0.36911
 Alpha  occ. eigenvalues --   -0.36547  -0.36496  -0.36413  -0.36008  -0.35703
 Alpha  occ. eigenvalues --   -0.35562  -0.35221  -0.35119  -0.35076  -0.34980
 Alpha  occ. eigenvalues --   -0.34723  -0.34605  -0.34319  -0.34104  -0.33687
 Alpha  occ. eigenvalues --   -0.33490  -0.33253  -0.33129  -0.32746  -0.32708
 Alpha  occ. eigenvalues --   -0.32309  -0.31998  -0.31175  -0.30432  -0.30377
 Alpha  occ. eigenvalues --   -0.30112  -0.29661  -0.29601  -0.28697  -0.28053
 Alpha  occ. eigenvalues --   -0.27402  -0.26908  -0.25768  -0.24653  -0.21666
 Alpha  occ. eigenvalues --   -0.20094
 Alpha virt. eigenvalues --   -0.06294  -0.05258  -0.01014   0.01929   0.03529
 Alpha virt. eigenvalues --    0.04285   0.04471   0.04632   0.05236   0.05578
 Alpha virt. eigenvalues --    0.06139   0.08952   0.09456   0.10090   0.10246

 Mulliken charges:
               1
     1  Mg   0.815737
     2  C    0.135929
     3  C   -0.164148
     4  C   -0.182826
     5  C   -0.192330
     6  N   -0.602839
     7  C    0.323052
     8  C   -0.172523
     9  C   -0.145512
    10  C    0.319035
    11  C   -0.278455
    12  C   -0.158725
    13  C   -0.270600
    14  C    0.604466
    15  O   -0.457511
    16  O   -0.474725
    17  N   -0.717296
    18  C    0.291257
    19  C    0.016337
    20  C    0.041088
    21  C    0.338584
    22  C   -0.388260
    23  C   -0.064571
    24  C   -0.252734
    25  N   -0.727545
    26  C    0.298183
    27  C    0.037940
    28  C    0.017371
    29  C    0.341795
    30  C   -0.388556
    31  C   -0.224157
    32  C   -0.322826
    33  N   -0.771336
    34  C    0.250267
    35  C    0.006902
    36  C    0.057728
    37  C    0.378143
    38  C   -0.373998
    39  C    0.325266
    40  O   -0.445531
    41  C   -0.398835
    42  C    0.622985
    43  O   -0.446625
    44  O   -0.453893
    45  C   -0.075212
    46  C    0.024123
    47  C   -0.159335
    48  C    0.106315
    49  C   -0.342272
    50  C   -0.218241
    51  C   -0.181204
    52  C   -0.176625
    53  C   -0.049383
    54  C   -0.286610
    55  C   -0.154763
    56  C   -0.183063
    57  C   -0.172854
    58  C   -0.073734
    59  C   -0.291790
    60  C   -0.188083
    61  C   -0.129242
    62  C   -0.176632
    63  C   -0.055974
    64  C   -0.294110
    65  C   -0.303097
    66  H    0.064129
    67  H    0.082135
    68  H    0.095476
    69  H    0.107826
    70  H    0.066012
    71  H    0.085511
    72  H    0.118641
    73  H    0.135921
    74  H    0.113658
    75  H    0.109678
    76  H    0.105659
    77  H    0.134738
    78  H    0.133183
    79  H    0.121847
    80  H    0.110375
    81  H    0.086828
    82  H    0.095536
    83  H    0.103472
    84  H    0.101163
    85  H    0.113993
    86  H    0.127209
    87  H    0.115710
    88  H    0.075771
    89  H    0.112872
    90  H    0.115925
    91  H    0.084113
    92  H    0.136703
    93  H    0.148824
    94  H    0.111021
    95  H    0.163769
    96  H    0.113959
    97  H    0.134853
    98  H    0.074035
    99  H    0.145205
   100  H    0.125547
   101  H    0.082867
   102  H    0.120836
   103  H    0.086716
   104  H    0.123391
   105  H    0.100338
   106  H    0.090704
   107  H    0.116459
   108  H    0.100132
   109  H    0.075826
   110  H    0.099578
   111  H    0.084033
   112  H    0.101065
   113  H    0.077552
   114  H    0.089133
   115  H    0.090817
   116  H    0.049425
   117  H    0.112731
   118  H    0.081480
   119  H    0.092951
   120  H    0.074919
   121  H    0.079478
   122  H    0.043952
   123  H    0.103298
   124  H    0.120793
   125  H    0.086246
   126  H    0.087347
   127  H    0.087153
   128  H    0.084085
   129  H    0.075270
   130  H    0.099725
   131  H    0.067399
   132  H    0.094013
   133  H    0.068200
   134  H    0.116779
   135  H    0.095013
   136  H    0.104019
   137  H    0.101052
 Sum of Mulliken charges =  -0.00000

 Dipole moment (field-independent basis, Debye):
    X=              1.9955    Y=              3.8696    Z=             -0.3752  Tot=              4.3700
 Quadrupole moment (field-independent basis, Debye-Ang):
   XX=           -355.4579   YY=           -397.2210   ZZ=           -396.2819
   XY=            -12.1679   XZ=              4.1597   YZ=              5.0955

 Normal termination of Gaussian 16 at Sun Sep 22 02:14:40 2019.
