 Gaussian 16, Revision A.03,
 Gaussian 16:  ES64L-G16RevA.03 25-Dec-2016

 ----------------------------------------------------------------------
 # td=(NStates=1) iop(3/107=0140000000,3/108=0140000000) CAM-B3LYP/6-31
 G(d,p)
 ----------------------------------------------------------------------

 --
 TD
 --
 Symbolic Z-matrix:
 Charge =  0 Multiplicity = 1

                         Standard orientation:
 ---------------------------------------------------------------------
 Center     Atomic      Atomic             Coordinates (Angstroms)
 Number     Number       Type             X           Y           Z
 ---------------------------------------------------------------------
      1         12           0       -7.111358    0.632159    0.058316
      2          6           0       -4.837652   -1.960279    0.500386
      3          6           0       -4.862164    2.783555    1.241690
      4          6           0       -9.328978    3.195138   -0.399386
      5          6           0       -9.536889   -1.671530   -0.853171
      6          7           0       -5.112463    0.412455    0.596563
      7          6           0       -4.294734   -0.706512    0.748777
      8          6           0       -2.907501   -0.440633    1.222919
      9          6           0       -3.097570    0.992620    1.736532
     10          6           0       -4.458346    1.483300    1.164162
     11          6           0       -3.024431    1.171323    3.276366
     12          6           0       -1.904080   -0.593826    0.081634
     13          6           0       -0.485493   -0.559373    0.649441
     14          6           0        0.567131   -0.857874   -0.421758
     15          8           0        0.236325   -1.271730   -1.511382
     16          8           0        1.851625   -0.490479   -0.083238
     17          7           0       -7.094811    2.699346    0.238399
     18          6           0       -6.019249    3.363696    0.721313
     19          6           0       -6.340498    4.788640    0.763843
     20          6           0       -7.656331    4.925506    0.304171
     21          6           0       -8.114631    3.594763    0.085715
     22          6           0       -5.511516    5.911657    1.232260
     23          6           0       -8.467083    6.051257    0.169815
     24          6           0       -8.414557    7.329831    0.629422
     25          7           0       -9.068402    0.689923   -0.468012
     26          6           0       -9.838619    1.876251   -0.612089
     27          6           0      -11.227162    1.394514   -1.165431
     28          6           0      -11.276858    0.126380   -1.301977
     29          6           0       -9.896243   -0.357390   -0.860604
     30          6           0      -12.260222    2.527100   -1.502882
     31          6           0      -12.495621   -0.738590   -1.621403
     32          6           0      -12.469906   -1.154252   -3.191616
     33          7           0       -7.214841   -1.352473   -0.286554
     34          6           0       -8.166125   -2.164082   -0.581694
     35          6           0       -7.806773   -3.569807   -0.441162
     36          6           0       -6.484907   -3.497968   -0.114865
     37          6           0       -6.150764   -2.136668    0.101176
     38          6           0       -8.655586   -4.859547   -0.641329
     39          6           0       -5.285866   -4.372431    0.275268
     40          8           0       -5.166901   -5.591524    0.124226
     41          6           0       -4.151278   -3.334410    0.514343
     42          6           0       -3.510570   -3.742628    1.861449
     43          8           0       -3.741358   -3.267972    2.893038
     44          8           0       -2.669797   -4.698293    1.623886
     45          6           0       -2.121328   -5.427389    2.729682
     46          6           0        2.888242   -0.708876   -1.027536
     47          6           0        4.198437   -0.390939   -0.434038
     48          6           0        5.218508    0.316955   -0.891516
     49          6           0        5.067669    1.206360   -2.146744
     50          6           0        6.472527    0.485456   -0.151194
     51          6           0        7.597111   -0.220386   -0.990862
     52          6           0        9.033001   -0.064536   -0.272658
     53          6           0       10.190311   -0.488356   -1.071749
     54          6           0        9.929835   -1.968139   -1.409692
     55          6           0       11.375091   -0.225443   -0.111316
     56          6           0       12.794350   -0.443585   -0.716000
     57          6           0       13.965490   -0.176979    0.249870
     58          6           0       15.378606   -0.200378   -0.514864
     59          6           0       15.834895   -1.648182   -1.048535
     60          6           0       16.335992    0.395364    0.487629
     61          6           0       17.799827    0.556332   -0.128045
     62          6           0       18.701002    1.289096    0.733658
     63          6           0       20.170040    1.349747    0.222179
     64          6           0       20.275282    2.196864   -1.037163
     65          6           0       21.056804    1.993579    1.292998
     66          1           0       -4.248195    3.626608    1.614015
     67          1           0      -10.058181    3.847329   -0.717877
     68          1           0      -10.182062   -2.462776   -1.197158
     69          1           0       -2.448960   -0.841808    2.269664
     70          1           0       -2.433008    1.533879    1.255511
     71          1           0       -1.962720    1.066415    3.537643
     72          1           0       -3.480074    2.122418    3.636589
     73          1           0       -3.591219    0.366700    3.891759
     74          1           0       -2.023037   -1.597052   -0.440665
     75          1           0       -1.966516    0.076883   -0.650165
     76          1           0       -0.040907    0.492022    1.242266
     77          1           0       -0.343778   -1.409560    1.350962
     78          1           0       -5.790245    6.792397    0.473186
     79          1           0       -5.830070    6.218225    2.198723
     80          1           0       -4.392239    5.801414    1.490959
     81          1           0       -9.172990    5.904018   -0.706875
     82          1           0       -9.228200    7.956046    0.471333
     83          1           0       -7.730154    7.366908    1.425112
     84          1           0      -12.044123    3.057386   -2.549553
     85          1           0      -13.225061    2.040674   -1.686049
     86          1           0      -12.440437    3.179968   -0.782712
     87          1           0      -12.527362   -1.575986   -0.875226
     88          1           0      -13.284299    0.011209   -1.553821
     89          1           0      -13.222411   -1.867952   -3.375537
     90          1           0      -12.713412   -0.270899   -3.866263
     91          1           0      -11.496200   -1.444324   -3.784125
     92          1           0       -9.356299   -4.731723   -1.575341
     93          1           0       -8.028299   -5.603100   -0.871931
     94          1           0       -9.303452   -5.056061    0.413780
     95          1           0       -3.497180   -3.360993   -0.369897
     96          1           0       -1.499586   -4.811484    3.369390
     97          1           0       -3.059719   -5.616271    3.340741
     98          1           0       -1.813629   -6.399800    2.287761
     99          1           0        2.748211   -1.656751   -1.434745
    100          1           0        2.504639   -0.240845   -2.016437
    101          1           0        4.360702   -1.048161    0.398659
    102          1           0        4.151416    1.157998   -2.643965
    103          1           0        5.257764    2.194713   -1.969412
    104          1           0        5.738907    0.862105   -2.803923
    105          1           0        6.587804    1.553565    0.051630
    106          1           0        6.157107    0.266938    0.973426
    107          1           0        7.354137   -1.226875   -1.239394
    108          1           0        7.667085    0.127540   -1.835774
    109          1           0        8.988699    0.894206   -0.005449
    110          1           0        8.991348   -0.544063    0.627183
    111          1           0       10.206753    0.039141   -2.067797
    112          1           0        9.201581   -1.850352   -2.290051
    113          1           0       10.812789   -2.383691   -1.676648
    114          1           0        9.607798   -2.637426   -0.467681
    115          1           0       11.269186    0.802046    0.274143
    116          1           0       11.208760   -0.774068    0.717582
    117          1           0       12.785368   -1.505908   -1.230864
    118          1           0       12.801720    0.052795   -1.726416
    119          1           0       13.701239    0.804732    0.758621
    120          1           0       14.142164   -0.886755    1.015544
    121          1           0       15.473128    0.558784   -1.240849
    122          1           0       15.685819   -2.295287   -0.247850
    123          1           0       15.119344   -1.934007   -1.909444
    124          1           0       16.896878   -1.503100   -1.362860
    125          1           0       16.144423    1.309482    0.983190
    126          1           0       16.369475   -0.194303    1.519630
    127          1           0       18.000382   -0.451144   -0.447818
    128          1           0       17.580917    0.921577   -1.087126
    129          1           0       18.497036    2.260610    0.850655
    130          1           0       18.887757    0.653356    1.675129
    131          1           0       20.297366    0.265273    0.075771
    132          1           0       20.101339    3.204479   -0.691085
    133          1           0       21.259898    2.357141   -1.492093
    134          1           0       19.672537    1.943223   -1.818480
    135          1           0       20.848093    1.524042    2.175474
    136          1           0       22.234797    2.003543    1.084136
    137          1           0       21.066695    3.048279    1.611845
 ---------------------------------------------------------------------

 SCF Done:  E(RCAM-B3LYP) =  -2933.49781645     A.U. after   16 cycles

 Excitation energies and oscillator strengths:

 Excited State   1:      Singlet-A      1.9408 eV  638.82 nm  f=0.3490  <S**2>=0.000
     240 -> 243        0.19502
     241 -> 242        0.68086
 This state for optimization and/or second-order correction.
 Total Energy, E(TD-HF/TD-DFT) =  -2933.42649243
 Copying the excited state density for this state as the 1-particle RhoCI density.

 The electronic state is 1-A.
 Alpha  occ. eigenvalues --  -46.79498 -19.21583 -19.21405 -19.16721 -19.16294
 Alpha  occ. eigenvalues --  -19.16198 -14.37809 -14.35574 -14.34596 -14.34591
 Alpha  occ. eigenvalues --  -10.34387 -10.33599 -10.30610 -10.27395 -10.26485
 Alpha  occ. eigenvalues --  -10.25812 -10.25716 -10.25528 -10.24965 -10.24663
 Alpha  occ. eigenvalues --  -10.24559 -10.24298 -10.24022 -10.23820 -10.23756
 Alpha  occ. eigenvalues --  -10.23473 -10.23121 -10.22742 -10.22648 -10.22545
 Alpha  occ. eigenvalues --  -10.22459 -10.22408 -10.22381 -10.22300 -10.22280
 Alpha  occ. eigenvalues --  -10.22228 -10.22158 -10.22105 -10.21979 -10.21838
 Alpha  occ. eigenvalues --  -10.21818 -10.21797 -10.21641 -10.21636 -10.21608
 Alpha  occ. eigenvalues --  -10.21525 -10.21501 -10.21499 -10.21499 -10.21441
 Alpha  occ. eigenvalues --  -10.21434 -10.21397 -10.20803 -10.20615 -10.20509
 Alpha  occ. eigenvalues --  -10.20398 -10.20081 -10.20033 -10.19943 -10.19913
 Alpha  occ. eigenvalues --  -10.19825 -10.19497 -10.18892 -10.18602 -10.18568
 Alpha  occ. eigenvalues --   -3.08172  -1.83109  -1.82640  -1.82588  -1.15463
 Alpha  occ. eigenvalues --   -1.12225  -1.06553  -1.04912  -1.04542  -0.99987
 Alpha  occ. eigenvalues --   -0.98689  -0.97670  -0.95520  -0.87274  -0.86760
 Alpha  occ. eigenvalues --   -0.85695  -0.85386  -0.85164  -0.84558  -0.83828
 Alpha  occ. eigenvalues --   -0.83227  -0.83133  -0.81737  -0.80714  -0.80580
 Alpha  occ. eigenvalues --   -0.79839  -0.79234  -0.78357  -0.78245  -0.77187
 Alpha  occ. eigenvalues --   -0.76729  -0.76507  -0.75480  -0.75138  -0.73369
 Alpha  occ. eigenvalues --   -0.73031  -0.72689  -0.72227  -0.71928  -0.71575
 Alpha  occ. eigenvalues --   -0.71298  -0.70591  -0.69953  -0.69237  -0.67649
 Alpha  occ. eigenvalues --   -0.67208  -0.66608  -0.65760  -0.65165  -0.64440
 Alpha  occ. eigenvalues --   -0.63886  -0.62862  -0.61313  -0.61066  -0.60226
 Alpha  occ. eigenvalues --   -0.60174  -0.59812  -0.59736  -0.59547  -0.58769
 Alpha  occ. eigenvalues --   -0.58314  -0.56571  -0.55857  -0.55638  -0.54924
 Alpha  occ. eigenvalues --   -0.54791  -0.54060  -0.53731  -0.53588  -0.52178
 Alpha  occ. eigenvalues --   -0.51695  -0.51429  -0.51342  -0.50912  -0.50755
 Alpha  occ. eigenvalues --   -0.50558  -0.50223  -0.49959  -0.49590  -0.49222
 Alpha  occ. eigenvalues --   -0.48965  -0.48856  -0.48682  -0.48367  -0.47935
 Alpha  occ. eigenvalues --   -0.47579  -0.47297  -0.47181  -0.47055  -0.46798
 Alpha  occ. eigenvalues --   -0.46458  -0.46325  -0.46081  -0.45829  -0.45689
 Alpha  occ. eigenvalues --   -0.45596  -0.45528  -0.45257  -0.45176  -0.44854
 Alpha  occ. eigenvalues --   -0.44628  -0.44288  -0.44040  -0.43875  -0.43689
 Alpha  occ. eigenvalues --   -0.43216  -0.43158  -0.42643  -0.42631  -0.42492
 Alpha  occ. eigenvalues --   -0.42402  -0.42156  -0.41820  -0.41644  -0.41408
 Alpha  occ. eigenvalues --   -0.41283  -0.41143  -0.41075  -0.41049  -0.40798
 Alpha  occ. eigenvalues --   -0.40690  -0.40598  -0.40365  -0.40229  -0.40060
 Alpha  occ. eigenvalues --   -0.39890  -0.39547  -0.39242  -0.39137  -0.38936
 Alpha  occ. eigenvalues --   -0.38773  -0.38667  -0.38411  -0.38295  -0.38056
 Alpha  occ. eigenvalues --   -0.37861  -0.37772  -0.37690  -0.37455  -0.37344
 Alpha  occ. eigenvalues --   -0.37126  -0.36832  -0.36657  -0.36400  -0.36362
 Alpha  occ. eigenvalues --   -0.36010  -0.35976  -0.35846  -0.35203  -0.34640
 Alpha  occ. eigenvalues --   -0.34302  -0.34145  -0.34071  -0.34047  -0.33959
 Alpha  occ. eigenvalues --   -0.33388  -0.32929  -0.32921  -0.32775  -0.32292
 Alpha  occ. eigenvalues --   -0.31931  -0.31901  -0.31501  -0.30642  -0.30227
 Alpha  occ. eigenvalues --   -0.29960  -0.29410  -0.28974  -0.28348  -0.27259
 Alpha  occ. eigenvalues --   -0.27067  -0.26641  -0.26439  -0.24488  -0.21452
 Alpha  occ. eigenvalues --   -0.19116
 Alpha virt. eigenvalues --   -0.06931  -0.02432  -0.00177   0.02090   0.03951
 Alpha virt. eigenvalues --    0.04825   0.04935   0.05503   0.05940   0.06251
 Alpha virt. eigenvalues --    0.07081   0.09542   0.09658   0.10031   0.10270

 Mulliken charges:
               1
     1  Mg   0.805009
     2  C    0.060602
     3  C   -0.169887
     4  C   -0.183000
     5  C   -0.179557
     6  N   -0.631554
     7  C    0.278411
     8  C   -0.147599
     9  C   -0.116846
    10  C    0.323830
    11  C   -0.327383
    12  C   -0.158620
    13  C   -0.265883
    14  C    0.600545
    15  O   -0.464932
    16  O   -0.477117
    17  N   -0.708824
    18  C    0.318569
    19  C    0.005076
    20  C    0.074534
    21  C    0.318042
    22  C   -0.408504
    23  C   -0.104558
    24  C   -0.244265
    25  N   -0.672845
    26  C    0.261933
    27  C    0.010535
    28  C    0.071188
    29  C    0.293381
    30  C   -0.373599
    31  C   -0.241175
    32  C   -0.326188
    33  N   -0.692472
    34  C    0.264734
    35  C   -0.027636
    36  C   -0.000098
    37  C    0.279650
    38  C   -0.350301
    39  C    0.385439
    40  O   -0.462937
    41  C   -0.320056
    42  C    0.596320
    43  O   -0.445014
    44  O   -0.420187
    45  C   -0.099774
    46  C    0.008556
    47  C   -0.129738
    48  C    0.108221
    49  C   -0.357905
    50  C   -0.240303
    51  C   -0.193490
    52  C   -0.158327
    53  C   -0.079579
    54  C   -0.286041
    55  C   -0.169231
    56  C   -0.183113
    57  C   -0.170820
    58  C   -0.075823
    59  C   -0.311699
    60  C   -0.177156
    61  C   -0.192538
    62  C   -0.155964
    63  C   -0.062221
    64  C   -0.310497
    65  C   -0.316944
    66  H    0.072135
    67  H    0.070548
    68  H    0.081916
    69  H    0.110043
    70  H    0.108566
    71  H    0.108938
    72  H    0.113206
    73  H    0.120333
    74  H    0.125250
    75  H    0.128801
    76  H    0.102552
    77  H    0.137254
    78  H    0.120355
    79  H    0.139523
    80  H    0.107176
    81  H    0.078062
    82  H    0.106354
    83  H    0.094206
    84  H    0.109031
    85  H    0.103080
    86  H    0.136381
    87  H    0.120153
    88  H    0.117625
    89  H    0.116700
    90  H    0.102945
    91  H    0.106710
    92  H    0.101291
    93  H    0.153501
    94  H    0.103211
    95  H    0.168344
    96  H    0.135715
    97  H    0.126105
    98  H    0.139915
    99  H    0.127688
   100  H    0.098784
   101  H    0.083285
   102  H    0.112537
   103  H    0.119948
   104  H    0.122647
   105  H    0.106039
   106  H    0.087015
   107  H    0.107150
   108  H    0.107893
   109  H    0.091228
   110  H    0.100058
   111  H    0.075522
   112  H    0.094904
   113  H    0.106047
   114  H    0.083163
   115  H    0.083544
   116  H    0.100151
   117  H    0.066253
   118  H    0.088896
   119  H    0.088737
   120  H    0.103460
   121  H    0.094884
   122  H    0.120686
   123  H    0.100694
   124  H    0.107671
   125  H    0.097805
   126  H    0.047540
   127  H    0.091450
   128  H    0.094608
   129  H    0.098242
   130  H    0.084697
   131  H    0.085490
   132  H    0.098447
   133  H    0.095849
   134  H    0.103777
   135  H    0.103751
   136  H    0.077780
   137  H    0.103374
 Sum of Mulliken charges =  -0.00000

 Dipole moment (field-independent basis, Debye):
    X=              2.2735    Y=              3.5917    Z=              0.6665  Tot=              4.3028
 Quadrupole moment (field-independent basis, Debye-Ang):
   XX=           -344.8647   YY=           -396.7847   ZZ=           -391.0352
   XY=            -14.0012   XZ=              8.6957   YZ=             -2.0746

 Normal termination of Gaussian 16 at Wed Sep  4 05:31:38 2019.
