 Gaussian 09, Revision D.01,
 Gaussian 09:  ES64L-G09RevD.01 24-Apr-2013

 -------------------------------------
 # td=(NStates=1) CAM-B3LYP/6-31G(d,p)
 -------------------------------------

 --
 TD
 --
 Symbolic Z-matrix:
 Charge =  0 Multiplicity = 1

                         Standard orientation:
 ---------------------------------------------------------------------
 Center     Atomic      Atomic             Coordinates (Angstroms)
 Number     Number       Type             X           Y           Z
 ---------------------------------------------------------------------
      1         12           0       -7.192921    0.680219    0.090279
      2          6           0       -4.855184   -1.903301    0.472244
      3          6           0       -4.724727    2.898362    0.987905
      4          6           0       -9.366332    3.145852   -0.307122
      5          6           0       -9.551499   -1.734267   -0.784843
      6          7           0       -5.065724    0.456368    0.604692
      7          6           0       -4.318443   -0.688034    0.822576
      8          6           0       -2.910059   -0.392541    1.276700
      9          6           0       -2.941194    1.123700    1.486549
     10          6           0       -4.383217    1.508817    1.163995
     11          6           0       -2.598277    1.455609    2.986534
     12          6           0       -1.924522   -0.770100    0.033812
     13          6           0       -0.457768   -0.444162    0.450823
     14          6           0        0.458444   -0.630302   -0.636695
     15          8           0        0.100039   -1.037087   -1.746486
     16          8           0        1.732586   -0.309678   -0.290807
     17          7           0       -7.082228    2.666130    0.289897
     18          6           0       -6.020050    3.402413    0.688177
     19          6           0       -6.359021    4.779607    0.819687
     20          6           0       -7.676736    4.868934    0.409903
     21          6           0       -8.214279    3.505471    0.157289
     22          6           0       -5.381319    5.816897    1.139607
     23          6           0       -8.596029    6.037486    0.180489
     24          6           0       -8.462156    7.147123    0.846602
     25          7           0       -9.093018    0.671312   -0.570668
     26          6           0       -9.845567    1.800825   -0.668298
     27          6           0      -11.164880    1.442330   -1.055073
     28          6           0      -11.196061    0.055802   -1.248200
     29          6           0       -9.908375   -0.408035   -0.879042
     30          6           0      -12.349716    2.343300   -1.263501
     31          6           0      -12.364063   -0.792014   -1.677944
     32          6           0      -12.336305   -1.067687   -3.252356
     33          7           0       -7.214993   -1.304335   -0.081014
     34          6           0       -8.271408   -2.162007   -0.524323
     35          6           0       -7.810922   -3.574537   -0.468788
     36          6           0       -6.473200   -3.628766   -0.042423
     37          6           0       -6.208474   -2.147765    0.133394
     38          6           0       -8.747717   -4.801229   -0.663518
     39          6           0       -5.275323   -4.431257    0.209979
     40          8           0       -5.264968   -5.661624    0.276467
     41          6           0       -4.201650   -3.293696    0.542982
     42          6           0       -3.556157   -3.761756    1.890204
     43          8           0       -3.633713   -3.151672    2.945810
     44          8           0       -2.839483   -4.895273    1.647327
     45          6           0       -2.156128   -5.355862    2.886405
     46          6           0        2.821223   -0.555830   -1.242780
     47          6           0        4.094373   -0.387331   -0.610784
     48          6           0        5.092488    0.302346   -1.013188
     49          6           0        5.015670    1.379801   -2.122531
     50          6           0        6.385496    0.422890   -0.229589
     51          6           0        7.589504   -0.211347   -1.032800
     52          6           0        8.915052   -0.170094   -0.194372
     53          6           0       10.119449   -0.613189   -0.918027
     54          6           0       10.169669   -2.036837   -1.334494
     55          6           0       11.491470   -0.392598    0.050614
     56          6           0       12.801505   -0.473245   -0.891423
     57          6           0       13.965553   -0.080080    0.141531
     58          6           0       15.319804   -0.181208   -0.461259
     59          6           0       15.636832   -1.666782   -0.693677
     60          6           0       16.387725    0.383674    0.450405
     61          6           0       17.799660    0.532016   -0.079725
     62          6           0       18.799062    1.284134    0.774237
     63          6           0       20.224784    1.304765    0.301112
     64          6           0       20.485720    1.937192   -1.226260
     65          6           0       21.242366    2.104952    1.408970
     66          1           0       -3.933671    3.533700    1.351561
     67          1           0      -10.092506    3.843018   -0.516032
     68          1           0      -10.332605   -2.429567   -1.105327
     69          1           0       -3.119158   -1.124321    2.127483
     70          1           0       -2.363391    1.753870    0.986606
     71          1           0       -1.520001    0.976403    3.362260
     72          1           0       -2.500886    2.446990    3.118792
     73          1           0       -3.434100    0.968187    3.644305
     74          1           0       -2.074399   -1.754298   -0.168228
     75          1           0       -2.413107   -0.263945   -0.971814
     76          1           0       -0.817677    0.582252    1.152140
     77          1           0       -0.256520   -1.119592    1.394470
     78          1           0       -5.748547    6.780110    0.715326
     79          1           0       -5.401324    6.218446    2.142849
     80          1           0       -4.361902    5.622441    0.947573
     81          1           0       -9.515861    6.105606   -0.700074
     82          1           0       -9.069126    8.071565    0.635984
     83          1           0       -7.794209    7.445655    1.590032
     84          1           0      -12.251199    2.882132   -2.256873
     85          1           0      -13.234216    1.774962   -1.607538
     86          1           0      -12.557150    2.965199   -0.313796
     87          1           0      -12.499569   -1.720293   -1.177489
     88          1           0      -13.288109   -0.449761   -1.436869
     89          1           0      -13.070637   -1.888606   -3.481271
     90          1           0      -12.426933   -0.190764   -3.847896
     91          1           0      -11.400713   -1.370885   -3.460716
     92          1           0       -9.112010   -4.614936   -1.621495
     93          1           0       -8.284666   -5.666077   -0.736772
     94          1           0       -9.609894   -4.995007    0.033243
     95          1           0       -3.340584   -3.468213   -0.184284
     96          1           0       -1.685561   -4.398464    3.382758
     97          1           0       -2.945734   -5.677137    3.682574
     98          1           0       -1.458000   -6.130272    2.736729
     99          1           0        3.056101   -1.570597   -1.558993
    100          1           0        2.582704   -0.042496   -2.219152
    101          1           0        4.310051   -1.094987    0.140519
    102          1           0        4.159039    1.836327   -2.369999
    103          1           0        5.493180    2.353455   -1.687480
    104          1           0        5.479029    1.000433   -2.833782
    105          1           0        6.697674    1.401506    0.053920
    106          1           0        6.169672   -0.217324    0.762354
    107          1           0        7.269891   -1.202195   -1.344626
    108          1           0        7.760968    0.408015   -1.991533
    109          1           0        8.900296    0.959817    0.278357
    110          1           0        8.938494   -0.617160    0.657500
    111          1           0       10.217281    0.178623   -1.705315
    112          1           0        9.356436   -2.164888   -1.891750
    113          1           0       10.965152   -2.144819   -2.039039
    114          1           0       10.264975   -2.610890   -0.535506
    115          1           0       11.419638    0.640077    0.393619
    116          1           0       11.337234   -1.149445    0.891337
    117          1           0       12.860825   -1.426531   -1.081250
    118          1           0       12.719642    0.102516   -1.884152
    119          1           0       13.668671    0.835468    0.525537
    120          1           0       13.760314   -0.759417    1.050155
    121          1           0       15.172262    0.119095   -1.472516
    122          1           0       15.782210   -2.177533    0.376208
    123          1           0       14.909832   -2.262185   -1.164244
    124          1           0       16.512108   -1.942926   -1.369055
    125          1           0       16.182886    1.348337    0.792263
    126          1           0       16.184304   -0.308259    1.454170
    127          1           0       18.272089   -0.374778   -0.443850
    128          1           0       17.762654    1.293655   -0.930929
    129          1           0       18.190650    2.328343    1.061146
    130          1           0       18.858629    0.858164    1.722601
    131          1           0       20.621391    0.333408    0.346117
    132          1           0       20.140838    3.037119   -1.141651
    133          1           0       21.483956    1.695519   -1.629887
    134          1           0       19.602592    1.366001   -1.867534
    135          1           0       21.078229    1.692499    2.331189
    136          1           0       22.266733    2.015997    0.876650
    137          1           0       21.001881    3.036720    1.450072
 ---------------------------------------------------------------------

 SCF Done:  E(RCAM-B3LYP) =  -2932.58055775     A.U. after   17 cycles

 Excitation energies and oscillator strengths:

 Excited State   1:      Singlet-A      2.2064 eV  561.92 nm  f=0.1598  <S**2>=0.000
     240 -> 242       -0.14802
     240 -> 243       -0.28300
     241 -> 242        0.61016
     241 -> 243       -0.11728
 This state for optimization and/or second-order correction.
 Total Energy, E(TD-HF/TD-KS) =  -2932.49947328
 Copying the excited state density for this state as the 1-particle RhoCI density.

 The electronic state is 1-A.
 Alpha  occ. eigenvalues --  -46.83286 -19.27262 -19.26657 -19.21886 -19.21048
 Alpha  occ. eigenvalues --  -19.20624 -14.41207 -14.39840 -14.39064 -14.38441
 Alpha  occ. eigenvalues --  -10.40074 -10.39731 -10.35777 -10.32513 -10.31869
 Alpha  occ. eigenvalues --  -10.31461 -10.30569 -10.30407 -10.29670 -10.29586
 Alpha  occ. eigenvalues --  -10.29579 -10.29426 -10.29080 -10.28978 -10.28688
 Alpha  occ. eigenvalues --  -10.28418 -10.28284 -10.27721 -10.27618 -10.27319
 Alpha  occ. eigenvalues --  -10.27301 -10.27266 -10.27132 -10.27069 -10.26993
 Alpha  occ. eigenvalues --  -10.26834 -10.26653 -10.26451 -10.26325 -10.26277
 Alpha  occ. eigenvalues --  -10.26216 -10.26167 -10.25907 -10.25855 -10.25831
 Alpha  occ. eigenvalues --  -10.25701 -10.25654 -10.25650 -10.25350 -10.25313
 Alpha  occ. eigenvalues --  -10.25227 -10.25145 -10.25121 -10.25029 -10.25010
 Alpha  occ. eigenvalues --  -10.24983 -10.24711 -10.24645 -10.24538 -10.24522
 Alpha  occ. eigenvalues --  -10.24467 -10.24101 -10.23621 -10.23496 -10.22064
 Alpha  occ. eigenvalues --   -3.12504  -1.87198  -1.86741  -1.86700  -1.17558
 Alpha  occ. eigenvalues --   -1.17175  -1.10140  -1.09302  -1.08588  -1.03875
 Alpha  occ. eigenvalues --   -1.02971  -1.02647  -1.01558  -0.92077  -0.91636
 Alpha  occ. eigenvalues --   -0.90840  -0.89835  -0.89547  -0.89332  -0.89028
 Alpha  occ. eigenvalues --   -0.87774  -0.87553  -0.87176  -0.87067  -0.86041
 Alpha  occ. eigenvalues --   -0.85023  -0.84120  -0.83589  -0.83034  -0.82564
 Alpha  occ. eigenvalues --   -0.81510  -0.80762  -0.80464  -0.80218  -0.78588
 Alpha  occ. eigenvalues --   -0.78100  -0.77519  -0.77019  -0.76006  -0.75369
 Alpha  occ. eigenvalues --   -0.75058  -0.74509  -0.74252  -0.73406  -0.72423
 Alpha  occ. eigenvalues --   -0.71937  -0.71149  -0.70798  -0.69079  -0.68434
 Alpha  occ. eigenvalues --   -0.67006  -0.66809  -0.66046  -0.65643  -0.65007
 Alpha  occ. eigenvalues --   -0.63901  -0.63849  -0.63409  -0.62789  -0.62163
 Alpha  occ. eigenvalues --   -0.61957  -0.61074  -0.60859  -0.60220  -0.59527
 Alpha  occ. eigenvalues --   -0.58213  -0.57957  -0.57831  -0.56803  -0.56253
 Alpha  occ. eigenvalues --   -0.55936  -0.55605  -0.55178  -0.55019  -0.54915
 Alpha  occ. eigenvalues --   -0.54668  -0.54412  -0.54117  -0.53422  -0.53011
 Alpha  occ. eigenvalues --   -0.52703  -0.52572  -0.52319  -0.52087  -0.51692
 Alpha  occ. eigenvalues --   -0.51430  -0.51300  -0.51112  -0.50556  -0.50480
 Alpha  occ. eigenvalues --   -0.50184  -0.50163  -0.49929  -0.49725  -0.49558
 Alpha  occ. eigenvalues --   -0.49450  -0.49231  -0.49142  -0.48746  -0.48415
 Alpha  occ. eigenvalues --   -0.48274  -0.48146  -0.47711  -0.47436  -0.47368
 Alpha  occ. eigenvalues --   -0.47072  -0.46575  -0.46108  -0.46044  -0.45840
 Alpha  occ. eigenvalues --   -0.45597  -0.45270  -0.45179  -0.45101  -0.45031
 Alpha  occ. eigenvalues --   -0.44640  -0.44560  -0.44302  -0.44231  -0.44044
 Alpha  occ. eigenvalues --   -0.43797  -0.43504  -0.43276  -0.43110  -0.43069
 Alpha  occ. eigenvalues --   -0.42854  -0.42661  -0.42563  -0.42467  -0.42241
 Alpha  occ. eigenvalues --   -0.41816  -0.41611  -0.41366  -0.41278  -0.40914
 Alpha  occ. eigenvalues --   -0.40810  -0.40696  -0.40529  -0.40424  -0.40243
 Alpha  occ. eigenvalues --   -0.40094  -0.39836  -0.39772  -0.39524  -0.39169
 Alpha  occ. eigenvalues --   -0.39011  -0.38599  -0.38508  -0.38385  -0.38041
 Alpha  occ. eigenvalues --   -0.37498  -0.37273  -0.37150  -0.37005  -0.36730
 Alpha  occ. eigenvalues --   -0.36485  -0.36464  -0.36273  -0.35977  -0.35741
 Alpha  occ. eigenvalues --   -0.35412  -0.35290  -0.34205  -0.33990  -0.33502
 Alpha  occ. eigenvalues --   -0.33103  -0.32445  -0.32168  -0.30349  -0.30153
 Alpha  occ. eigenvalues --   -0.30049  -0.29649  -0.28171  -0.27178  -0.23249
 Alpha  occ. eigenvalues --   -0.21252
 Alpha virt. eigenvalues --   -0.05414  -0.03410   0.01206   0.03567   0.04614
 Alpha virt. eigenvalues --    0.06163   0.06456   0.06838   0.07292   0.07456
 Alpha virt. eigenvalues --    0.08614   0.10963   0.11313   0.11822   0.11973

 Mulliken charges:
               1
     1  Mg   0.821610
     2  C    0.071612
     3  C   -0.217225
     4  C   -0.161432
     5  C   -0.155504
     6  N   -0.595895
     7  C    0.230703
     8  C   -0.163481
     9  C   -0.172189
    10  C    0.326711
    11  C   -0.294137
    12  C   -0.150165
    13  C   -0.279745
    14  C    0.646050
    15  O   -0.480999
    16  O   -0.487076
    17  N   -0.739386
    18  C    0.349281
    19  C    0.048189
    20  C   -0.004809
    21  C    0.335464
    22  C   -0.399070
    23  C   -0.079627
    24  C   -0.230145
    25  N   -0.723967
    26  C    0.289353
    27  C   -0.007170
    28  C    0.033320
    29  C    0.272640
    30  C   -0.379314
    31  C   -0.252296
    32  C   -0.317870
    33  N   -0.698448
    34  C    0.271485
    35  C   -0.044076
    36  C    0.045195
    37  C    0.273477
    38  C   -0.353443
    39  C    0.377939
    40  O   -0.460154
    41  C   -0.350054
    42  C    0.636108
    43  O   -0.480474
    44  O   -0.448918
    45  C   -0.091687
    46  C    0.020094
    47  C   -0.147485
    48  C    0.110650
    49  C   -0.338623
    50  C   -0.221798
    51  C   -0.186501
    52  C   -0.142844
    53  C   -0.091669
    54  C   -0.287415
    55  C   -0.212880
    56  C   -0.190707
    57  C   -0.170684
    58  C   -0.058235
    59  C   -0.307284
    60  C   -0.141002
    61  C   -0.184408
    62  C   -0.158709
    63  C   -0.078475
    64  C   -0.316097
    65  C   -0.322058
    66  H    0.074340
    67  H    0.083673
    68  H    0.105044
    69  H    0.161986
    70  H    0.134894
    71  H    0.081874
    72  H    0.116725
    73  H    0.113263
    74  H    0.120394
    75  H    0.113325
    76  H    0.124297
    77  H    0.141701
    78  H    0.119321
    79  H    0.127700
    80  H    0.128245
    81  H    0.099153
    82  H    0.091613
    83  H    0.105353
    84  H    0.112007
    85  H    0.113468
    86  H    0.114059
    87  H    0.102934
    88  H    0.110463
    89  H    0.094708
    90  H    0.111753
    91  H    0.122809
    92  H    0.123735
    93  H    0.144255
    94  H    0.122440
    95  H    0.167143
    96  H    0.126473
    97  H    0.130526
    98  H    0.137785
    99  H    0.130879
   100  H    0.124171
   101  H    0.089111
   102  H    0.120998
   103  H    0.089000
   104  H    0.130514
   105  H    0.112195
   106  H    0.075660
   107  H    0.100491
   108  H    0.087284
   109  H    0.051375
   110  H    0.095739
   111  H    0.072583
   112  H    0.105237
   113  H    0.107652
   114  H    0.108098
   115  H    0.093237
   116  H    0.087368
   117  H    0.120227
   118  H    0.089286
   119  H    0.098805
   120  H    0.078003
   121  H    0.094046
   122  H    0.074222
   123  H    0.104883
   124  H    0.090689
   125  H    0.091427
   126  H    0.059088
   127  H    0.095115
   128  H    0.095218
   129  H    0.049095
   130  H    0.099593
   131  H    0.103447
   132  H    0.105307
   133  H    0.111814
   134  H    0.080124
   135  H    0.107797
   136  H    0.088535
   137  H    0.119975
 Sum of Mulliken charges =   0.00000

 Dipole moment (field-independent basis, Debye):
    X=              1.9041    Y=              3.9999    Z=              0.8593  Tot=              4.5125
 Quadrupole moment (field-independent basis, Debye-Ang):
   XX=           -359.3260   YY=           -385.0040   ZZ=           -396.2361
   XY=            -27.2197   XZ=              4.0794   YZ=             -0.0987

 Normal termination of Gaussian 09 at Sat Jul  6 06:00:27 2019.
