 Gaussian 09, Revision D.01,
 Gaussian 09:  ES64L-G09RevD.01 24-Apr-2013

 -------------------------------------
 # td=(NStates=1) CAM-B3LYP/6-31G(d,p)
 -------------------------------------

 --
 TD
 --
 Symbolic Z-matrix:
 Charge =  0 Multiplicity = 1

                         Standard orientation:
 ---------------------------------------------------------------------
 Center     Atomic      Atomic             Coordinates (Angstroms)
 Number     Number       Type             X           Y           Z
 ---------------------------------------------------------------------
      1         12           0       -7.166183    0.645611    0.062714
      2          6           0       -4.840935   -1.850494    0.492032
      3          6           0       -4.883712    2.829197    1.176254
      4          6           0       -9.405736    3.145318   -0.442488
      5          6           0       -9.488324   -1.665138   -0.820411
      6          7           0       -5.156686    0.504617    0.693061
      7          6           0       -4.379649   -0.665190    0.749800
      8          6           0       -3.009050   -0.379127    1.205693
      9          6           0       -3.010117    1.134682    1.621800
     10          6           0       -4.433396    1.523992    1.083850
     11          6           0       -2.841357    1.346945    3.100468
     12          6           0       -1.843141   -0.560749    0.181714
     13          6           0       -0.433193   -0.503184    0.590509
     14          6           0        0.551319   -0.713727   -0.526256
     15          8           0        0.275832   -1.113392   -1.672271
     16          8           0        1.870478   -0.476214   -0.022989
     17          7           0       -7.170945    2.639967    0.414730
     18          6           0       -6.155848    3.443885    0.830346
     19          6           0       -6.432796    4.865166    0.762407
     20          6           0       -7.783678    4.888371    0.306632
     21          6           0       -8.189415    3.587940    0.067594
     22          6           0       -5.462614    5.887867    1.119514
     23          6           0       -8.633890    6.075890    0.044049
     24          6           0       -8.514969    7.181381    0.715138
     25          7           0       -9.118992    0.729287   -0.584286
     26          6           0       -9.871583    1.750914   -0.727214
     27          6           0      -11.244535    1.449618   -1.240162
     28          6           0      -11.224867    0.085596   -1.293759
     29          6           0       -9.921055   -0.396759   -0.940420
     30          6           0      -12.312310    2.471122   -1.474380
     31          6           0      -12.316142   -0.868709   -1.764696
     32          6           0      -12.273899   -1.268227   -3.278381
     33          7           0       -7.207765   -1.390558   -0.187660
     34          6           0       -8.189847   -2.167056   -0.595048
     35          6           0       -7.820675   -3.528817   -0.461019
     36          6           0       -6.505292   -3.508635   -0.015142
     37          6           0       -6.168929   -2.137763    0.128666
     38          6           0       -8.645853   -4.777938   -0.868792
     39          6           0       -5.356914   -4.344313    0.313942
     40          8           0       -5.251351   -5.554789    0.276309
     41          6           0       -4.270026   -3.310059    0.532117
     42          6           0       -3.497727   -3.631554    1.807540
     43          8           0       -3.867144   -3.208404    2.964498
     44          8           0       -2.661606   -4.729482    1.661599
     45          6           0       -2.272106   -5.295028    2.846599
     46          6           0        2.871990   -0.930457   -1.130642
     47          6           0        4.159405   -0.572701   -0.497471
     48          6           0        5.082414    0.282026   -0.831742
     49          6           0        5.002959    1.131615   -2.049721
     50          6           0        6.398863    0.316234   -0.043135
     51          6           0        7.624755   -0.133640   -0.883945
     52          6           0        8.993615   -0.303530    0.058085
     53          6           0       10.152938   -0.616047   -0.793512
     54          6           0       10.184739   -2.141816   -1.201941
     55          6           0       11.510856   -0.278509   -0.009932
     56          6           0       12.760943   -0.539219   -0.754692
     57          6           0       14.048608   -0.080674    0.067662
     58          6           0       15.346152   -0.191235   -0.595409
     59          6           0       15.712668   -1.702363   -0.885749
     60          6           0       16.395966    0.414292    0.367629
     61          6           0       17.777863    0.746543   -0.365950
     62          6           0       18.764414    1.312184    0.643179
     63          6           0       20.216662    1.449375    0.176960
     64          6           0       20.461220    2.188054   -1.112467
     65          6           0       21.051418    2.138470    1.285436
     66          1           0       -3.907232    3.521355    1.610453
     67          1           0      -10.086256    4.030192   -0.656028
     68          1           0      -10.112911   -2.557204   -0.974802
     69          1           0       -2.813676   -0.930821    2.167551
     70          1           0       -2.305325    1.665171    0.959522
     71          1           0       -1.877981    1.057151    3.399505
     72          1           0       -2.973224    2.315383    3.412913
     73          1           0       -3.562843    0.610963    3.458639
     74          1           0       -1.868329   -1.538920   -0.424486
     75          1           0       -2.087763    0.274856   -0.650007
     76          1           0        0.054816    0.499739    1.058731
     77          1           0       -0.235843   -1.135516    1.368925
     78          1           0       -5.570951    6.606819    0.234912
     79          1           0       -5.584881    6.312488    2.290470
     80          1           0       -4.385518    5.401269    1.003633
     81          1           0       -9.395809    6.138359   -0.711910
     82          1           0       -9.110685    8.059728    0.682317
     83          1           0       -7.829397    7.223708    1.710463
     84          1           0      -12.162887    2.865730   -2.390946
     85          1           0      -13.302921    1.976597   -1.490219
     86          1           0      -12.361592    3.105383   -0.573591
     87          1           0      -12.243747   -1.642545   -1.059988
     88          1           0      -13.222666   -0.297377   -1.666687
     89          1           0      -13.224703   -1.694140   -3.536123
     90          1           0      -11.841962   -0.358078   -3.856430
     91          1           0      -11.326533   -2.040538   -3.329024
     92          1           0       -9.120000   -4.827361   -1.929474
     93          1           0       -7.919655   -5.535087   -0.660871
     94          1           0       -9.423795   -4.746730   -0.061969
     95          1           0       -3.316800   -3.537928   -0.047625
     96          1           0       -1.651856   -4.485425    3.470813
     97          1           0       -3.139714   -5.595996    3.535323
     98          1           0       -1.566098   -6.211293    2.687560
     99          1           0        2.729627   -1.984064   -1.175718
    100          1           0        2.419651   -0.328141   -2.031664
    101          1           0        4.148421   -1.335670    0.418262
    102          1           0        3.995327    1.327859   -2.563696
    103          1           0        5.317264    2.093976   -1.673044
    104          1           0        5.592447    0.716590   -2.824534
    105          1           0        6.549172    1.396173    0.378880
    106          1           0        6.404522   -0.472894    0.708954
    107          1           0        7.391408   -1.164639   -1.199030
    108          1           0        7.884423    0.530756   -1.818764
    109          1           0        9.192875    0.719612    0.405793
    110          1           0        8.782079   -0.927653    0.945011
    111          1           0        9.996039    0.022827   -1.853318
    112          1           0        9.379762   -2.309122   -1.842111
    113          1           0       11.051969   -2.263657   -1.946867
    114          1           0       10.308904   -2.772764   -0.328993
    115          1           0       11.315351    0.697186    0.398000
    116          1           0       11.482829   -1.012519    0.837088
    117          1           0       12.877853   -1.508079   -1.099923
    118          1           0       12.939140    0.079845   -1.552465
    119          1           0       13.986293    0.926552    0.508490
    120          1           0       14.182932   -0.762329    1.063465
    121          1           0       15.227850    0.095606   -1.538004
    122          1           0       15.693729   -2.297282    0.186803
    123          1           0       15.158264   -2.039495   -1.755383
    124          1           0       16.678212   -1.943541   -1.229199
    125          1           0       16.117353    1.392349    0.810002
    126          1           0       16.501179   -0.462561    1.273858
    127          1           0       18.177510   -0.129678   -1.003388
    128          1           0       17.531114    1.547203   -1.169722
    129          1           0       18.537315    2.467638    0.850134
    130          1           0       18.730542    0.723210    1.612395
    131          1           0       20.788717    0.465280    0.157077
    132          1           0       20.223816    3.330122   -1.229231
    133          1           0       21.618929    2.107297   -1.342764
    134          1           0       19.972146    1.544723   -1.814316
    135          1           0       20.808165    1.679494    2.290733
    136          1           0       22.117854    2.198663    1.032874
    137          1           0       20.695882    3.144822    1.295276
 ---------------------------------------------------------------------

 SCF Done:  E(RCAM-B3LYP) =  -2932.72800436     A.U. after   17 cycles

 Excitation energies and oscillator strengths:

 Excited State   1:      Singlet-A      2.2537 eV  550.14 nm  f=0.2309  <S**2>=0.000
     240 -> 242       -0.33160
     240 -> 243        0.17406
     241 -> 242        0.56137
     241 -> 243        0.18314
 This state for optimization and/or second-order correction.
 Total Energy, E(TD-HF/TD-KS) =  -2932.64518282
 Copying the excited state density for this state as the 1-particle RhoCI density.

 The electronic state is 1-A.
 Alpha  occ. eigenvalues --  -46.84462 -19.27203 -19.24977 -19.21570 -19.20754
 Alpha  occ. eigenvalues --  -19.19824 -14.40969 -14.40278 -14.39413 -14.38442
 Alpha  occ. eigenvalues --  -10.39917 -10.39483 -10.34640 -10.32126 -10.31747
 Alpha  occ. eigenvalues --  -10.30894 -10.30617 -10.30355 -10.29737 -10.29205
 Alpha  occ. eigenvalues --  -10.29169 -10.28962 -10.28449 -10.28391 -10.28344
 Alpha  occ. eigenvalues --  -10.28225 -10.27873 -10.27732 -10.27659 -10.27643
 Alpha  occ. eigenvalues --  -10.27430 -10.27367 -10.27245 -10.27166 -10.27148
 Alpha  occ. eigenvalues --  -10.27143 -10.27113 -10.27097 -10.27059 -10.27056
 Alpha  occ. eigenvalues --  -10.27018 -10.26794 -10.26609 -10.26562 -10.26493
 Alpha  occ. eigenvalues --  -10.26482 -10.26272 -10.26200 -10.26139 -10.26043
 Alpha  occ. eigenvalues --  -10.26016 -10.25893 -10.25752 -10.25746 -10.25669
 Alpha  occ. eigenvalues --  -10.25503 -10.25186 -10.25068 -10.25067 -10.24635
 Alpha  occ. eigenvalues --  -10.24341 -10.24285 -10.23825 -10.23748 -10.23704
 Alpha  occ. eigenvalues --   -3.13506  -1.88218  -1.87743  -1.87686  -1.17871
 Alpha  occ. eigenvalues --   -1.14037  -1.10581  -1.06703  -1.06461  -1.05687
 Alpha  occ. eigenvalues --   -1.04685  -1.04058  -1.02853  -0.92994  -0.91204
 Alpha  occ. eigenvalues --   -0.90724  -0.90276  -0.89969  -0.89534  -0.89255
 Alpha  occ. eigenvalues --   -0.88479  -0.88117  -0.87489  -0.86799  -0.86331
 Alpha  occ. eigenvalues --   -0.85050  -0.84413  -0.84023  -0.83594  -0.82601
 Alpha  occ. eigenvalues --   -0.81652  -0.81121  -0.80229  -0.79874  -0.78425
 Alpha  occ. eigenvalues --   -0.78349  -0.77569  -0.76001  -0.75552  -0.75204
 Alpha  occ. eigenvalues --   -0.75094  -0.74894  -0.73901  -0.72845  -0.72012
 Alpha  occ. eigenvalues --   -0.71360  -0.70296  -0.70016  -0.68909  -0.68513
 Alpha  occ. eigenvalues --   -0.67021  -0.65644  -0.65309  -0.64878  -0.64387
 Alpha  occ. eigenvalues --   -0.63728  -0.63664  -0.62047  -0.61568  -0.61316
 Alpha  occ. eigenvalues --   -0.60855  -0.60670  -0.60192  -0.59644  -0.59200
 Alpha  occ. eigenvalues --   -0.58557  -0.58087  -0.57580  -0.56085  -0.55675
 Alpha  occ. eigenvalues --   -0.55573  -0.55482  -0.55385  -0.55158  -0.54793
 Alpha  occ. eigenvalues --   -0.54184  -0.53705  -0.53640  -0.53470  -0.52753
 Alpha  occ. eigenvalues --   -0.52704  -0.52580  -0.52473  -0.52171  -0.51890
 Alpha  occ. eigenvalues --   -0.51525  -0.51155  -0.50769  -0.50667  -0.50425
 Alpha  occ. eigenvalues --   -0.50255  -0.50095  -0.49876  -0.49811  -0.49402
 Alpha  occ. eigenvalues --   -0.49284  -0.48993  -0.48909  -0.48686  -0.48386
 Alpha  occ. eigenvalues --   -0.48188  -0.47903  -0.47798  -0.47546  -0.47290
 Alpha  occ. eigenvalues --   -0.47158  -0.47025  -0.46677  -0.46043  -0.45892
 Alpha  occ. eigenvalues --   -0.45776  -0.45555  -0.45430  -0.45330  -0.44982
 Alpha  occ. eigenvalues --   -0.44823  -0.44658  -0.44537  -0.44318  -0.43918
 Alpha  occ. eigenvalues --   -0.43559  -0.43299  -0.43244  -0.43082  -0.42629
 Alpha  occ. eigenvalues --   -0.42495  -0.42185  -0.42064  -0.42024  -0.41761
 Alpha  occ. eigenvalues --   -0.41668  -0.41586  -0.41117  -0.40851  -0.40822
 Alpha  occ. eigenvalues --   -0.40550  -0.40484  -0.40073  -0.39946  -0.39899
 Alpha  occ. eigenvalues --   -0.39781  -0.39602  -0.39390  -0.39360  -0.39271
 Alpha  occ. eigenvalues --   -0.39136  -0.39002  -0.38862  -0.38287  -0.38105
 Alpha  occ. eigenvalues --   -0.37636  -0.37433  -0.37240  -0.37012  -0.36729
 Alpha  occ. eigenvalues --   -0.36320  -0.36307  -0.35945  -0.35871  -0.35374
 Alpha  occ. eigenvalues --   -0.35194  -0.34918  -0.34704  -0.33785  -0.33511
 Alpha  occ. eigenvalues --   -0.32884  -0.32727  -0.32032  -0.31511  -0.30399
 Alpha  occ. eigenvalues --   -0.30120  -0.29637  -0.28717  -0.28153  -0.22968
 Alpha  occ. eigenvalues --   -0.21870
 Alpha virt. eigenvalues --   -0.06514  -0.02344   0.01695   0.03741   0.04841
 Alpha virt. eigenvalues --    0.05491   0.05897   0.06410   0.06737   0.07132
 Alpha virt. eigenvalues --    0.08513   0.10510   0.11246   0.11668   0.11936

 Mulliken charges:
               1
     1  Mg   0.815093
     2  C    0.164117
     3  C   -0.249345
     4  C   -0.212884
     5  C   -0.173328
     6  N   -0.647392
     7  C    0.284856
     8  C   -0.192406
     9  C   -0.145773
    10  C    0.366950
    11  C   -0.297761
    12  C   -0.173656
    13  C   -0.251154
    14  C    0.621194
    15  O   -0.482964
    16  O   -0.530664
    17  N   -0.708701
    18  C    0.325031
    19  C    0.059338
    20  C    0.005478
    21  C    0.323001
    22  C   -0.370881
    23  C   -0.068365
    24  C   -0.238679
    25  N   -0.660632
    26  C    0.317709
    27  C    0.000019
    28  C    0.000546
    29  C    0.288278
    30  C   -0.364313
    31  C   -0.222307
    32  C   -0.295326
    33  N   -0.706202
    34  C    0.249340
    35  C   -0.042401
    36  C   -0.009846
    37  C    0.234691
    38  C   -0.360432
    39  C    0.417050
    40  O   -0.470391
    41  C   -0.321631
    42  C    0.585375
    43  O   -0.491985
    44  O   -0.423097
    45  C   -0.074611
    46  C    0.000382
    47  C   -0.112572
    48  C    0.113392
    49  C   -0.361146
    50  C   -0.215428
    51  C   -0.196177
    52  C   -0.167956
    53  C   -0.061581
    54  C   -0.310314
    55  C   -0.166864
    56  C   -0.180693
    57  C   -0.162718
    58  C   -0.055975
    59  C   -0.311001
    60  C   -0.156441
    61  C   -0.185119
    62  C   -0.143720
    63  C   -0.073621
    64  C   -0.296985
    65  C   -0.302283
    66  H    0.053236
    67  H    0.083597
    68  H    0.095819
    69  H    0.125823
    70  H    0.107474
    71  H    0.114619
    72  H    0.116650
    73  H    0.127129
    74  H    0.116766
    75  H    0.093115
    76  H    0.117679
    77  H    0.153017
    78  H    0.131371
    79  H    0.112873
    80  H    0.113244
    81  H    0.105972
    82  H    0.110995
    83  H    0.086724
    84  H    0.139824
    85  H    0.113085
    86  H    0.128604
    87  H    0.114889
    88  H    0.099906
    89  H    0.122230
    90  H    0.110925
    91  H    0.085975
    92  H    0.118063
    93  H    0.153586
    94  H    0.120689
    95  H    0.163000
    96  H    0.097064
    97  H    0.130114
    98  H    0.113222
    99  H    0.137178
   100  H    0.133733
   101  H    0.083254
   102  H    0.108391
   103  H    0.116738
   104  H    0.134773
   105  H    0.089426
   106  H    0.109628
   107  H    0.105117
   108  H    0.085149
   109  H    0.091260
   110  H    0.094427
   111  H    0.050889
   112  H    0.108683
   113  H    0.088613
   114  H    0.106479
   115  H    0.091553
   116  H    0.088341
   117  H    0.111871
   118  H    0.099749
   119  H    0.087483
   120  H    0.049414
   121  H    0.089722
   122  H    0.075420
   123  H    0.098881
   124  H    0.106561
   125  H    0.096994
   126  H    0.063591
   127  H    0.088078
   128  H    0.089752
   129  H    0.072424
   130  H    0.092654
   131  H    0.083086
   132  H    0.093707
   133  H    0.084496
   134  H    0.110164
   135  H    0.087685
   136  H    0.096310
   137  H    0.096921
 Sum of Mulliken charges =   0.00000

 Dipole moment (field-independent basis, Debye):
    X=              0.2957    Y=              6.1325    Z=             -1.0324  Tot=              6.2258
 Quadrupole moment (field-independent basis, Debye-Ang):
   XX=           -325.6025   YY=           -394.4598   ZZ=           -399.6165
   XY=            -39.3290   XZ=              6.4097   YZ=             -1.0667

 Normal termination of Gaussian 09 at Wed Jul  3 12:47:15 2019.
