 Gaussian 16, Revision A.03,
 Gaussian 16:  ES64L-G16RevA.03 25-Dec-2016

 ----------------------------------------------------------------------
 # td=(NStates=1) iop(3/107=0140000000,3/108=0140000000) CAM-B3LYP/6-31
 G(d,p)
 ----------------------------------------------------------------------

 --
 TD
 --
 Symbolic Z-matrix:
 Charge =  0 Multiplicity = 1

                         Standard orientation:
 ---------------------------------------------------------------------
 Center     Atomic      Atomic             Coordinates (Angstroms)
 Number     Number       Type             X           Y           Z
 ---------------------------------------------------------------------
      1         12           0       -7.098221    0.640583    0.053731
      2          6           0       -4.838410   -1.948883    0.472008
      3          6           0       -4.750620    2.777393    1.166115
      4          6           0       -9.332978    3.165273   -0.386556
      5          6           0       -9.497703   -1.692833   -0.796148
      6          7           0       -4.993622    0.475162    0.638366
      7          6           0       -4.278005   -0.710263    0.830668
      8          6           0       -2.975570   -0.378415    1.255967
      9          6           0       -2.954460    1.072574    1.703291
     10          6           0       -4.377003    1.542438    1.197595
     11          6           0       -3.032181    1.187762    3.235138
     12          6           0       -1.915573   -0.657644    0.125185
     13          6           0       -0.491165   -0.370421    0.678970
     14          6           0        0.534852   -0.826434   -0.485415
     15          8           0        0.201442   -1.228791   -1.598260
     16          8           0        1.685217   -0.616110   -0.212700
     17          7           0       -7.118526    2.640006    0.324777
     18          6           0       -5.954264    3.343670    0.746232
     19          6           0       -6.227128    4.835898    0.707619
     20          6           0       -7.582701    4.868205    0.249971
     21          6           0       -8.084196    3.563720    0.148086
     22          6           0       -5.332208    5.860028    1.090775
     23          6           0       -8.382511    6.101210    0.071780
     24          6           0       -8.256579    7.239182    0.808556
     25          7           0       -9.047487    0.774486   -0.503566
     26          6           0       -9.770529    1.913307   -0.727684
     27          6           0      -11.211193    1.584216   -1.159762
     28          6           0      -11.269207    0.164250   -1.173134
     29          6           0       -9.943959   -0.250064   -0.784866
     30          6           0      -12.242684    2.650935   -1.320417
     31          6           0      -12.413527   -0.695289   -1.798319
     32          6           0      -12.266549   -1.247061   -3.235891
     33          7           0       -7.244738   -1.291496   -0.131747
     34          6           0       -8.331870   -2.215831   -0.528100
     35          6           0       -7.777915   -3.602725   -0.573598
     36          6           0       -6.482210   -3.502463   -0.158554
     37          6           0       -6.134658   -2.130781   -0.014714
     38          6           0       -8.614532   -4.800272   -0.886230
     39          6           0       -5.373354   -4.331335    0.109740
     40          8           0       -5.217368   -5.584410    0.002160
     41          6           0       -4.199459   -3.367656    0.573552
     42          6           0       -3.593541   -3.693327    1.925462
     43          8           0       -3.875814   -3.113282    2.981317
     44          8           0       -2.797270   -4.760944    1.736558
     45          6           0       -2.431099   -5.466492    3.067251
     46          6           0        2.713361   -0.711687   -1.228377
     47          6           0        4.054936   -0.629368   -0.653133
     48          6           0        5.099938    0.231932   -0.917672
     49          6           0        4.836555    1.329471   -2.066877
     50          6           0        6.333374    0.275346   -0.205120
     51          6           0        7.514394   -0.185866   -0.976061
     52          6           0        8.892516   -0.062800   -0.173006
     53          6           0       10.118978   -0.549962   -0.991356
     54          6           0       10.058082   -1.976727   -1.485437
     55          6           0       11.461685   -0.335988   -0.099110
     56          6           0       12.763665   -0.484904   -0.795218
     57          6           0       14.063401   -0.133378    0.196397
     58          6           0       15.374720   -0.347943   -0.461913
     59          6           0       15.689140   -1.826549   -0.837837
     60          6           0       16.502653    0.311970    0.449326
     61          6           0       17.829626    0.433359   -0.251695
     62          6           0       18.715244    1.296783    0.760741
     63          6           0       20.266466    1.527672    0.222579
     64          6           0       20.228997    2.597188   -0.895664
     65          6           0       21.154379    1.941602    1.289224
     66          1           0       -3.937431    3.374073    1.587781
     67          1           0       -9.940523    3.918459   -0.382643
     68          1           0      -10.389072   -2.539989   -0.895109
     69          1           0       -2.553102   -1.039399    2.229293
     70          1           0       -2.128661    1.706335    1.200529
     71          1           0       -2.011187    0.718553    3.646265
     72          1           0       -3.036531    2.222700    3.316732
     73          1           0       -3.927460    0.668886    3.762665
     74          1           0       -2.070800   -1.648522   -0.325335
     75          1           0       -2.145089    0.011083   -0.728253
     76          1           0       -0.394214    0.525524    0.910649
     77          1           0       -0.442859   -1.023568    1.623446
     78          1           0       -5.323965    6.824229    0.539200
     79          1           0       -5.308269    6.087661    2.158343
     80          1           0       -4.288998    5.518146    0.855160
     81          1           0       -9.265285    6.159287   -0.703754
     82          1           0       -8.963034    8.216645    0.506630
     83          1           0       -7.661949    7.400165    1.608284
     84          1           0      -11.769382    3.400217   -1.942351
     85          1           0      -13.124129    2.133361   -1.882281
     86          1           0      -12.572943    3.061030   -0.379331
     87          1           0      -12.415762   -1.487043   -1.085112
     88          1           0      -13.292794   -0.189608   -1.492715
     89          1           0      -13.102792   -1.782112   -3.562512
     90          1           0      -11.911271   -0.383259   -3.850428
     91          1           0      -11.280530   -1.781525   -3.276624
     92          1           0       -9.120762   -4.598179   -1.930532
     93          1           0       -8.004239   -5.681200   -0.724143
     94          1           0       -9.442380   -4.779587   -0.204456
     95          1           0       -3.602366   -3.621718   -0.268630
     96          1           0       -1.689491   -4.800036    3.603113
     97          1           0       -3.344445   -5.893650    3.621931
     98          1           0       -1.787524   -6.453589    2.767415
     99          1           0        2.787402   -1.731282   -1.680606
    100          1           0        2.329401   -0.150865   -2.130389
    101          1           0        4.091838   -1.157081    0.298648
    102          1           0        3.684250    1.524508   -2.134787
    103          1           0        5.249336    2.377252   -1.427543
    104          1           0        5.316416    1.075003   -3.110416
    105          1           0        6.410505    1.231158    0.138285
    106          1           0        6.275913   -0.318840    0.780294
    107          1           0        7.565569   -1.247159   -1.336321
    108          1           0        7.773794    0.366050   -1.934406
    109          1           0        9.035324    1.000035   -0.017828
    110          1           0        8.857956   -0.874295    0.748272
    111          1           0       10.269705   -0.079824   -1.905889
    112          1           0        9.272754   -2.086458   -2.095211
    113          1           0       10.984317   -2.267621   -1.817649
    114          1           0        9.971876   -2.878107   -0.586353
    115          1           0       11.232748    0.782416    0.230857
    116          1           0       11.423043   -0.855628    1.053645
    117          1           0       12.986680   -1.585849   -1.081357
    118          1           0       12.759096    0.133960   -1.635831
    119          1           0       13.985005    0.938690    0.659121
    120          1           0       14.025426   -0.750302    0.955189
    121          1           0       15.643458    0.235884   -1.432213
    122          1           0       15.462331   -2.423662    0.103003
    123          1           0       15.174490   -2.340083   -1.655280
    124          1           0       16.772075   -1.838300   -1.172269
    125          1           0       16.190913    1.131180    0.935658
    126          1           0       16.658812   -0.525482    1.241442
    127          1           0       18.309807   -0.643722   -0.801924
    128          1           0       17.647340    0.954434   -1.213757
    129          1           0       18.320150    2.274287    0.712585
    130          1           0       18.750704    0.570630    1.725479
    131          1           0       20.820616    0.484221   -0.323280
    132          1           0       19.777189    3.675113   -0.440299
    133          1           0       21.329837    2.803780   -1.278935
    134          1           0       19.654553    2.303968   -1.781560
    135          1           0       21.057724    1.268621    2.077219
    136          1           0       22.088269    1.841168    0.925716
    137          1           0       21.017683    3.000885    1.807079
 ---------------------------------------------------------------------

 SCF Done:  E(RCAM-B3LYP) =  -2933.41655329     A.U. after   15 cycles

 Excitation energies and oscillator strengths:

 Excited State   1:      Singlet-A      2.0107 eV  616.62 nm  f=0.2358  <S**2>=0.000
     240 -> 243       -0.22245
     241 -> 242        0.66113
 This state for optimization and/or second-order correction.
 Total Energy, E(TD-HF/TD-DFT) =  -2933.34266059
 Copying the excited state density for this state as the 1-particle RhoCI density.

 The electronic state is 1-A.
 Alpha  occ. eigenvalues --  -46.78629 -19.23664 -19.22798 -19.16513 -19.16114
 Alpha  occ. eigenvalues --  -19.14254 -14.36439 -14.35184 -14.35100 -14.34675
 Alpha  occ. eigenvalues --  -10.34689 -10.33624 -10.30526 -10.29732 -10.28691
 Alpha  occ. eigenvalues --  -10.26065 -10.25629 -10.25463 -10.25195 -10.25100
 Alpha  occ. eigenvalues --  -10.24972 -10.24904 -10.24153 -10.23926 -10.23915
 Alpha  occ. eigenvalues --  -10.23834 -10.23594 -10.23576 -10.23370 -10.23269
 Alpha  occ. eigenvalues --  -10.23264 -10.22985 -10.22769 -10.22733 -10.22676
 Alpha  occ. eigenvalues --  -10.22637 -10.22614 -10.22597 -10.22472 -10.22432
 Alpha  occ. eigenvalues --  -10.22314 -10.22312 -10.22260 -10.22223 -10.22157
 Alpha  occ. eigenvalues --  -10.22031 -10.21967 -10.21958 -10.21878 -10.21827
 Alpha  occ. eigenvalues --  -10.21773 -10.21759 -10.21715 -10.21690 -10.21671
 Alpha  occ. eigenvalues --  -10.21384 -10.21272 -10.21225 -10.21051 -10.20897
 Alpha  occ. eigenvalues --  -10.20796 -10.20403 -10.20185 -10.19834 -10.18894
 Alpha  occ. eigenvalues --   -3.07408  -1.82330  -1.81868  -1.81850  -1.18948
 Alpha  occ. eigenvalues --   -1.11267  -1.03399  -1.02930  -1.02480  -0.98332
 Alpha  occ. eigenvalues --   -0.97179  -0.96447  -0.95649  -0.87119  -0.86909
 Alpha  occ. eigenvalues --   -0.85013  -0.84612  -0.84125  -0.83738  -0.83013
 Alpha  occ. eigenvalues --   -0.82921  -0.82649  -0.82518  -0.82186  -0.81820
 Alpha  occ. eigenvalues --   -0.79805  -0.79186  -0.78774  -0.78580  -0.77609
 Alpha  occ. eigenvalues --   -0.76731  -0.75972  -0.75566  -0.75177  -0.73674
 Alpha  occ. eigenvalues --   -0.73140  -0.72260  -0.71289  -0.70986  -0.70938
 Alpha  occ. eigenvalues --   -0.70481  -0.69786  -0.69099  -0.68680  -0.67862
 Alpha  occ. eigenvalues --   -0.66578  -0.66154  -0.66000  -0.64829  -0.63916
 Alpha  occ. eigenvalues --   -0.61725  -0.61526  -0.61197  -0.60616  -0.59865
 Alpha  occ. eigenvalues --   -0.59334  -0.59154  -0.58785  -0.58136  -0.57627
 Alpha  occ. eigenvalues --   -0.57402  -0.56252  -0.55991  -0.55700  -0.54783
 Alpha  occ. eigenvalues --   -0.54334  -0.53604  -0.53307  -0.53116  -0.52729
 Alpha  occ. eigenvalues --   -0.52106  -0.51182  -0.50995  -0.50720  -0.50371
 Alpha  occ. eigenvalues --   -0.50321  -0.50117  -0.49688  -0.49596  -0.49361
 Alpha  occ. eigenvalues --   -0.48925  -0.48766  -0.48215  -0.48185  -0.47990
 Alpha  occ. eigenvalues --   -0.47564  -0.47446  -0.46885  -0.46827  -0.46576
 Alpha  occ. eigenvalues --   -0.46469  -0.46347  -0.46013  -0.45872  -0.45809
 Alpha  occ. eigenvalues --   -0.45535  -0.45372  -0.45306  -0.45005  -0.44659
 Alpha  occ. eigenvalues --   -0.44064  -0.43817  -0.43493  -0.43342  -0.43191
 Alpha  occ. eigenvalues --   -0.43152  -0.42877  -0.42670  -0.42648  -0.42365
 Alpha  occ. eigenvalues --   -0.42152  -0.42104  -0.41847  -0.41718  -0.41436
 Alpha  occ. eigenvalues --   -0.41354  -0.41054  -0.40987  -0.40684  -0.40508
 Alpha  occ. eigenvalues --   -0.40444  -0.40154  -0.40038  -0.39754  -0.39663
 Alpha  occ. eigenvalues --   -0.39479  -0.39319  -0.39265  -0.39001  -0.38834
 Alpha  occ. eigenvalues --   -0.38460  -0.38262  -0.38077  -0.37868  -0.37759
 Alpha  occ. eigenvalues --   -0.37574  -0.37460  -0.37279  -0.37012  -0.36861
 Alpha  occ. eigenvalues --   -0.36296  -0.36122  -0.35990  -0.35888  -0.35853
 Alpha  occ. eigenvalues --   -0.35452  -0.35375  -0.34970  -0.34681  -0.34302
 Alpha  occ. eigenvalues --   -0.34239  -0.33880  -0.33606  -0.33581  -0.33416
 Alpha  occ. eigenvalues --   -0.33373  -0.33057  -0.32829  -0.32576  -0.32114
 Alpha  occ. eigenvalues --   -0.31958  -0.31905  -0.31308  -0.30036  -0.29955
 Alpha  occ. eigenvalues --   -0.29347  -0.28989  -0.28816  -0.28382  -0.27185
 Alpha  occ. eigenvalues --   -0.26850  -0.26685  -0.25300  -0.24050  -0.21671
 Alpha  occ. eigenvalues --   -0.19384
 Alpha virt. eigenvalues --   -0.06684  -0.04116  -0.00770   0.02868   0.03171
 Alpha virt. eigenvalues --    0.03548   0.05163   0.05425   0.05932   0.06485
 Alpha virt. eigenvalues --    0.06739   0.08951   0.09208   0.09387   0.09410

 Mulliken charges:
               1
     1  Mg   0.801729
     2  C    0.033255
     3  C   -0.165964
     4  C   -0.144994
     5  C   -0.233745
     6  N   -0.652252
     7  C    0.350841
     8  C   -0.170002
     9  C   -0.159921
    10  C    0.343428
    11  C   -0.285562
    12  C   -0.175151
    13  C   -0.250763
    14  C    0.558295
    15  O   -0.510977
    16  O   -0.361087
    17  N   -0.694269
    18  C    0.275382
    19  C    0.074325
    20  C   -0.001950
    21  C    0.304157
    22  C   -0.416311
    23  C   -0.100766
    24  C   -0.223497
    25  N   -0.657755
    26  C    0.306361
    27  C    0.014518
    28  C   -0.013779
    29  C    0.268695
    30  C   -0.373229
    31  C   -0.219625
    32  C   -0.309339
    33  N   -0.730786
    34  C    0.309192
    35  C    0.038808
    36  C    0.084814
    37  C    0.294622
    38  C   -0.379891
    39  C    0.305084
    40  O   -0.491389
    41  C   -0.291462
    42  C    0.645363
    43  O   -0.491139
    44  O   -0.447106
    45  C   -0.099233
    46  C   -0.005458
    47  C   -0.150630
    48  C    0.119823
    49  C   -0.338084
    50  C   -0.208667
    51  C   -0.189527
    52  C   -0.160593
    53  C   -0.071155
    54  C   -0.290010
    55  C   -0.152508
    56  C   -0.181742
    57  C   -0.169312
    58  C   -0.055982
    59  C   -0.311593
    60  C   -0.158448
    61  C   -0.177157
    62  C   -0.169601
    63  C   -0.043085
    64  C   -0.291219
    65  C   -0.279633
    66  H    0.069025
    67  H    0.054513
    68  H    0.071805
    69  H    0.093452
    70  H    0.098504
    71  H    0.081796
    72  H    0.111296
    73  H    0.130993
    74  H    0.124086
    75  H    0.111732
    76  H    0.125799
    77  H    0.114619
    78  H    0.125958
    79  H    0.128609
    80  H    0.107291
    81  H    0.084320
    82  H    0.071142
    83  H    0.103928
    84  H    0.128145
    85  H    0.103576
    86  H    0.137286
    87  H    0.106932
    88  H    0.103768
    89  H    0.121288
    90  H    0.113249
    91  H    0.109685
    92  H    0.122878
    93  H    0.153881
    94  H    0.139832
    95  H    0.169375
    96  H    0.143198
    97  H    0.150865
    98  H    0.115901
    99  H    0.142114
   100  H    0.132963
   101  H    0.092986
   102  H    0.113221
   103  H    0.073173
   104  H    0.122883
   105  H    0.114180
   106  H    0.094996
   107  H    0.104102
   108  H    0.087723
   109  H    0.097207
   110  H    0.079442
   111  H    0.093372
   112  H    0.108860
   113  H    0.112743
   114  H    0.044954
   115  H    0.065627
   116  H    0.055014
   117  H    0.090493
   118  H    0.106633
   119  H    0.073358
   120  H    0.107847
   121  H    0.062711
   122  H    0.090481
   123  H    0.108490
   124  H    0.093937
   125  H    0.103053
   126  H    0.074986
   127  H    0.059295
   128  H    0.090871
   129  H    0.112987
   130  H    0.088154
   131  H    0.042531
   132  H    0.067512
   133  H    0.085370
   134  H    0.109648
   135  H    0.104437
   136  H    0.111323
   137  H    0.079252
 Sum of Mulliken charges =  -0.00000

 Dipole moment (field-independent basis, Debye):
    X=              3.2091    Y=              2.7426    Z=              0.6882  Tot=              4.2771
 Quadrupole moment (field-independent basis, Debye-Ang):
   XX=           -342.8608   YY=           -394.8639   ZZ=           -395.7173
   XY=             -2.4432   XZ=              6.5367   YZ=             -5.2595

 Normal termination of Gaussian 16 at Tue Sep 10 12:46:09 2019.
