 Gaussian 16, Revision A.03,
 Gaussian 16:  ES64L-G16RevA.03 25-Dec-2016

 ----------------------------------------------------------------------
 # td=(NStates=1) iop(3/107=0140000000,3/108=0140000000) CAM-B3LYP/6-31
 G(d,p)
 ----------------------------------------------------------------------

 --
 TD
 --
 Symbolic Z-matrix:
 Charge =  0 Multiplicity = 1

                         Standard orientation:
 ---------------------------------------------------------------------
 Center     Atomic      Atomic             Coordinates (Angstroms)
 Number     Number       Type             X           Y           Z
 ---------------------------------------------------------------------
      1         12           0       -7.133855    0.616740    0.169728
      2          6           0       -4.880134   -1.950853    0.510284
      3          6           0       -4.728505    2.825758    1.050957
      4          6           0       -9.386059    3.161522   -0.377952
      5          6           0       -9.575107   -1.675421   -0.736643
      6          7           0       -5.121350    0.351063    0.690018
      7          6           0       -4.369835   -0.762286    0.737120
      8          6           0       -2.901453   -0.382564    1.166767
      9          6           0       -3.019210    1.036234    1.584002
     10          6           0       -4.340164    1.489134    1.031076
     11          6           0       -2.897519    1.214326    3.100986
     12          6           0       -1.844760   -0.520161   -0.039418
     13          6           0       -0.438272   -0.428888    0.402645
     14          6           0        0.548246   -0.791645   -0.591121
     15          8           0        0.364559   -1.209966   -1.718362
     16          8           0        1.798001   -0.375607   -0.226435
     17          7           0       -7.018975    2.576580    0.332825
     18          6           0       -5.989106    3.405177    0.698853
     19          6           0       -6.337003    4.755853    0.790364
     20          6           0       -7.636621    4.755031    0.339020
     21          6           0       -8.091500    3.461809    0.050215
     22          6           0       -5.448003    5.755452    1.297588
     23          6           0       -8.441359    6.028297    0.021693
     24          6           0       -8.320254    7.162306    0.613112
     25          7           0       -9.125147    0.678230   -0.486725
     26          6           0       -9.903602    1.838970   -0.543226
     27          6           0      -11.226579    1.469926   -0.946863
     28          6           0      -11.260440    0.145790   -1.139017
     29          6           0       -9.935443   -0.331872   -0.786067
     30          6           0      -12.285746    2.634952   -1.379842
     31          6           0      -12.441681   -0.722998   -1.546189
     32          6           0      -12.330646   -1.142562   -3.088404
     33          7           0       -7.235481   -1.340470   -0.142624
     34          6           0       -8.239487   -2.208448   -0.514733
     35          6           0       -7.778848   -3.531464   -0.542553
     36          6           0       -6.464847   -3.521270   -0.275940
     37          6           0       -6.207241   -2.154220    0.083168
     38          6           0       -8.722014   -4.785185   -0.842897
     39          6           0       -5.282101   -4.202865    0.227341
     40          8           0       -5.360983   -5.488252    0.240909
     41          6           0       -4.141295   -3.261807    0.532115
     42          6           0       -3.602571   -3.620166    1.843983
     43          8           0       -3.776563   -3.186011    2.902524
     44          8           0       -2.673465   -4.631884    1.658374
     45          6           0       -2.121928   -5.171213    2.859695
     46          6           0        2.839407   -0.752798   -1.219681
     47          6           0        4.173076   -0.614582   -0.588673
     48          6           0        5.051916    0.247040   -1.101484
     49          6           0        5.010989    1.085436   -2.375131
     50          6           0        6.423046    0.263658   -0.291466
     51          6           0        7.639200   -0.161581   -1.002738
     52          6           0        8.969261   -0.186308   -0.048218
     53          6           0       10.184774   -0.459102   -0.816480
     54          6           0       10.144188   -2.015610   -1.263558
     55          6           0       11.331404   -0.365420    0.104086
     56          6           0       12.778106   -0.706218   -0.577666
     57          6           0       13.969339   -0.120601    0.217036
     58          6           0       15.402271   -0.310987   -0.402586
     59          6           0       15.684284   -1.743807   -0.696857
     60          6           0       16.347272    0.351385    0.618352
     61          6           0       17.754024    0.535855   -0.126285
     62          6           0       18.642038    1.461123    0.769654
     63          6           0       20.086472    1.464910    0.237680
     64          6           0       20.181078    2.086190   -1.131504
     65          6           0       21.075560    2.232617    1.101574
     66          1           0       -3.910218    3.486846    1.372630
     67          1           0      -10.051301    4.067885   -0.317519
     68          1           0      -10.610368   -2.421527   -0.794888
     69          1           0       -2.565487   -1.055871    1.989039
     70          1           0       -2.120789    1.549408    1.048176
     71          1           0       -1.768335    0.846632    3.330743
     72          1           0       -2.835973    2.222939    3.547489
     73          1           0       -3.507046    0.480400    3.616395
     74          1           0       -2.044036   -1.484179   -0.412728
     75          1           0       -2.165988    0.071113   -0.854997
     76          1           0       -0.244162    0.724060    0.817910
     77          1           0       -0.209354   -1.324742    1.211189
     78          1           0       -5.626226    6.613582    0.736074
     79          1           0       -5.660470    6.109304    2.435457
     80          1           0       -4.558517    5.454274    1.169590
     81          1           0       -9.116235    6.080956   -0.867246
     82          1           0       -9.032374    7.996291    0.465776
     83          1           0       -7.576675    7.510806    1.385416
     84          1           0      -12.006337    3.405264   -2.130120
     85          1           0      -13.130472    2.306233   -1.871862
     86          1           0      -12.654989    3.187529   -0.569637
     87          1           0      -12.322950   -1.559961   -0.966482
     88          1           0      -13.469550   -0.373818   -1.440086
     89          1           0      -13.308463   -1.651348   -3.291841
     90          1           0      -12.175279   -0.207720   -3.701973
     91          1           0      -11.486904   -2.024932   -3.227382
     92          1           0       -8.970045   -4.872147   -1.983809
     93          1           0       -8.049483   -5.893170   -0.471151
     94          1           0       -9.720233   -4.748367   -0.432469
     95          1           0       -3.609229   -3.450803   -0.309783
     96          1           0       -1.733782   -4.282087    3.466036
     97          1           0       -2.881431   -5.630474    3.515192
     98          1           0       -1.472484   -5.953308    2.466164
     99          1           0        2.755093   -1.695222   -1.723136
    100          1           0        2.512253   -0.143446   -1.973239
    101          1           0        4.496458   -1.152164    0.213075
    102          1           0        4.003567    1.169015   -2.827489
    103          1           0        5.321000    2.149199   -2.119047
    104          1           0        5.759963    0.717541   -3.115510
    105          1           0        6.636281    1.402152    0.052502
    106          1           0        6.172583   -0.093387    0.726302
    107          1           0        7.514926   -1.235613   -1.343338
    108          1           0        7.801879    0.604478   -2.002413
    109          1           0        9.039552    0.786779    0.371194
    110          1           0        8.915998   -1.019349    0.806848
    111          1           0       10.390714    0.424024   -1.543976
    112          1           0        9.175672   -2.069664   -1.960625
    113          1           0       11.055209   -2.317012   -1.769078
    114          1           0        9.768803   -2.612272   -0.203433
    115          1           0       11.411954    0.694465    0.261082
    116          1           0       11.097070   -0.912778    1.169370
    117          1           0       12.936177   -1.643166   -0.845409
    118          1           0       12.746211   -0.145999   -1.531522
    119          1           0       13.847641    0.889690    0.351468
    120          1           0       13.924502   -0.734861    1.194322
    121          1           0       15.621928    0.322370   -1.324910
    122          1           0       15.722349   -2.303049    0.152304
    123          1           0       14.939897   -2.202477   -1.363821
    124          1           0       16.684335   -1.760849   -1.185151
    125          1           0       16.000903    1.337558    0.961988
    126          1           0       16.439952   -0.231873    1.501132
    127          1           0       18.399707   -0.454440   -0.497172
    128          1           0       17.391528    1.085804   -1.105589
    129          1           0       18.343103    2.481650    0.640088
    130          1           0       18.719815    1.122409    1.778008
    131          1           0       20.457087    0.547455    0.152679
    132          1           0       19.916147    3.144745   -1.300311
    133          1           0       21.179475    2.349909   -1.349852
    134          1           0       19.829637    1.450545   -1.972448
    135          1           0       21.027643    1.884028    2.186303
    136          1           0       22.224898    1.988576    0.839215
    137          1           0       20.834089    3.276106    1.145966
 ---------------------------------------------------------------------

 SCF Done:  E(RCAM-B3LYP) =  -2933.50361406     A.U. after   15 cycles

 Excitation energies and oscillator strengths:

 Excited State   1:      Singlet-A      2.0685 eV  599.38 nm  f=0.2577  <S**2>=0.000
     240 -> 243        0.23812
     241 -> 242        0.65895
 This state for optimization and/or second-order correction.
 Total Energy, E(TD-HF/TD-DFT) =  -2933.42759703
 Copying the excited state density for this state as the 1-particle RhoCI density.

 The electronic state is 1-A.
 Alpha  occ. eigenvalues --  -46.79010 -19.20719 -19.20325 -19.17682 -19.16140
 Alpha  occ. eigenvalues --  -19.15192 -14.37139 -14.35303 -14.35232 -14.35029
 Alpha  occ. eigenvalues --  -10.34329 -10.33753 -10.30509 -10.26392 -10.26309
 Alpha  occ. eigenvalues --  -10.25608 -10.25566 -10.25322 -10.25268 -10.25141
 Alpha  occ. eigenvalues --  -10.25098 -10.24964 -10.24698 -10.24523 -10.24095
 Alpha  occ. eigenvalues --  -10.24087 -10.23946 -10.23800 -10.23675 -10.23430
 Alpha  occ. eigenvalues --  -10.23429 -10.23315 -10.23092 -10.23013 -10.23004
 Alpha  occ. eigenvalues --  -10.22923 -10.22881 -10.22691 -10.22514 -10.22494
 Alpha  occ. eigenvalues --  -10.22335 -10.22310 -10.22006 -10.21951 -10.21834
 Alpha  occ. eigenvalues --  -10.21766 -10.21706 -10.21699 -10.21692 -10.21658
 Alpha  occ. eigenvalues --  -10.21654 -10.21267 -10.21238 -10.21233 -10.20771
 Alpha  occ. eigenvalues --  -10.20673 -10.20524 -10.20449 -10.20448 -10.20158
 Alpha  occ. eigenvalues --  -10.20014 -10.19840 -10.19806 -10.19111 -10.18908
 Alpha  occ. eigenvalues --   -3.07828  -1.82755  -1.82304  -1.82251  -1.14440
 Alpha  occ. eigenvalues --   -1.11926  -1.05301  -1.02857  -1.02372  -1.00119
 Alpha  occ. eigenvalues --   -0.98774  -0.98360  -0.97554  -0.89384  -0.86001
 Alpha  occ. eigenvalues --   -0.85699  -0.85033  -0.84665  -0.84570  -0.84174
 Alpha  occ. eigenvalues --   -0.83586  -0.82947  -0.82842  -0.81677  -0.81617
 Alpha  occ. eigenvalues --   -0.80248  -0.79416  -0.79207  -0.77805  -0.77466
 Alpha  occ. eigenvalues --   -0.76252  -0.76034  -0.75601  -0.74748  -0.73984
 Alpha  occ. eigenvalues --   -0.73161  -0.72976  -0.72131  -0.71147  -0.70789
 Alpha  occ. eigenvalues --   -0.70346  -0.70205  -0.69141  -0.68784  -0.68257
 Alpha  occ. eigenvalues --   -0.67359  -0.66439  -0.64896  -0.64445  -0.64035
 Alpha  occ. eigenvalues --   -0.62151  -0.61162  -0.61050  -0.60265  -0.60105
 Alpha  occ. eigenvalues --   -0.59702  -0.59673  -0.58513  -0.58317  -0.58312
 Alpha  occ. eigenvalues --   -0.57135  -0.56800  -0.56694  -0.56481  -0.55915
 Alpha  occ. eigenvalues --   -0.55505  -0.54884  -0.54231  -0.53798  -0.52253
 Alpha  occ. eigenvalues --   -0.52056  -0.51670  -0.51523  -0.51143  -0.50697
 Alpha  occ. eigenvalues --   -0.50530  -0.50192  -0.49988  -0.49530  -0.49475
 Alpha  occ. eigenvalues --   -0.49196  -0.48810  -0.48353  -0.48193  -0.48166
 Alpha  occ. eigenvalues --   -0.47606  -0.47484  -0.47332  -0.46671  -0.46577
 Alpha  occ. eigenvalues --   -0.46511  -0.46498  -0.46204  -0.45900  -0.45639
 Alpha  occ. eigenvalues --   -0.45476  -0.45028  -0.44903  -0.44805  -0.44542
 Alpha  occ. eigenvalues --   -0.44344  -0.44251  -0.43894  -0.43653  -0.43234
 Alpha  occ. eigenvalues --   -0.43112  -0.43022  -0.42613  -0.42365  -0.42203
 Alpha  occ. eigenvalues --   -0.42136  -0.41811  -0.41564  -0.41543  -0.41381
 Alpha  occ. eigenvalues --   -0.41343  -0.41106  -0.41053  -0.40815  -0.40630
 Alpha  occ. eigenvalues --   -0.40419  -0.40084  -0.39835  -0.39656  -0.39500
 Alpha  occ. eigenvalues --   -0.39307  -0.39032  -0.38943  -0.38933  -0.38729
 Alpha  occ. eigenvalues --   -0.38464  -0.38327  -0.38105  -0.38015  -0.37966
 Alpha  occ. eigenvalues --   -0.37639  -0.37444  -0.37280  -0.37259  -0.37053
 Alpha  occ. eigenvalues --   -0.36899  -0.36851  -0.36492  -0.36411  -0.36382
 Alpha  occ. eigenvalues --   -0.35992  -0.35616  -0.35498  -0.35443  -0.35005
 Alpha  occ. eigenvalues --   -0.34488  -0.34422  -0.34328  -0.33868  -0.33761
 Alpha  occ. eigenvalues --   -0.33549  -0.33310  -0.33111  -0.32336  -0.32154
 Alpha  occ. eigenvalues --   -0.32027  -0.31983  -0.31384  -0.31209  -0.30993
 Alpha  occ. eigenvalues --   -0.30087  -0.29680  -0.29464  -0.29030  -0.27635
 Alpha  occ. eigenvalues --   -0.27224  -0.26620  -0.25851  -0.25480  -0.21810
 Alpha  occ. eigenvalues --   -0.20624
 Alpha virt. eigenvalues --   -0.07567  -0.03813   0.00190   0.02766   0.03545
 Alpha virt. eigenvalues --    0.04266   0.04739   0.04869   0.05066   0.05993
 Alpha virt. eigenvalues --    0.06366   0.08334   0.08390   0.08988   0.09755

 Mulliken charges:
               1
     1  Mg   0.806516
     2  C    0.027199
     3  C   -0.215259
     4  C   -0.163818
     5  C   -0.188590
     6  N   -0.654996
     7  C    0.323628
     8  C   -0.160334
     9  C   -0.124091
    10  C    0.338113
    11  C   -0.304357
    12  C   -0.179790
    13  C   -0.245616
    14  C    0.614406
    15  O   -0.483367
    16  O   -0.492143
    17  N   -0.740910
    18  C    0.312364
    19  C    0.077832
    20  C   -0.045163
    21  C    0.330263
    22  C   -0.349278
    23  C   -0.072836
    24  C   -0.248041
    25  N   -0.679236
    26  C    0.267059
    27  C    0.003545
    28  C    0.035916
    29  C    0.337095
    30  C   -0.383334
    31  C   -0.241281
    32  C   -0.304206
    33  N   -0.719788
    34  C    0.277637
    35  C    0.009334
    36  C    0.043659
    37  C    0.314254
    38  C   -0.363069
    39  C    0.328886
    40  O   -0.499659
    41  C   -0.269598
    42  C    0.638076
    43  O   -0.437173
    44  O   -0.473445
    45  C   -0.083150
    46  C    0.009166
    47  C   -0.113940
    48  C    0.133346
    49  C   -0.370956
    50  C   -0.225255
    51  C   -0.156014
    52  C   -0.152517
    53  C   -0.053695
    54  C   -0.289737
    55  C   -0.148714
    56  C   -0.198509
    57  C   -0.163293
    58  C   -0.062684
    59  C   -0.304384
    60  C   -0.170856
    61  C   -0.182378
    62  C   -0.150762
    63  C   -0.046363
    64  C   -0.320568
    65  C   -0.317823
    66  H    0.075180
    67  H    0.101453
    68  H    0.081800
    69  H    0.108019
    70  H    0.086674
    71  H    0.078744
    72  H    0.115362
    73  H    0.137041
    74  H    0.119552
    75  H    0.125528
    76  H    0.123395
    77  H    0.125166
    78  H    0.126271
    79  H    0.105769
    80  H    0.116136
    81  H    0.100933
    82  H    0.096246
    83  H    0.095595
    84  H    0.114954
    85  H    0.115689
    86  H    0.124980
    87  H    0.112133
    88  H    0.113281
    89  H    0.102024
    90  H    0.117897
    91  H    0.089645
    92  H    0.113063
    93  H    0.112007
    94  H    0.123549
    95  H    0.186672
    96  H    0.114211
    97  H    0.127184
    98  H    0.126957
    99  H    0.132691
   100  H    0.122518
   101  H    0.087329
   102  H    0.115524
   103  H    0.113254
   104  H    0.127914
   105  H    0.063688
   106  H    0.100648
   107  H    0.097370
   108  H    0.065060
   109  H    0.092516
   110  H    0.075194
   111  H    0.079790
   112  H    0.086386
   113  H    0.115153
   114  H    0.074996
   115  H    0.085144
   116  H    0.058244
   117  H    0.102398
   118  H    0.079756
   119  H    0.091051
   120  H    0.076799
   121  H    0.068083
   122  H    0.111025
   123  H    0.100555
   124  H    0.094228
   125  H    0.094591
   126  H    0.096265
   127  H    0.072805
   128  H    0.085435
   129  H    0.097650
   130  H    0.094128
   131  H    0.095285
   132  H    0.089723
   133  H    0.099958
   134  H    0.095400
   135  H    0.080618
   136  H    0.084054
   137  H    0.106342
 Sum of Mulliken charges =  -0.00000

 Dipole moment (field-independent basis, Debye):
    X=              1.0220    Y=              5.6380    Z=              0.4502  Tot=              5.7476
 Quadrupole moment (field-independent basis, Debye-Ang):
   XX=           -335.7608   YY=           -395.8624   ZZ=           -398.3848
   XY=            -29.0212   XZ=              9.4168   YZ=             -2.6574

 Normal termination of Gaussian 16 at Sat Sep  7 14:18:55 2019.
