 Gaussian 16, Revision A.03,
 Gaussian 16:  ES64L-G16RevA.03 25-Dec-2016

 ----------------------------------------------------------------------
 # td=(NStates=1) iop(3/107=0140000000,3/108=0140000000) CAM-B3LYP/6-31
 G(d,p)
 ----------------------------------------------------------------------

 --
 TD
 --
 Symbolic Z-matrix:
 Charge =  0 Multiplicity = 1

                         Standard orientation:
 ---------------------------------------------------------------------
 Center     Atomic      Atomic             Coordinates (Angstroms)
 Number     Number       Type             X           Y           Z
 ---------------------------------------------------------------------
      1         12           0       -7.169372    0.590162   -0.097088
      2          6           0       -4.896830   -1.983947    0.440853
      3          6           0       -4.813667    2.950065    1.212975
      4          6           0       -9.334934    3.058443   -0.441505
      5          6           0       -9.612501   -1.776682   -0.930970
      6          7           0       -5.061312    0.548735    0.664566
      7          6           0       -4.329032   -0.672563    0.688405
      8          6           0       -2.924068   -0.373911    1.265301
      9          6           0       -3.068550    1.070110    1.781236
     10          6           0       -4.362464    1.560519    1.100969
     11          6           0       -3.129855    1.211898    3.276896
     12          6           0       -1.845748   -0.508783    0.137511
     13          6           0       -0.383625   -0.537787    0.571356
     14          6           0        0.583893   -0.747155   -0.531317
     15          8           0        0.242721   -1.088368   -1.686972
     16          8           0        1.755412   -0.591383   -0.082974
     17          7           0       -7.033197    2.647294    0.332631
     18          6           0       -5.914105    3.334295    0.744291
     19          6           0       -6.342613    4.817613    0.747380
     20          6           0       -7.667626    4.893227    0.364149
     21          6           0       -8.051948    3.461033    0.018801
     22          6           0       -5.461501    5.906786    1.323481
     23          6           0       -8.449135    6.115963    0.124006
     24          6           0       -8.213888    7.258111    0.670063
     25          7           0       -9.022464    0.651027   -0.502667
     26          6           0       -9.786716    1.820752   -0.788424
     27          6           0      -11.125376    1.517095   -1.231763
     28          6           0      -11.163102    0.142592   -1.292171
     29          6           0       -9.963248   -0.359880   -0.953368
     30          6           0      -12.206330    2.571361   -1.408002
     31          6           0      -12.299639   -0.687192   -1.677542
     32          6           0      -12.185362   -1.041916   -3.227691
     33          7           0       -7.239922   -1.374841   -0.171231
     34          6           0       -8.354968   -2.206708   -0.507369
     35          6           0       -7.866971   -3.564501   -0.501320
     36          6           0       -6.549372   -3.558946   -0.173884
     37          6           0       -6.208791   -2.204648    0.057727
     38          6           0       -8.704455   -4.818255   -0.926662
     39          6           0       -5.334562   -4.361221    0.163625
     40          8           0       -5.268227   -5.563068    0.211165
     41          6           0       -4.189614   -3.319036    0.647867
     42          6           0       -3.464015   -3.644734    1.924206
     43          8           0       -3.703064   -2.993319    2.949986
     44          8           0       -2.774256   -4.771409    1.798462
     45          6           0       -2.275224   -5.241470    3.014233
     46          6           0        2.819573   -0.832223   -1.091456
     47          6           0        4.201515   -0.607623   -0.518507
     48          6           0        5.090415    0.220640   -0.858448
     49          6           0        5.135694    0.927910   -2.240528
     50          6           0        6.396066    0.298944   -0.050338
     51          6           0        7.565547   -0.181058   -0.882798
     52          6           0        8.870059   -0.129361   -0.173608
     53          6           0       10.207962   -0.572218   -0.838109
     54          6           0       10.204514   -1.967930   -1.269515
     55          6           0       11.425126   -0.216669    0.049845
     56          6           0       12.799982   -0.516060   -0.695907
     57          6           0       13.880039   -0.242245    0.152440
     58          6           0       15.281312   -0.235713   -0.569209
     59          6           0       15.682697   -1.652569   -1.000021
     60          6           0       16.278409    0.408718    0.314827
     61          6           0       17.783560    0.616723   -0.223865
     62          6           0       18.753122    1.197103    0.805366
     63          6           0       20.155077    1.439897    0.224745
     64          6           0       20.225889    2.288615   -1.111646
     65          6           0       21.029441    2.128132    1.228115
     66          1           0       -4.096673    3.661685    1.678144
     67          1           0      -10.143601    3.945801   -0.853520
     68          1           0      -10.512826   -2.648367   -1.138071
     69          1           0       -2.819730   -0.935987    2.136725
     70          1           0       -2.170687    1.598535    1.303691
     71          1           0       -2.134498    0.810990    3.793447
     72          1           0       -3.388933    2.250009    3.673571
     73          1           0       -3.992269    0.576728    3.684334
     74          1           0       -2.061124   -1.427174   -0.233669
     75          1           0       -1.989544    0.285800   -0.674144
     76          1           0       -0.157979    0.385784    1.069486
     77          1           0       -0.184531   -1.398198    1.304626
     78          1           0       -5.602291    6.860225    0.732975
     79          1           0       -5.884587    5.989110    2.406361
     80          1           0       -4.553516    5.426962    1.430056
     81          1           0       -9.222815    6.093499   -0.705446
     82          1           0       -8.821157    8.029163    0.241091
     83          1           0       -7.593702    7.509898    1.448107
     84          1           0      -12.039063    3.079106   -2.490257
     85          1           0      -13.349308    2.099437   -1.440451
     86          1           0      -12.463917    3.038998   -0.401547
     87          1           0      -12.417833   -1.586095   -1.132379
     88          1           0      -12.979694   -0.002411   -1.505394
     89          1           0      -13.069562   -1.522270   -3.650236
     90          1           0      -12.063894    0.028632   -3.831096
     91          1           0      -11.481864   -1.719488   -3.354115
     92          1           0       -9.317745   -4.728387   -1.784199
     93          1           0       -7.759021   -5.688903   -0.952228
     94          1           0       -9.248372   -5.330631    0.047730
     95          1           0       -3.316018   -3.258942    0.013798
     96          1           0       -1.403794   -4.470429    3.441351
     97          1           0       -3.044673   -5.384019    3.794554
     98          1           0       -1.825304   -6.280280    2.801881
     99          1           0        2.698995   -1.866767   -1.473600
    100          1           0        2.447989   -0.258897   -1.972825
    101          1           0        4.389260   -1.226569    0.514428
    102          1           0        4.178924    0.951369   -2.886633
    103          1           0        5.512198    1.992882   -2.309711
    104          1           0        5.807549    0.346037   -2.904139
    105          1           0        6.561009    1.335915    0.115288
    106          1           0        6.392141   -0.316240    0.884018
    107          1           0        7.360887   -1.233945   -1.212248
    108          1           0        7.661540    0.367085   -1.897160
    109          1           0        9.066419    0.934374    0.264248
    110          1           0        8.538346   -0.719689    0.819181
    111          1           0       10.203370   -0.005882   -1.644053
    112          1           0        9.254216   -2.167544   -1.797201
    113          1           0       10.954040   -2.300609   -1.915661
    114          1           0       10.151033   -2.692835   -0.436480
    115          1           0       11.333719    0.876685    0.442031
    116          1           0       11.319313   -0.840391    1.051889
    117          1           0       12.598084   -1.608202   -1.097247
    118          1           0       12.884749    0.132662   -1.644852
    119          1           0       13.773606    0.752914    0.866159
    120          1           0       13.840297   -0.654531    1.062063
    121          1           0       15.365670    0.413848   -1.479874
    122          1           0       15.905066   -2.272744    0.013502
    123          1           0       14.872031   -2.022274   -1.527176
    124          1           0       16.600047   -1.413586   -1.766694
    125          1           0       15.899731    1.414356    0.609504
    126          1           0       16.517164   -0.303940    1.069379
    127          1           0       17.917863   -0.447343   -0.501273
    128          1           0       17.550519    1.278587   -1.094045
    129          1           0       18.553486    2.124540    1.286174
    130          1           0       18.725815    0.465089    1.582045
    131          1           0       20.599893    0.380479    0.048021
    132          1           0       19.744838    3.233786   -1.136220
    133          1           0       21.320920    2.302764   -1.445361
    134          1           0       19.794139    1.798498   -1.979546
    135          1           0       21.065995    1.629360    2.164699
    136          1           0       22.154598    2.278117    0.904089
    137          1           0       20.764739    3.005555    1.346353
 ---------------------------------------------------------------------

 SCF Done:  E(RCAM-B3LYP) =  -2933.46239020     A.U. after   15 cycles

 Excitation energies and oscillator strengths:

 Excited State   1:      Singlet-A      2.1107 eV  587.42 nm  f=0.2138  <S**2>=0.000
     240 -> 243       -0.25864
     241 -> 242        0.65213
 This state for optimization and/or second-order correction.
 Total Energy, E(TD-HF/TD-DFT) =  -2933.38482465
 Copying the excited state density for this state as the 1-particle RhoCI density.

 The electronic state is 1-A.
 Alpha  occ. eigenvalues --  -46.78439 -19.24269 -19.23456 -19.16906 -19.16568
 Alpha  occ. eigenvalues --  -19.15275 -14.38020 -14.34839 -14.34783 -14.33987
 Alpha  occ. eigenvalues --  -10.35264 -10.33686 -10.31268 -10.29042 -10.28510
 Alpha  occ. eigenvalues --  -10.26631 -10.26499 -10.25515 -10.24686 -10.24677
 Alpha  occ. eigenvalues --  -10.24437 -10.24413 -10.24223 -10.23865 -10.23659
 Alpha  occ. eigenvalues --  -10.23636 -10.23603 -10.23602 -10.23449 -10.23383
 Alpha  occ. eigenvalues --  -10.23268 -10.23035 -10.22942 -10.22815 -10.22620
 Alpha  occ. eigenvalues --  -10.22600 -10.22503 -10.22434 -10.22407 -10.22392
 Alpha  occ. eigenvalues --  -10.22218 -10.22165 -10.22120 -10.22050 -10.22029
 Alpha  occ. eigenvalues --  -10.21949 -10.21928 -10.21867 -10.21646 -10.21571
 Alpha  occ. eigenvalues --  -10.21565 -10.21374 -10.20864 -10.20848 -10.20836
 Alpha  occ. eigenvalues --  -10.20492 -10.20434 -10.20301 -10.20228 -10.20096
 Alpha  occ. eigenvalues --  -10.19852 -10.19720 -10.19659 -10.19565 -10.18173
 Alpha  occ. eigenvalues --   -3.07335  -1.82236  -1.81856  -1.81722  -1.15662
 Alpha  occ. eigenvalues --   -1.15468  -1.06909  -1.04562  -1.02352  -0.98899
 Alpha  occ. eigenvalues --   -0.97694  -0.97250  -0.95349  -0.87393  -0.86904
 Alpha  occ. eigenvalues --   -0.86213  -0.85049  -0.84727  -0.84437  -0.83843
 Alpha  occ. eigenvalues --   -0.83680  -0.83447  -0.81868  -0.81378  -0.81256
 Alpha  occ. eigenvalues --   -0.80549  -0.79490  -0.79155  -0.78751  -0.77510
 Alpha  occ. eigenvalues --   -0.76820  -0.76240  -0.75961  -0.75182  -0.72901
 Alpha  occ. eigenvalues --   -0.72414  -0.72026  -0.71870  -0.71316  -0.71205
 Alpha  occ. eigenvalues --   -0.70800  -0.70587  -0.69699  -0.69051  -0.67460
 Alpha  occ. eigenvalues --   -0.66623  -0.66243  -0.65988  -0.65115  -0.63374
 Alpha  occ. eigenvalues --   -0.62700  -0.62064  -0.60768  -0.60633  -0.60241
 Alpha  occ. eigenvalues --   -0.60104  -0.59495  -0.59363  -0.58483  -0.57613
 Alpha  occ. eigenvalues --   -0.57396  -0.56388  -0.56210  -0.55691  -0.54538
 Alpha  occ. eigenvalues --   -0.54174  -0.53655  -0.53357  -0.53201  -0.52562
 Alpha  occ. eigenvalues --   -0.52339  -0.51862  -0.51447  -0.51218  -0.51076
 Alpha  occ. eigenvalues --   -0.50769  -0.50435  -0.50320  -0.50170  -0.49543
 Alpha  occ. eigenvalues --   -0.49111  -0.48968  -0.48777  -0.48522  -0.48262
 Alpha  occ. eigenvalues --   -0.48185  -0.47936  -0.47483  -0.46949  -0.46609
 Alpha  occ. eigenvalues --   -0.46398  -0.46186  -0.46075  -0.45965  -0.45554
 Alpha  occ. eigenvalues --   -0.45524  -0.45212  -0.45010  -0.44916  -0.44448
 Alpha  occ. eigenvalues --   -0.44325  -0.44187  -0.44149  -0.44047  -0.43699
 Alpha  occ. eigenvalues --   -0.43273  -0.43174  -0.42778  -0.42676  -0.42510
 Alpha  occ. eigenvalues --   -0.42102  -0.41972  -0.41752  -0.41632  -0.41530
 Alpha  occ. eigenvalues --   -0.41510  -0.41110  -0.40997  -0.40783  -0.40749
 Alpha  occ. eigenvalues --   -0.40494  -0.40106  -0.40012  -0.39825  -0.39753
 Alpha  occ. eigenvalues --   -0.39270  -0.39105  -0.38777  -0.38590  -0.38473
 Alpha  occ. eigenvalues --   -0.38204  -0.38186  -0.38056  -0.37953  -0.37882
 Alpha  occ. eigenvalues --   -0.37777  -0.37624  -0.37221  -0.37072  -0.37027
 Alpha  occ. eigenvalues --   -0.36777  -0.36714  -0.36104  -0.36072  -0.35822
 Alpha  occ. eigenvalues --   -0.35775  -0.35318  -0.34981  -0.34817  -0.34693
 Alpha  occ. eigenvalues --   -0.34433  -0.34375  -0.34222  -0.34066  -0.33579
 Alpha  occ. eigenvalues --   -0.33480  -0.33343  -0.33247  -0.32972  -0.32748
 Alpha  occ. eigenvalues --   -0.32518  -0.31971  -0.30566  -0.30539  -0.30103
 Alpha  occ. eigenvalues --   -0.29777  -0.29524  -0.29430  -0.28586  -0.28234
 Alpha  occ. eigenvalues --   -0.27130  -0.26787  -0.25221  -0.24679  -0.21941
 Alpha  occ. eigenvalues --   -0.18934
 Alpha virt. eigenvalues --   -0.05640  -0.04187   0.00042   0.02563   0.03334
 Alpha virt. eigenvalues --    0.04520   0.04660   0.04912   0.05576   0.05825
 Alpha virt. eigenvalues --    0.07373   0.08616   0.09445   0.09879   0.09887

 Mulliken charges:
               1
     1  Mg   0.838622
     2  C    0.090656
     3  C   -0.206825
     4  C   -0.195975
     5  C   -0.188670
     6  N   -0.577062
     7  C    0.235547
     8  C   -0.160964
     9  C   -0.130649
    10  C    0.307334
    11  C   -0.311491
    12  C   -0.157314
    13  C   -0.276739
    14  C    0.616574
    15  O   -0.524379
    16  O   -0.422947
    17  N   -0.712320
    18  C    0.394641
    19  C   -0.037898
    20  C    0.020739
    21  C    0.305963
    22  C   -0.360070
    23  C   -0.070221
    24  C   -0.229001
    25  N   -0.726623
    26  C    0.303595
    27  C    0.040975
    28  C    0.040847
    29  C    0.272961
    30  C   -0.390728
    31  C   -0.217571
    32  C   -0.303459
    33  N   -0.766317
    34  C    0.298135
    35  C   -0.030561
    36  C    0.065337
    37  C    0.296277
    38  C   -0.377184
    39  C    0.371082
    40  O   -0.441326
    41  C   -0.314140
    42  C    0.609112
    43  O   -0.479727
    44  O   -0.395595
    45  C   -0.088674
    46  C   -0.013274
    47  C   -0.140348
    48  C    0.163380
    49  C   -0.383089
    50  C   -0.216602
    51  C   -0.176793
    52  C   -0.165879
    53  C   -0.031524
    54  C   -0.321627
    55  C   -0.182069
    56  C   -0.161113
    57  C   -0.143055
    58  C   -0.061333
    59  C   -0.287489
    60  C   -0.185093
    61  C   -0.198356
    62  C   -0.154973
    63  C   -0.049640
    64  C   -0.324380
    65  C   -0.296172
    66  H    0.093937
    67  H    0.066691
    68  H    0.090810
    69  H    0.129341
    70  H    0.086890
    71  H    0.097670
    72  H    0.105240
    73  H    0.126282
    74  H    0.118103
    75  H    0.109589
    76  H    0.128073
    77  H    0.124309
    78  H    0.128546
    79  H    0.122421
    80  H    0.109710
    81  H    0.090001
    82  H    0.088170
    83  H    0.101126
    84  H    0.126945
    85  H    0.086984
    86  H    0.142995
    87  H    0.104248
    88  H    0.098507
    89  H    0.099074
    90  H    0.082857
    91  H    0.124088
    92  H    0.128861
    93  H    0.115657
    94  H    0.109638
    95  H    0.157577
    96  H    0.099390
    97  H    0.143390
    98  H    0.122856
    99  H    0.134447
   100  H    0.135832
   101  H    0.076395
   102  H    0.107219
   103  H    0.113235
   104  H    0.133659
   105  H    0.111752
   106  H    0.100466
   107  H    0.096194
   108  H    0.078925
   109  H    0.071978
   110  H    0.054819
   111  H    0.099888
   112  H    0.092319
   113  H    0.111952
   114  H    0.100179
   115  H    0.079278
   116  H    0.075293
   117  H    0.089347
   118  H    0.085993
   119  H    0.049792
   120  H    0.104165
   121  H    0.074112
   122  H    0.084078
   123  H    0.113839
   124  H    0.086977
   125  H    0.084571
   126  H    0.080856
   127  H    0.097903
   128  H    0.083467
   129  H    0.090554
   130  H    0.094695
   131  H    0.069887
   132  H    0.107250
   133  H    0.094345
   134  H    0.103327
   135  H    0.097085
   136  H    0.073827
   137  H    0.115581
 Sum of Mulliken charges =  -0.00000

 Dipole moment (field-independent basis, Debye):
    X=              3.3610    Y=              3.4464    Z=              0.4323  Tot=              4.8333
 Quadrupole moment (field-independent basis, Debye-Ang):
   XX=           -373.4106   YY=           -392.9513   ZZ=           -395.0659
   XY=            -16.9898   XZ=              9.3123   YZ=             -5.5429

 Normal termination of Gaussian 16 at Thu Sep  5 19:04:25 2019.
