 Gaussian 16, Revision A.03,
 Gaussian 16:  ES64L-G16RevA.03 25-Dec-2016

 ----------------------------------------------------------------------
 # td=(NStates=1) iop(3/107=0140000000,3/108=0140000000) CAM-B3LYP/6-31
 G(d,p)
 ----------------------------------------------------------------------

 --
 TD
 --
 Symbolic Z-matrix:
 Charge =  0 Multiplicity = 1

                         Standard orientation:
 ---------------------------------------------------------------------
 Center     Atomic      Atomic             Coordinates (Angstroms)
 Number     Number       Type             X           Y           Z
 ---------------------------------------------------------------------
      1         12           0       -7.037703    0.629341    0.113257
      2          6           0       -4.891784   -2.028706    0.530333
      3          6           0       -4.706102    2.776375    1.102512
      4          6           0       -9.435617    3.162653   -0.406975
      5          6           0       -9.584668   -1.635042   -0.897846
      6          7           0       -5.099092    0.419287    0.703013
      7          6           0       -4.351756   -0.712730    0.722741
      8          6           0       -2.940743   -0.399869    1.218370
      9          6           0       -3.047223    1.077169    1.587895
     10          6           0       -4.407853    1.452694    1.140536
     11          6           0       -2.717409    1.190976    3.201222
     12          6           0       -2.032853   -0.750018    0.143189
     13          6           0       -0.500296   -0.734432    0.486368
     14          6           0        0.505276   -0.878514   -0.656777
     15          8           0        0.275769   -1.272837   -1.777135
     16          8           0        1.680969   -0.432105   -0.333324
     17          7           0       -7.115107    2.690381    0.336188
     18          6           0       -5.975201    3.413201    0.699940
     19          6           0       -6.256498    4.772565    0.683512
     20          6           0       -7.607656    4.912879    0.417439
     21          6           0       -8.086303    3.547800    0.041480
     22          6           0       -5.278418    5.836978    1.132786
     23          6           0       -8.455943    6.051524    0.170183
     24          6           0       -8.390426    7.296553    0.763061
     25          7           0       -9.159056    0.640166   -0.455440
     26          6           0       -9.849889    1.779846   -0.623970
     27          6           0      -11.221511    1.547019   -1.053632
     28          6           0      -11.315422    0.196055   -1.149114
     29          6           0       -9.982169   -0.275885   -0.825994
     30          6           0      -12.151411    2.620272   -1.233306
     31          6           0      -12.451539   -0.653433   -1.711200
     32          6           0      -12.399023   -0.941441   -3.104406
     33          7           0       -7.184108   -1.391839   -0.092571
     34          6           0       -8.279940   -2.160053   -0.534554
     35          6           0       -7.900916   -3.590582   -0.562047
     36          6           0       -6.556230   -3.583851   -0.056692
     37          6           0       -6.247168   -2.234141    0.143855
     38          6           0       -8.762264   -4.766697   -0.984389
     39          6           0       -5.519453   -4.434327    0.121065
     40          8           0       -5.332731   -5.631323    0.058528
     41          6           0       -4.182317   -3.456573    0.567755
     42          6           0       -3.595784   -3.683212    1.858929
     43          8           0       -3.697532   -3.018972    2.912683
     44          8           0       -2.806001   -4.754374    1.900642
     45          6           0       -2.228547   -5.113478    3.218384
     46          6           0        2.717256   -0.678897   -1.253703
     47          6           0        4.060419   -0.406483   -0.623834
     48          6           0        5.133877    0.298999   -1.074127
     49          6           0        5.236876    0.985524   -2.524382
     50          6           0        6.484164    0.384460   -0.345810
     51          6           0        7.636239   -0.269366   -0.989662
     52          6           0        8.789859   -0.210327   -0.140353
     53          6           0       10.161017   -0.581311   -0.846085
     54          6           0       10.137164   -2.038922   -1.252567
     55          6           0       11.443657   -0.200559   -0.017476
     56          6           0       12.797248   -0.353242   -0.710370
     57          6           0       13.942413    0.058075    0.188941
     58          6           0       15.342619   -0.095147   -0.503656
     59          6           0       15.663057   -1.577007   -0.888453
     60          6           0       16.356237    0.428737    0.517509
     61          6           0       17.814611    0.614035   -0.054441
     62          6           0       18.784957    1.375055    0.847235
     63          6           0       20.343191    1.259689    0.318529
     64          6           0       20.432493    2.012864   -1.022934
     65          6           0       21.255036    1.865360    1.334451
     66          1           0       -4.053358    3.514980    1.444692
     67          1           0      -10.116837    3.994370   -0.582201
     68          1           0      -10.542856   -2.175162   -1.028439
     69          1           0       -2.730576   -1.045368    2.199367
     70          1           0       -2.230136    1.697468    1.069092
     71          1           0       -1.809519    0.695137    3.495250
     72          1           0       -2.845692    2.293047    3.472434
     73          1           0       -3.467802    0.643237    3.687999
     74          1           0       -2.233873   -1.969509   -0.290438
     75          1           0       -2.179012    0.046122   -0.594388
     76          1           0       -0.238626    0.230463    1.154447
     77          1           0       -0.207849   -1.495545    1.281734
     78          1           0       -5.650551    6.726277    0.696350
     79          1           0       -5.362259    6.252715    2.160824
     80          1           0       -4.359485    5.615774    0.893140
     81          1           0       -9.266584    5.989979   -0.550585
     82          1           0       -8.995226    7.866543    0.435880
     83          1           0       -7.697649    7.839114    1.574096
     84          1           0      -12.032099    3.297897   -1.946331
     85          1           0      -13.163475    2.205834   -1.456877
     86          1           0      -12.200113    3.223122   -0.401060
     87          1           0      -12.405842   -1.497427   -1.154656
     88          1           0      -13.450460   -0.258865   -1.640888
     89          1           0      -13.324030   -1.384724   -3.204567
     90          1           0      -12.338737   -0.216914   -3.700369
     91          1           0      -11.387239   -1.592722   -3.393606
     92          1           0       -9.162527   -4.605971   -1.930552
     93          1           0       -8.225793   -5.702798   -1.138087
     94          1           0       -9.499638   -5.058249   -0.283506
     95          1           0       -3.406678   -3.716075   -0.122850
     96          1           0       -1.532802   -4.446417    3.569742
     97          1           0       -3.067066   -5.301270    4.097474
     98          1           0       -1.773776   -5.932425    3.145864
     99          1           0        2.563182   -1.740823   -1.458450
    100          1           0        2.675129    0.096755   -2.132964
    101          1           0        4.211448   -0.792398    0.405848
    102          1           0        4.202130    0.955376   -3.314792
    103          1           0        5.522738    2.033317   -2.326143
    104          1           0        5.922740    0.445909   -3.299442
    105          1           0        6.821483    1.181343   -0.029142
    106          1           0        6.289225   -0.150442    0.491467
    107          1           0        7.196519   -1.307754   -1.315043
    108          1           0        7.776214    0.309954   -1.940007
    109          1           0        9.233582    0.785282    0.179565
    110          1           0        8.798477   -0.678503    0.741975
    111          1           0       10.036674    0.003092   -1.796521
    112          1           0        9.153552   -2.090902   -1.829901
    113          1           0       10.921711   -2.437848   -1.866820
    114          1           0        9.963451   -2.692614   -0.441661
    115          1           0       11.282495    0.796457    0.212240
    116          1           0       11.637063   -1.066795    0.752521
    117          1           0       12.744984   -1.405792   -1.148976
    118          1           0       12.899813    0.232851   -1.775234
    119          1           0       13.787684    1.062127    0.370552
    120          1           0       13.775463   -0.731383    1.035863
    121          1           0       15.167518    0.505870   -1.474654
    122          1           0       15.818151   -2.215254   -0.028509
    123          1           0       14.785221   -2.124065   -1.515066
    124          1           0       16.645475   -1.608297   -1.479771
    125          1           0       15.966598    1.408536    0.588270
    126          1           0       16.375033   -0.358672    1.449498
    127          1           0       18.363148   -0.192567   -0.344217
    128          1           0       17.740747    1.075382   -1.141695
    129          1           0       18.514519    2.615997    0.919475
    130          1           0       18.626523    0.938346    1.840394
    131          1           0       20.633154    0.269169    0.109665
    132          1           0       20.285969    3.122579   -0.771718
    133          1           0       21.376695    1.938894   -1.449830
    134          1           0       19.824269    1.645079   -1.796770
    135          1           0       21.285863    1.455467    2.338576
    136          1           0       22.257188    2.039701    1.051097
    137          1           0       20.902513    2.924155    1.685992
 ---------------------------------------------------------------------

 SCF Done:  E(RCAM-B3LYP) =  -2933.40929041     A.U. after   16 cycles

 Excitation energies and oscillator strengths:

 Excited State   1:      Singlet-A      1.9636 eV  631.43 nm  f=0.2978  <S**2>=0.000
     240 -> 243       -0.23205
     241 -> 242        0.66499
 This state for optimization and/or second-order correction.
 Total Energy, E(TD-HF/TD-DFT) =  -2933.33713106
 Copying the excited state density for this state as the 1-particle RhoCI density.

 The electronic state is 1-A.
 Alpha  occ. eigenvalues --  -46.81348 -19.21815 -19.21073 -19.15911 -19.15296
 Alpha  occ. eigenvalues --  -19.14108 -14.37764 -14.35919 -14.35337 -14.35331
 Alpha  occ. eigenvalues --  -10.33762 -10.32730 -10.30068 -10.28003 -10.26456
 Alpha  occ. eigenvalues --  -10.26417 -10.25669 -10.25422 -10.25318 -10.25261
 Alpha  occ. eigenvalues --  -10.25176 -10.24913 -10.24396 -10.24349 -10.24325
 Alpha  occ. eigenvalues --  -10.24210 -10.24135 -10.23989 -10.23657 -10.23644
 Alpha  occ. eigenvalues --  -10.23343 -10.23327 -10.23217 -10.23190 -10.22474
 Alpha  occ. eigenvalues --  -10.22367 -10.22333 -10.22322 -10.22296 -10.22164
 Alpha  occ. eigenvalues --  -10.22010 -10.21841 -10.21631 -10.21611 -10.21584
 Alpha  occ. eigenvalues --  -10.21544 -10.21517 -10.21510 -10.21413 -10.21279
 Alpha  occ. eigenvalues --  -10.21168 -10.21049 -10.21027 -10.20950 -10.20889
 Alpha  occ. eigenvalues --  -10.20857 -10.20510 -10.20253 -10.20171 -10.19983
 Alpha  occ. eigenvalues --  -10.19742 -10.19438 -10.19258 -10.19073 -10.18807
 Alpha  occ. eigenvalues --   -3.09795  -1.84751  -1.84265  -1.84192  -1.15305
 Alpha  occ. eigenvalues --   -1.11491  -1.05864  -1.03827  -1.01277  -1.00821
 Alpha  occ. eigenvalues --   -1.00300  -0.99868  -0.98403  -0.87284  -0.86410
 Alpha  occ. eigenvalues --   -0.85811  -0.85028  -0.84859  -0.84020  -0.83764
 Alpha  occ. eigenvalues --   -0.83681  -0.83196  -0.82863  -0.82292  -0.81459
 Alpha  occ. eigenvalues --   -0.80763  -0.79906  -0.79330  -0.78516  -0.78074
 Alpha  occ. eigenvalues --   -0.76870  -0.76137  -0.75846  -0.75159  -0.74843
 Alpha  occ. eigenvalues --   -0.73798  -0.73195  -0.72518  -0.71676  -0.71295
 Alpha  occ. eigenvalues --   -0.71173  -0.70267  -0.69532  -0.69269  -0.68658
 Alpha  occ. eigenvalues --   -0.67489  -0.66496  -0.65539  -0.65279  -0.64360
 Alpha  occ. eigenvalues --   -0.63607  -0.62633  -0.61184  -0.60429  -0.60312
 Alpha  occ. eigenvalues --   -0.59532  -0.59050  -0.58558  -0.58300  -0.58020
 Alpha  occ. eigenvalues --   -0.57327  -0.57209  -0.56229  -0.55880  -0.55772
 Alpha  occ. eigenvalues --   -0.55361  -0.54546  -0.54005  -0.53963  -0.52586
 Alpha  occ. eigenvalues --   -0.52394  -0.51867  -0.51755  -0.51277  -0.50981
 Alpha  occ. eigenvalues --   -0.50683  -0.49948  -0.49806  -0.49557  -0.49312
 Alpha  occ. eigenvalues --   -0.48910  -0.48850  -0.48654  -0.48473  -0.48043
 Alpha  occ. eigenvalues --   -0.47798  -0.47693  -0.47549  -0.47522  -0.47273
 Alpha  occ. eigenvalues --   -0.47189  -0.46748  -0.46616  -0.46383  -0.46003
 Alpha  occ. eigenvalues --   -0.45915  -0.45545  -0.45504  -0.45315  -0.44971
 Alpha  occ. eigenvalues --   -0.44727  -0.44540  -0.44362  -0.44183  -0.43980
 Alpha  occ. eigenvalues --   -0.43945  -0.43592  -0.43486  -0.43102  -0.43044
 Alpha  occ. eigenvalues --   -0.42685  -0.42587  -0.42284  -0.42125  -0.42082
 Alpha  occ. eigenvalues --   -0.41558  -0.41497  -0.41224  -0.40966  -0.40825
 Alpha  occ. eigenvalues --   -0.40629  -0.40231  -0.40093  -0.39934  -0.39727
 Alpha  occ. eigenvalues --   -0.39621  -0.39389  -0.39109  -0.38990  -0.38907
 Alpha  occ. eigenvalues --   -0.38892  -0.38765  -0.38217  -0.38010  -0.37908
 Alpha  occ. eigenvalues --   -0.37507  -0.37299  -0.37143  -0.37082  -0.36984
 Alpha  occ. eigenvalues --   -0.36945  -0.36831  -0.36300  -0.36160  -0.35709
 Alpha  occ. eigenvalues --   -0.35563  -0.35262  -0.34761  -0.34428  -0.34335
 Alpha  occ. eigenvalues --   -0.34258  -0.33967  -0.33759  -0.33538  -0.33163
 Alpha  occ. eigenvalues --   -0.33137  -0.33014  -0.32674  -0.32437  -0.32277
 Alpha  occ. eigenvalues --   -0.32255  -0.31545  -0.31213  -0.30786  -0.30748
 Alpha  occ. eigenvalues --   -0.29681  -0.29595  -0.28333  -0.28084  -0.27732
 Alpha  occ. eigenvalues --   -0.27446  -0.26743  -0.26007  -0.24875  -0.21324
 Alpha  occ. eigenvalues --   -0.20227
 Alpha virt. eigenvalues --   -0.07788  -0.03845  -0.00326   0.02254   0.03629
 Alpha virt. eigenvalues --    0.03837   0.04251   0.04999   0.05022   0.05634
 Alpha virt. eigenvalues --    0.06681   0.09146   0.09581   0.09626   0.09754

 Mulliken charges:
               1
     1  Mg   0.830222
     2  C    0.070287
     3  C   -0.172935
     4  C   -0.165285
     5  C   -0.162174
     6  N   -0.663639
     7  C    0.277825
     8  C   -0.148430
     9  C   -0.168535
    10  C    0.395212
    11  C   -0.323372
    12  C   -0.132272
    13  C   -0.282132
    14  C    0.594072
    15  O   -0.481079
    16  O   -0.425989
    17  N   -0.703752
    18  C    0.296557
    19  C    0.007681
    20  C    0.018729
    21  C    0.278915
    22  C   -0.361417
    23  C   -0.134771
    24  C   -0.198079
    25  N   -0.649049
    26  C    0.278042
    27  C    0.056040
    28  C    0.003041
    29  C    0.282935
    30  C   -0.394019
    31  C   -0.237355
    32  C   -0.264390
    33  N   -0.721737
    34  C    0.225420
    35  C    0.038065
    36  C    0.092575
    37  C    0.336713
    38  C   -0.388810
    39  C    0.290160
    40  O   -0.454629
    41  C   -0.351384
    42  C    0.647808
    43  O   -0.515320
    44  O   -0.457706
    45  C   -0.059472
    46  C    0.035544
    47  C   -0.137928
    48  C    0.101645
    49  C   -0.357646
    50  C   -0.198237
    51  C   -0.172443
    52  C   -0.171921
    53  C   -0.080250
    54  C   -0.315795
    55  C   -0.156442
    56  C   -0.193167
    57  C   -0.141861
    58  C   -0.067113
    59  C   -0.307645
    60  C   -0.145053
    61  C   -0.187242
    62  C   -0.149448
    63  C   -0.061997
    64  C   -0.304202
    65  C   -0.313249
    66  H    0.072166
    67  H    0.083145
    68  H    0.084090
    69  H    0.131044
    70  H    0.099560
    71  H    0.119629
    72  H    0.097180
    73  H    0.138620
    74  H    0.084342
    75  H    0.111916
    76  H    0.108201
    77  H    0.127473
    78  H    0.122515
    79  H    0.120532
    80  H    0.118621
    81  H    0.097830
    82  H    0.085384
    83  H    0.090170
    84  H    0.133927
    85  H    0.100613
    86  H    0.132872
    87  H    0.114841
    88  H    0.102061
    89  H    0.105667
    90  H    0.122278
    91  H    0.068043
    92  H    0.132644
    93  H    0.143165
    94  H    0.138883
    95  H    0.154556
    96  H    0.128220
    97  H    0.106233
    98  H    0.124987
    99  H    0.130479
   100  H    0.110543
   101  H    0.080794
   102  H    0.069227
   103  H    0.124962
   104  H    0.121810
   105  H    0.103138
   106  H    0.101759
   107  H    0.093169
   108  H    0.093269
   109  H    0.081796
   110  H    0.105196
   111  H    0.077079
   112  H    0.088352
   113  H    0.103868
   114  H    0.101956
   115  H    0.091381
   116  H    0.082882
   117  H    0.087796
   118  H    0.046813
   119  H    0.102706
   120  H    0.076882
   121  H    0.080591
   122  H    0.103687
   123  H    0.081420
   124  H    0.096054
   125  H    0.104045
   126  H    0.079492
   127  H    0.105351
   128  H    0.069855
   129  H    0.050914
   130  H    0.091457
   131  H    0.094439
   132  H    0.092820
   133  H    0.102264
   134  H    0.105439
   135  H    0.102300
   136  H    0.104259
   137  H    0.080235
 Sum of Mulliken charges =  -0.00000

 Dipole moment (field-independent basis, Debye):
    X=             -0.1675    Y=              4.4870    Z=              0.3534  Tot=              4.5040
 Quadrupole moment (field-independent basis, Debye-Ang):
   XX=           -312.0868   YY=           -394.5501   ZZ=           -398.1230
   XY=            -27.7177   XZ=             19.8469   YZ=             -5.2149

 Normal termination of Gaussian 16 at Tue Sep 24 06:25:17 2019.
