 Gaussian 16, Revision A.03,
 Gaussian 16:  ES64L-G16RevA.03 25-Dec-2016

 ----------------------------------------------------------------------
 # td=(NStates=1) iop(3/107=0140000000,3/108=0140000000) CAM-B3LYP/6-31
 G(d,p)
 ----------------------------------------------------------------------

 --
 TD
 --
 Symbolic Z-matrix:
 Charge =  0 Multiplicity = 1

                         Standard orientation:
 ---------------------------------------------------------------------
 Center     Atomic      Atomic             Coordinates (Angstroms)
 Number     Number       Type             X           Y           Z
 ---------------------------------------------------------------------
      1         12           0       -7.167213    0.611860    0.070745
      2          6           0       -4.843798   -1.918915    0.471325
      3          6           0       -4.775937    2.855718    1.210195
      4          6           0       -9.426639    3.119387   -0.431649
      5          6           0       -9.523366   -1.713205   -0.863183
      6          7           0       -5.128366    0.383130    0.777001
      7          6           0       -4.389187   -0.724952    0.793214
      8          6           0       -3.028250   -0.409637    1.268203
      9          6           0       -3.011705    1.065176    1.851845
     10          6           0       -4.353971    1.461497    1.265837
     11          6           0       -3.169282    1.165140    3.361883
     12          6           0       -2.000094   -0.533684    0.057732
     13          6           0       -0.446643   -0.379646    0.544453
     14          6           0        0.470017   -0.694792   -0.555637
     15          8           0        0.069515   -1.049582   -1.652315
     16          8           0        1.751730   -0.482384   -0.290964
     17          7           0       -7.042261    2.580173    0.375686
     18          6           0       -6.041196    3.377050    0.865559
     19          6           0       -6.347269    4.776018    0.770481
     20          6           0       -7.678666    4.880364    0.362612
     21          6           0       -8.151882    3.416910   -0.020560
     22          6           0       -5.473971    5.801800    1.180297
     23          6           0       -8.529048    6.074452    0.145250
     24          6           0       -8.349964    7.257682    0.667209
     25          7           0       -9.090909    0.633478   -0.594267
     26          6           0       -9.858091    1.768564   -0.655247
     27          6           0      -11.183308    1.529600   -1.114618
     28          6           0      -11.253557    0.201955   -1.342211
     29          6           0       -9.925223   -0.389744   -0.952702
     30          6           0      -12.249444    2.606641   -1.332953
     31          6           0      -12.404157   -0.738607   -1.716139
     32          6           0      -12.173006   -1.135984   -3.253243
     33          7           0       -7.265716   -1.351236   -0.119021
     34          6           0       -8.307858   -2.250666   -0.485023
     35          6           0       -7.815122   -3.597069   -0.524145
     36          6           0       -6.481127   -3.518497   -0.104294
     37          6           0       -6.228547   -2.114962    0.070791
     38          6           0       -8.682185   -4.806438   -0.728343
     39          6           0       -5.294619   -4.333164    0.146400
     40          8           0       -5.135978   -5.547129    0.247761
     41          6           0       -4.136450   -3.333104    0.528102
     42          6           0       -3.541320   -3.754358    1.894331
     43          8           0       -3.870290   -3.251549    2.993824
     44          8           0       -2.630458   -4.680630    1.803406
     45          6           0       -2.108879   -5.333151    3.024176
     46          6           0        2.864702   -0.698814   -1.228310
     47          6           0        4.144620   -0.415490   -0.599844
     48          6           0        5.118230    0.323598   -1.073698
     49          6           0        4.989867    0.976707   -2.352543
     50          6           0        6.444463    0.494289   -0.397602
     51          6           0        7.640320   -0.193209   -1.134609
     52          6           0        8.845606   -0.174242   -0.296036
     53          6           0       10.222784   -0.556496   -1.028781
     54          6           0       10.238762   -1.870358   -1.668410
     55          6           0       11.450278   -0.285116   -0.095343
     56          6           0       12.837718   -0.561793   -0.647101
     57          6           0       13.940810   -0.166064    0.272951
     58          6           0       15.414747   -0.214402   -0.344050
     59          6           0       15.737581   -1.676514   -0.896655
     60          6           0       16.518641    0.309038    0.508696
     61          6           0       17.889946    0.458704   -0.095620
     62          6           0       18.716499    1.270758    0.805681
     63          6           0       20.186470    1.450867    0.271144
     64          6           0       20.317360    2.289920   -0.881440
     65          6           0       20.990889    2.062387    1.418562
     66          1           0       -4.012294    3.404529    1.678858
     67          1           0      -10.178614    3.915188   -0.728957
     68          1           0      -10.236540   -2.534344   -1.155602
     69          1           0       -2.666148   -1.001254    2.148718
     70          1           0       -2.180963    1.705103    1.542983
     71          1           0       -2.095878    1.050908    3.979612
     72          1           0       -3.476550    2.216699    3.647209
     73          1           0       -3.768682    0.372320    3.691315
     74          1           0       -2.226142   -1.500389   -0.447465
     75          1           0       -2.247108    0.028469   -0.644037
     76          1           0       -0.401253    0.515508    0.847406
     77          1           0       -0.286225   -0.990740    1.387819
     78          1           0       -5.536221    6.705567    0.783857
     79          1           0       -5.611139    6.126435    2.234236
     80          1           0       -4.428678    5.609114    1.038224
     81          1           0       -9.196711    5.759858   -0.685818
     82          1           0       -9.142492    7.991693    0.375924
     83          1           0       -7.857275    7.432969    1.609395
     84          1           0      -11.921064    3.325695   -2.146965
     85          1           0      -13.086079    2.289227   -1.698098
     86          1           0      -12.588546    3.343082   -0.405701
     87          1           0      -12.580628   -1.732441   -1.165547
     88          1           0      -13.277600   -0.203359   -1.621502
     89          1           0      -12.859004   -1.747160   -3.785286
     90          1           0      -12.199667   -0.260026   -3.794237
     91          1           0      -11.214732   -1.510202   -3.420713
     92          1           0       -8.870488   -5.050924   -1.845554
     93          1           0       -8.086864   -5.747210   -0.342901
     94          1           0       -9.644854   -4.886704   -0.264093
     95          1           0       -3.371787   -3.472929   -0.369926
     96          1           0       -1.474280   -4.681385    3.696669
     97          1           0       -2.939909   -5.837683    3.354374
     98          1           0       -1.363407   -6.046354    2.657474
     99          1           0        2.861933   -1.769679   -1.639499
    100          1           0        2.592223   -0.012683   -2.042858
    101          1           0        4.069017   -0.800774    0.507790
    102          1           0        4.080365    1.124306   -2.978668
    103          1           0        5.126376    2.176691   -2.286632
    104          1           0        5.826959    0.666943   -3.088889
    105          1           0        6.724582    1.621792   -0.345396
    106          1           0        6.418506    0.104678    0.549702
    107          1           0        7.538470   -1.285780   -1.371083
    108          1           0        7.956925    0.143738   -2.076580
    109          1           0        8.955786    0.802659    0.188144
    110          1           0        8.578863   -0.928822    0.492627
    111          1           0       10.378182    0.237001   -1.921615
    112          1           0        9.488371   -2.059904   -2.377558
    113          1           0       11.144560   -2.219103   -2.150670
    114          1           0       10.084424   -2.653336   -0.865801
    115          1           0       11.340050    0.788504   -0.016560
    116          1           0       11.382070   -0.809519    0.950729
    117          1           0       12.875448   -1.510228   -0.780627
    118          1           0       12.918667    0.043549   -1.697619
    119          1           0       13.864946    0.803904    0.747068
    120          1           0       14.096368   -0.989138    1.139433
    121          1           0       15.447433    0.410624   -1.422783
    122          1           0       16.165010   -2.383709   -0.055594
    123          1           0       14.985910   -2.024918   -1.399014
    124          1           0       16.651791   -1.393787   -1.444647
    125          1           0       16.284132    1.282298    0.933713
    126          1           0       16.641558   -0.409286    1.513751
    127          1           0       18.194455   -0.613526   -0.371844
    128          1           0       17.685032    0.930643   -1.156683
    129          1           0       18.228756    2.426078    0.720858
    130          1           0       18.744282    0.991549    2.005606
    131          1           0       20.615982    0.444234   -0.043678
    132          1           0       19.974720    3.500165   -0.845280
    133          1           0       21.391208    2.086782   -1.316348
    134          1           0       19.558494    1.959542   -1.739139
    135          1           0       20.862605    1.460944    2.320284
    136          1           0       22.228865    2.000689    1.162033
    137          1           0       20.506370    3.289782    1.691593
 ---------------------------------------------------------------------

 SCF Done:  E(RCAM-B3LYP) =  -2933.50276452     A.U. after   16 cycles

 Excitation energies and oscillator strengths:

 Excited State   1:      Singlet-A      2.1239 eV  583.75 nm  f=0.2045  <S**2>=0.000
     240 -> 243        0.25960
     241 -> 242        0.64504
 This state for optimization and/or second-order correction.
 Total Energy, E(TD-HF/TD-DFT) =  -2933.42471163
 Copying the excited state density for this state as the 1-particle RhoCI density.

 The electronic state is 1-A.
 Alpha  occ. eigenvalues --  -46.79040 -19.21899 -19.21322 -19.15332 -19.14987
 Alpha  occ. eigenvalues --  -19.14612 -14.36906 -14.35666 -14.35212 -14.34943
 Alpha  occ. eigenvalues --  -10.33995 -10.33631 -10.29907 -10.28026 -10.27175
 Alpha  occ. eigenvalues --  -10.26947 -10.26089 -10.25820 -10.24787 -10.24462
 Alpha  occ. eigenvalues --  -10.24266 -10.24237 -10.24209 -10.24088 -10.23762
 Alpha  occ. eigenvalues --  -10.23731 -10.23645 -10.23264 -10.23218 -10.23212
 Alpha  occ. eigenvalues --  -10.23166 -10.23137 -10.23058 -10.23039 -10.23017
 Alpha  occ. eigenvalues --  -10.22927 -10.22636 -10.22605 -10.22544 -10.22482
 Alpha  occ. eigenvalues --  -10.22434 -10.22394 -10.22353 -10.22272 -10.22203
 Alpha  occ. eigenvalues --  -10.22174 -10.22114 -10.22033 -10.21931 -10.21799
 Alpha  occ. eigenvalues --  -10.21727 -10.21722 -10.21416 -10.21399 -10.21359
 Alpha  occ. eigenvalues --  -10.21289 -10.21255 -10.20913 -10.20747 -10.20658
 Alpha  occ. eigenvalues --  -10.20616 -10.19940 -10.19848 -10.19846 -10.18986
 Alpha  occ. eigenvalues --   -3.07821  -1.82749  -1.82333  -1.82209  -1.12605
 Alpha  occ. eigenvalues --   -1.12314  -1.04678  -1.02935  -1.01029  -0.99302
 Alpha  occ. eigenvalues --   -0.98150  -0.97701  -0.95995  -0.87505  -0.85968
 Alpha  occ. eigenvalues --   -0.85897  -0.85236  -0.84348  -0.84062  -0.83562
 Alpha  occ. eigenvalues --   -0.83385  -0.83157  -0.82418  -0.82113  -0.81738
 Alpha  occ. eigenvalues --   -0.80847  -0.79935  -0.79139  -0.78495  -0.78052
 Alpha  occ. eigenvalues --   -0.77310  -0.76676  -0.76132  -0.75388  -0.73555
 Alpha  occ. eigenvalues --   -0.73190  -0.72691  -0.71918  -0.71721  -0.70900
 Alpha  occ. eigenvalues --   -0.70780  -0.69868  -0.69249  -0.68868  -0.67970
 Alpha  occ. eigenvalues --   -0.67360  -0.66645  -0.65735  -0.65202  -0.63949
 Alpha  occ. eigenvalues --   -0.62749  -0.61954  -0.60656  -0.60325  -0.60131
 Alpha  occ. eigenvalues --   -0.59526  -0.59373  -0.57998  -0.57683  -0.57436
 Alpha  occ. eigenvalues --   -0.56887  -0.56427  -0.55941  -0.55767  -0.55169
 Alpha  occ. eigenvalues --   -0.54605  -0.53899  -0.53753  -0.53095  -0.52308
 Alpha  occ. eigenvalues --   -0.52205  -0.51945  -0.51694  -0.51376  -0.51079
 Alpha  occ. eigenvalues --   -0.50854  -0.50163  -0.49930  -0.49453  -0.49306
 Alpha  occ. eigenvalues --   -0.49213  -0.48968  -0.48483  -0.48470  -0.48063
 Alpha  occ. eigenvalues --   -0.47661  -0.47440  -0.47285  -0.46884  -0.46738
 Alpha  occ. eigenvalues --   -0.46399  -0.46198  -0.46014  -0.45963  -0.45666
 Alpha  occ. eigenvalues --   -0.45564  -0.45314  -0.45190  -0.44964  -0.44728
 Alpha  occ. eigenvalues --   -0.44563  -0.44340  -0.44256  -0.43602  -0.43335
 Alpha  occ. eigenvalues --   -0.43306  -0.42896  -0.42779  -0.42539  -0.42139
 Alpha  occ. eigenvalues --   -0.42035  -0.41901  -0.41700  -0.41361  -0.41194
 Alpha  occ. eigenvalues --   -0.41138  -0.41041  -0.40813  -0.40555  -0.40277
 Alpha  occ. eigenvalues --   -0.40155  -0.40083  -0.40033  -0.39805  -0.39713
 Alpha  occ. eigenvalues --   -0.39548  -0.39375  -0.39284  -0.38871  -0.38825
 Alpha  occ. eigenvalues --   -0.38614  -0.38504  -0.38402  -0.37961  -0.37928
 Alpha  occ. eigenvalues --   -0.37628  -0.37451  -0.37417  -0.37291  -0.37066
 Alpha  occ. eigenvalues --   -0.36964  -0.36500  -0.36282  -0.36128  -0.35906
 Alpha  occ. eigenvalues --   -0.35885  -0.35831  -0.35348  -0.34904  -0.34462
 Alpha  occ. eigenvalues --   -0.34160  -0.34156  -0.33804  -0.33359  -0.33355
 Alpha  occ. eigenvalues --   -0.33140  -0.32960  -0.32860  -0.32623  -0.32393
 Alpha  occ. eigenvalues --   -0.32173  -0.31947  -0.31644  -0.30721  -0.30365
 Alpha  occ. eigenvalues --   -0.29714  -0.29106  -0.28431  -0.28057  -0.27505
 Alpha  occ. eigenvalues --   -0.27114  -0.26333  -0.26188  -0.25077  -0.21437
 Alpha  occ. eigenvalues --   -0.19995
 Alpha virt. eigenvalues --   -0.06532  -0.03898   0.00448   0.02152   0.03732
 Alpha virt. eigenvalues --    0.04585   0.05009   0.05241   0.05446   0.06065
 Alpha virt. eigenvalues --    0.06864   0.08723   0.09399   0.09662   0.09744

 Mulliken charges:
               1
     1  Mg   0.809174
     2  C    0.055058
     3  C   -0.183403
     4  C   -0.162553
     5  C   -0.194717
     6  N   -0.636426
     7  C    0.359503
     8  C   -0.194950
     9  C   -0.138354
    10  C    0.286984
    11  C   -0.297180
    12  C   -0.162637
    13  C   -0.259169
    14  C    0.596398
    15  O   -0.482245
    16  O   -0.483170
    17  N   -0.715577
    18  C    0.340334
    19  C    0.060837
    20  C   -0.030022
    21  C    0.285861
    22  C   -0.400894
    23  C   -0.034246
    24  C   -0.264266
    25  N   -0.691345
    26  C    0.294532
    27  C    0.038870
    28  C    0.019276
    29  C    0.295154
    30  C   -0.365604
    31  C   -0.238175
    32  C   -0.335190
    33  N   -0.742680
    34  C    0.253107
    35  C    0.042829
    36  C    0.024504
    37  C    0.353419
    38  C   -0.401541
    39  C    0.349802
    40  O   -0.475725
    41  C   -0.301425
    42  C    0.623669
    43  O   -0.514024
    44  O   -0.429389
    45  C   -0.083038
    46  C    0.030256
    47  C   -0.149609
    48  C    0.182292
    49  C   -0.387355
    50  C   -0.221086
    51  C   -0.180310
    52  C   -0.172375
    53  C   -0.056897
    54  C   -0.316995
    55  C   -0.171658
    56  C   -0.145866
    57  C   -0.167203
    58  C   -0.061328
    59  C   -0.300459
    60  C   -0.146026
    61  C   -0.164834
    62  C   -0.151457
    63  C   -0.033551
    64  C   -0.270900
    65  C   -0.261277
    66  H    0.067011
    67  H    0.098462
    68  H    0.085647
    69  H    0.113206
    70  H    0.106341
    71  H    0.068941
    72  H    0.110521
    73  H    0.146779
    74  H    0.109895
    75  H    0.117943
    76  H    0.136815
    77  H    0.137115
    78  H    0.132014
    79  H    0.118969
    80  H    0.113369
    81  H    0.091794
    82  H    0.096207
    83  H    0.110961
    84  H    0.113691
    85  H    0.121719
    86  H    0.099188
    87  H    0.105891
    88  H    0.107172
    89  H    0.100637
    90  H    0.114392
    91  H    0.120091
    92  H    0.115491
    93  H    0.134974
    94  H    0.133426
    95  H    0.148712
    96  H    0.130935
    97  H    0.154938
    98  H    0.128324
    99  H    0.126378
   100  H    0.121097
   101  H    0.086733
   102  H    0.122897
   103  H    0.090209
   104  H    0.116326
   105  H    0.096052
   106  H    0.109807
   107  H    0.095052
   108  H    0.101160
   109  H    0.087712
   110  H    0.086602
   111  H    0.055454
   112  H    0.106959
   113  H    0.107867
   114  H    0.088088
   115  H    0.095887
   116  H    0.075515
   117  H    0.111558
   118  H    0.065110
   119  H    0.091688
   120  H    0.069602
   121  H    0.041068
   122  H    0.081088
   123  H    0.111551
   124  H    0.102246
   125  H    0.089500
   126  H    0.054133
   127  H    0.092898
   128  H    0.088873
   129  H    0.067089
   130  H    0.079662
   131  H    0.091734
   132  H    0.075996
   133  H    0.093062
   134  H    0.078445
   135  H    0.104197
   136  H    0.066099
   137  H    0.058309
 Sum of Mulliken charges =  -0.00000

 Dipole moment (field-independent basis, Debye):
    X=              2.2507    Y=              4.2562    Z=              0.0262  Tot=              4.8148
 Quadrupole moment (field-independent basis, Debye-Ang):
   XX=           -348.1347   YY=           -390.3170   ZZ=           -397.0837
   XY=            -35.9324   XZ=             11.7878   YZ=             -1.1381

 Normal termination of Gaussian 16 at Wed Sep 11 12:26:35 2019.
