 Gaussian 16, Revision A.03,
 Gaussian 16:  ES64L-G16RevA.03 25-Dec-2016

 ----------------------------------------------------------------------
 # td=(NStates=1) iop(3/107=0140000000,3/108=0140000000) CAM-B3LYP/6-31
 G(d,p)
 ----------------------------------------------------------------------

 --
 TD
 --
 Symbolic Z-matrix:
 Charge =  0 Multiplicity = 1

                         Standard orientation:
 ---------------------------------------------------------------------
 Center     Atomic      Atomic             Coordinates (Angstroms)
 Number     Number       Type             X           Y           Z
 ---------------------------------------------------------------------
      1         12           0       -7.192360    0.606462    0.034228
      2          6           0       -4.740780   -1.980783    0.434427
      3          6           0       -4.807127    2.754145    1.248658
      4          6           0       -9.432810    3.163877   -0.409086
      5          6           0       -9.518197   -1.829831   -0.922673
      6          7           0       -5.080054    0.448177    0.722696
      7          6           0       -4.314914   -0.742466    0.777692
      8          6           0       -2.864709   -0.427103    1.257536
      9          6           0       -3.029520    1.083045    1.748609
     10          6           0       -4.404590    1.496755    1.162102
     11          6           0       -3.104307    1.190300    3.334928
     12          6           0       -1.917337   -0.553717    0.133517
     13          6           0       -0.470851   -0.413855    0.472221
     14          6           0        0.512900   -0.569510   -0.624458
     15          8           0        0.255763   -0.884838   -1.794181
     16          8           0        1.758807   -0.401551   -0.189348
     17          7           0       -7.097162    2.620228    0.289199
     18          6           0       -6.082444    3.328351    0.781365
     19          6           0       -6.458513    4.745702    0.930292
     20          6           0       -7.755154    4.857301    0.390854
     21          6           0       -8.159614    3.522866    0.099127
     22          6           0       -5.538788    5.823248    1.227876
     23          6           0       -8.615035    5.962426    0.165727
     24          6           0       -8.469681    7.187934    0.755558
     25          7           0       -9.155151    0.691086   -0.639799
     26          6           0       -9.848662    1.859731   -0.662683
     27          6           0      -11.087934    1.511577   -1.109092
     28          6           0      -11.131551    0.157514   -1.349346
     29          6           0       -9.913630   -0.403534   -0.937766
     30          6           0      -12.246967    2.459564   -1.434587
     31          6           0      -12.335325   -0.674506   -1.775479
     32          6           0      -12.240761   -1.122494   -3.125585
     33          7           0       -7.234388   -1.410550   -0.184065
     34          6           0       -8.269416   -2.346405   -0.611433
     35          6           0       -7.829487   -3.650304   -0.575778
     36          6           0       -6.493570   -3.570438   -0.100078
     37          6           0       -6.144066   -2.210410    0.070026
     38          6           0       -8.729918   -4.831378   -0.929298
     39          6           0       -5.300687   -4.442524    0.288420
     40          8           0       -5.232680   -5.674826    0.234080
     41          6           0       -4.181532   -3.381929    0.558382
     42          6           0       -3.577424   -3.759214    1.913998
     43          8           0       -3.844605   -3.105128    2.935534
     44          8           0       -2.632436   -4.697127    1.732830
     45          6           0       -2.120288   -5.200366    2.986008
     46          6           0        2.797078   -0.503008   -1.271333
     47          6           0        4.070422   -0.327452   -0.486957
     48          6           0        5.147405    0.353091   -1.006090
     49          6           0        5.221823    1.169192   -2.311373
     50          6           0        6.454717    0.436502   -0.134559
     51          6           0        7.638813   -0.174011   -1.034966
     52          6           0        8.896573   -0.099433   -0.143151
     53          6           0       10.155041   -0.540349   -0.774763
     54          6           0       10.083125   -2.041504   -1.184044
     55          6           0       11.351053   -0.297275    0.035782
     56          6           0       12.773519   -0.596788   -0.632612
     57          6           0       13.968316   -0.083639    0.196503
     58          6           0       15.430045   -0.214789   -0.437531
     59          6           0       15.693024   -1.640812   -0.721370
     60          6           0       16.452780    0.416633    0.491990
     61          6           0       17.827491    0.542354   -0.226074
     62          6           0       18.772686    1.299866    0.677622
     63          6           0       20.222827    1.305367    0.044148
     64          6           0       20.314120    2.139028   -1.128430
     65          6           0       21.227705    1.886356    1.150478
     66          1           0       -4.205197    3.363672    1.879153
     67          1           0      -10.192874    3.943747   -0.457226
     68          1           0      -10.297317   -2.476502   -1.409137
     69          1           0       -2.844667   -1.149850    2.082947
     70          1           0       -2.187717    1.610632    1.446355
     71          1           0       -2.066516    0.851452    3.613693
     72          1           0       -3.556495    2.339332    3.474576
     73          1           0       -3.928490    0.277079    3.742981
     74          1           0       -2.085598   -1.570956   -0.394623
     75          1           0       -2.228656    0.154062   -0.741962
     76          1           0       -0.360011    0.333856    1.220696
     77          1           0       -0.138855   -1.027535    1.434118
     78          1           0       -5.890148    6.708569    0.809093
     79          1           0       -5.545676    6.183255    2.312288
     80          1           0       -4.425716    5.643515    0.755010
     81          1           0       -9.402907    5.846072   -0.648770
     82          1           0       -8.967137    8.049687    0.454625
     83          1           0       -7.900154    7.537227    1.665640
     84          1           0      -11.779553    3.217386   -2.177275
     85          1           0      -13.278610    2.102439   -1.900902
     86          1           0      -12.478887    3.116006   -0.592497
     87          1           0      -12.539667   -1.661420   -1.068935
     88          1           0      -13.110919    0.026123   -1.637128
     89          1           0      -13.069334   -1.849685   -3.465397
     90          1           0      -12.244319   -0.339709   -3.918276
     91          1           0      -11.360588   -1.727658   -3.447468
     92          1           0       -9.074702   -4.620184   -1.903367
     93          1           0       -8.155740   -5.771670   -0.919276
     94          1           0       -9.674679   -4.826917   -0.476599
     95          1           0       -3.377554   -3.526745   -0.165653
     96          1           0       -1.311105   -4.437856    3.400022
     97          1           0       -2.845012   -5.433537    3.594308
     98          1           0       -1.768634   -6.207784    2.627136
     99          1           0        2.774526   -1.486207   -1.691669
    100          1           0        2.584116    0.403306   -2.081819
    101          1           0        4.324444   -0.908914    0.477448
    102          1           0        4.333066    1.348847   -2.615418
    103          1           0        5.741365    2.287102   -2.175044
    104          1           0        5.886143    0.506534   -2.993155
    105          1           0        6.688013    1.440773    0.284660
    106          1           0        6.439530   -0.021355    0.818819
    107          1           0        7.459697   -1.188681   -1.357637
    108          1           0        7.677716    0.327828   -1.850774
    109          1           0        9.153630    0.796063    0.365641
    110          1           0        8.753376   -0.617872    0.734903
    111          1           0       10.231521    0.193316   -1.735202
    112          1           0        9.450135   -2.356703   -1.874392
    113          1           0       11.089510   -2.328175   -1.759943
    114          1           0        9.812190   -2.677581   -0.112562
    115          1           0       11.470441    0.862728    0.319333
    116          1           0       11.272664   -0.976803    1.033044
    117          1           0       13.028656   -1.692354   -0.690646
    118          1           0       12.889357   -0.120409   -1.666265
    119          1           0       13.772464    1.075331    0.319496
    120          1           0       14.183619   -0.506928    1.049179
    121          1           0       15.371698    0.477737   -1.222511
    122          1           0       15.380638   -2.187886    0.229314
    123          1           0       14.902026   -1.904682   -1.438954
    124          1           0       16.720513   -1.841096   -1.111674
    125          1           0       16.005890    1.263922    0.647835
    126          1           0       16.355310   -0.188872    1.330305
    127          1           0       18.062994   -0.532970   -0.366670
    128          1           0       17.747731    1.050686   -1.125290
    129          1           0       18.439503    2.295748    0.977646
    130          1           0       19.003044    1.030015    1.806798
    131          1           0       20.516647    0.289797   -0.064558
    132          1           0       20.206587    3.294452   -0.755991
    133          1           0       21.298675    1.924837   -1.730278
    134          1           0       19.312255    2.153221   -1.897942
    135          1           0       21.274811    1.348318    2.111814
    136          1           0       22.346894    1.736285    0.701178
    137          1           0       20.913604    3.004797    1.205060
 ---------------------------------------------------------------------

 SCF Done:  E(RCAM-B3LYP) =  -2933.46477143     A.U. after   15 cycles

 Excitation energies and oscillator strengths:

 Excited State   1:      Singlet-A      2.0860 eV  594.38 nm  f=0.2125  <S**2>=0.000
     240 -> 243        0.23222
     241 -> 242        0.65346
 This state for optimization and/or second-order correction.
 Total Energy, E(TD-HF/TD-DFT) =  -2933.38811412
 Copying the excited state density for this state as the 1-particle RhoCI density.

 The electronic state is 1-A.
 Alpha  occ. eigenvalues --  -46.79730 -19.23523 -19.21888 -19.17203 -19.16826
 Alpha  occ. eigenvalues --  -19.15856 -14.36713 -14.35661 -14.35174 -14.33928
 Alpha  occ. eigenvalues --  -10.35223 -10.34286 -10.31369 -10.29043 -10.27434
 Alpha  occ. eigenvalues --  -10.26239 -10.26038 -10.25074 -10.24994 -10.24982
 Alpha  occ. eigenvalues --  -10.24926 -10.24767 -10.24677 -10.24481 -10.24223
 Alpha  occ. eigenvalues --  -10.24035 -10.23939 -10.23716 -10.23560 -10.23481
 Alpha  occ. eigenvalues --  -10.23389 -10.23057 -10.23001 -10.22977 -10.22829
 Alpha  occ. eigenvalues --  -10.22756 -10.22755 -10.22665 -10.22559 -10.22488
 Alpha  occ. eigenvalues --  -10.22434 -10.22384 -10.22314 -10.22161 -10.22104
 Alpha  occ. eigenvalues --  -10.22027 -10.21980 -10.21757 -10.21727 -10.21706
 Alpha  occ. eigenvalues --  -10.21496 -10.21307 -10.21097 -10.21056 -10.20606
 Alpha  occ. eigenvalues --  -10.20562 -10.20558 -10.20512 -10.20377 -10.20344
 Alpha  occ. eigenvalues --  -10.20127 -10.19922 -10.19587 -10.19300 -10.17812
 Alpha  occ. eigenvalues --   -3.08187  -1.83146  -1.82637  -1.82594  -1.13600
 Alpha  occ. eigenvalues --   -1.12415  -1.05336  -1.04239  -1.02468  -0.98971
 Alpha  occ. eigenvalues --   -0.98206  -0.97636  -0.96554  -0.87261  -0.86303
 Alpha  occ. eigenvalues --   -0.85785  -0.85348  -0.84777  -0.84120  -0.83678
 Alpha  occ. eigenvalues --   -0.83484  -0.82740  -0.82313  -0.82043  -0.80581
 Alpha  occ. eigenvalues --   -0.79985  -0.79422  -0.78853  -0.78157  -0.77807
 Alpha  occ. eigenvalues --   -0.76976  -0.76333  -0.75912  -0.74874  -0.73924
 Alpha  occ. eigenvalues --   -0.73147  -0.72229  -0.71652  -0.71317  -0.70894
 Alpha  occ. eigenvalues --   -0.70294  -0.70055  -0.68899  -0.68698  -0.68206
 Alpha  occ. eigenvalues --   -0.66695  -0.65665  -0.64663  -0.64328  -0.64139
 Alpha  occ. eigenvalues --   -0.63836  -0.62949  -0.61406  -0.61378  -0.60782
 Alpha  occ. eigenvalues --   -0.60068  -0.59355  -0.58735  -0.58249  -0.58130
 Alpha  occ. eigenvalues --   -0.57364  -0.56590  -0.56386  -0.55841  -0.55171
 Alpha  occ. eigenvalues --   -0.54465  -0.54087  -0.53901  -0.53333  -0.52826
 Alpha  occ. eigenvalues --   -0.52097  -0.51951  -0.51472  -0.51309  -0.50884
 Alpha  occ. eigenvalues --   -0.50679  -0.50429  -0.49856  -0.49548  -0.49288
 Alpha  occ. eigenvalues --   -0.48944  -0.48691  -0.48286  -0.48085  -0.47696
 Alpha  occ. eigenvalues --   -0.47350  -0.47159  -0.46884  -0.46786  -0.46535
 Alpha  occ. eigenvalues --   -0.46469  -0.46254  -0.46161  -0.45834  -0.45757
 Alpha  occ. eigenvalues --   -0.45588  -0.45456  -0.45233  -0.45132  -0.44753
 Alpha  occ. eigenvalues --   -0.44478  -0.44370  -0.44185  -0.43939  -0.43415
 Alpha  occ. eigenvalues --   -0.43193  -0.42796  -0.42686  -0.42634  -0.42573
 Alpha  occ. eigenvalues --   -0.42091  -0.41996  -0.41728  -0.41612  -0.41436
 Alpha  occ. eigenvalues --   -0.41271  -0.41224  -0.41072  -0.40926  -0.40629
 Alpha  occ. eigenvalues --   -0.40420  -0.40244  -0.40018  -0.39971  -0.39692
 Alpha  occ. eigenvalues --   -0.39626  -0.39496  -0.39424  -0.39314  -0.39156
 Alpha  occ. eigenvalues --   -0.39009  -0.38816  -0.38690  -0.38085  -0.38006
 Alpha  occ. eigenvalues --   -0.37957  -0.37755  -0.37283  -0.37064  -0.36929
 Alpha  occ. eigenvalues --   -0.36905  -0.36853  -0.36324  -0.35944  -0.35934
 Alpha  occ. eigenvalues --   -0.35366  -0.35166  -0.34938  -0.34685  -0.34525
 Alpha  occ. eigenvalues --   -0.34190  -0.34095  -0.33885  -0.33431  -0.33276
 Alpha  occ. eigenvalues --   -0.33104  -0.32885  -0.32763  -0.32702  -0.32402
 Alpha  occ. eigenvalues --   -0.32143  -0.31252  -0.30921  -0.30557  -0.29940
 Alpha  occ. eigenvalues --   -0.29752  -0.29491  -0.29213  -0.28685  -0.27123
 Alpha  occ. eigenvalues --   -0.26640  -0.26357  -0.24975  -0.24419  -0.21804
 Alpha  occ. eigenvalues --   -0.20768
 Alpha virt. eigenvalues --   -0.07602  -0.04341  -0.00231   0.01765   0.03298
 Alpha virt. eigenvalues --    0.03524   0.04198   0.04816   0.05463   0.05761
 Alpha virt. eigenvalues --    0.06728   0.08504   0.09396   0.09936   0.10232

 Mulliken charges:
               1
     1  Mg   0.802776
     2  C    0.099752
     3  C   -0.199098
     4  C   -0.156602
     5  C   -0.175406
     6  N   -0.638331
     7  C    0.251910
     8  C   -0.164050
     9  C   -0.156849
    10  C    0.400921
    11  C   -0.279142
    12  C   -0.152197
    13  C   -0.274292
    14  C    0.639588
    15  O   -0.503596
    16  O   -0.474580
    17  N   -0.703046
    18  C    0.315186
    19  C    0.008586
    20  C    0.080635
    21  C    0.275521
    22  C   -0.391559
    23  C   -0.102952
    24  C   -0.253799
    25  N   -0.748539
    26  C    0.361581
    27  C    0.013216
    28  C   -0.000435
    29  C    0.301176
    30  C   -0.392252
    31  C   -0.208956
    32  C   -0.305014
    33  N   -0.735723
    34  C    0.285494
    35  C    0.048749
    36  C   -0.052208
    37  C    0.312920
    38  C   -0.375830
    39  C    0.384648
    40  O   -0.465844
    41  C   -0.317975
    42  C    0.613598
    43  O   -0.483989
    44  O   -0.430586
    45  C   -0.085662
    46  C    0.008833
    47  C   -0.130644
    48  C    0.090769
    49  C   -0.325406
    50  C   -0.229131
    51  C   -0.174912
    52  C   -0.165822
    53  C   -0.040702
    54  C   -0.286952
    55  C   -0.150330
    56  C   -0.178369
    57  C   -0.178711
    58  C   -0.094623
    59  C   -0.303974
    60  C   -0.155516
    61  C   -0.167698
    62  C   -0.170671
    63  C   -0.047573
    64  C   -0.265426
    65  C   -0.304276
    66  H    0.072764
    67  H    0.091990
    68  H    0.094578
    69  H    0.125744
    70  H    0.106067
    71  H    0.108377
    72  H    0.095104
    73  H    0.099805
    74  H    0.106073
    75  H    0.114521
    76  H    0.134995
    77  H    0.117071
    78  H    0.129491
    79  H    0.111181
    80  H    0.101884
    81  H    0.100003
    82  H    0.104787
    83  H    0.103434
    84  H    0.106454
    85  H    0.110767
    86  H    0.120546
    87  H    0.077124
    88  H    0.101671
    89  H    0.084427
    90  H    0.105730
    91  H    0.101934
    92  H    0.130626
    93  H    0.145998
    94  H    0.135475
    95  H    0.168703
    96  H    0.121149
    97  H    0.151557
    98  H    0.127693
    99  H    0.149646
   100  H    0.118110
   101  H    0.096142
   102  H    0.113786
   103  H    0.093285
   104  H    0.119924
   105  H    0.099463
   106  H    0.096942
   107  H    0.102941
   108  H    0.110085
   109  H    0.084963
   110  H    0.089354
   111  H    0.054732
   112  H    0.115845
   113  H    0.085052
   114  H    0.064252
   115  H    0.072689
   116  H    0.069190
   117  H    0.096135
   118  H    0.085595
   119  H    0.058362
   120  H    0.096951
   121  H    0.080919
   122  H    0.089522
   123  H    0.105990
   124  H    0.100329
   125  H    0.092649
   126  H    0.086429
   127  H    0.094864
   128  H    0.105025
   129  H    0.088627
   130  H    0.069109
   131  H    0.096532
   132  H    0.078291
   133  H    0.095245
   134  H    0.066929
   135  H    0.105700
   136  H    0.072584
   137  H    0.093469
 Sum of Mulliken charges =  -0.00000

 Dipole moment (field-independent basis, Debye):
    X=              1.8818    Y=              3.3547    Z=              0.6797  Tot=              3.9060
 Quadrupole moment (field-independent basis, Debye-Ang):
   XX=           -368.7013   YY=           -385.9063   ZZ=           -397.7592
   XY=            -25.3902   XZ=              8.1709   YZ=             -2.4701

 Normal termination of Gaussian 16 at Wed Sep 11 15:55:19 2019.
