 Gaussian 16, Revision A.03,
 Gaussian 16:  ES64L-G16RevA.03 25-Dec-2016

 -------------------------------------
 # td=(NStates=1) CAM-B3LYP/6-31G(d,p)
 -------------------------------------

 --
 TD
 --
 Symbolic Z-matrix:
 Charge =  0 Multiplicity = 1

                         Standard orientation:
 ---------------------------------------------------------------------
 Center     Atomic      Atomic             Coordinates (Angstroms)
 Number     Number       Type             X           Y           Z
 ---------------------------------------------------------------------
      1         12           0       -7.074881    0.589682    0.109255
      2          6           0       -4.865687   -1.923970    0.531012
      3          6           0       -4.747367    2.792654    1.062629
      4          6           0       -9.364532    3.097062   -0.315016
      5          6           0       -9.439144   -1.696313   -0.880386
      6          7           0       -5.127992    0.391790    0.791125
      7          6           0       -4.281606   -0.707957    0.778360
      8          6           0       -2.891262   -0.398282    1.091430
      9          6           0       -2.996575    1.004773    1.616607
     10          6           0       -4.354832    1.491095    1.096786
     11          6           0       -2.888036    1.084526    3.183723
     12          6           0       -1.991333   -0.561597   -0.144114
     13          6           0       -0.524017   -0.320566    0.300299
     14          6           0        0.507413   -0.614288   -0.788875
     15          8           0        0.183847   -0.875608   -1.915924
     16          8           0        1.769302   -0.434656   -0.388647
     17          7           0       -7.103978    2.632736    0.390845
     18          6           0       -6.034615    3.364863    0.769021
     19          6           0       -6.349865    4.759633    0.776660
     20          6           0       -7.700309    4.817464    0.358029
     21          6           0       -8.119104    3.414905    0.171191
     22          6           0       -5.368471    5.826702    1.249959
     23          6           0       -8.466731    5.949220    0.199543
     24          6           0       -8.406039    7.103680    0.846717
     25          7           0       -9.111179    0.695710   -0.557488
     26          6           0       -9.857780    1.785413   -0.659527
     27          6           0      -11.230563    1.501307   -0.962480
     28          6           0      -11.298597    0.119178   -1.164462
     29          6           0       -9.931699   -0.399197   -0.739915
     30          6           0      -12.275630    2.497141   -1.263575
     31          6           0      -12.359829   -0.725233   -1.634889
     32          6           0      -12.380211   -1.009603   -3.105173
     33          7           0       -7.279265   -1.313741   -0.151968
     34          6           0       -8.224129   -2.212427   -0.608109
     35          6           0       -7.808106   -3.655138   -0.612929
     36          6           0       -6.532856   -3.535024   -0.104027
     37          6           0       -6.196580   -2.175145    0.078091
     38          6           0       -8.611302   -4.868242   -0.700979
     39          6           0       -5.312573   -4.379884    0.221826
     40          8           0       -5.217284   -5.538586    0.140090
     41          6           0       -4.192416   -3.270499    0.582587
     42          6           0       -3.658887   -3.764167    1.934790
     43          8           0       -3.708846   -3.258700    3.036288
     44          8           0       -2.761788   -4.731152    1.684847
     45          6           0       -2.196585   -5.337881    2.854681
     46          6           0        2.827094   -0.505968   -1.354512
     47          6           0        4.128119   -0.360215   -0.633391
     48          6           0        5.153987    0.430744   -1.062575
     49          6           0        5.057444    1.201737   -2.319085
     50          6           0        6.336913    0.550206   -0.250952
     51          6           0        7.557355   -0.096190   -0.976627
     52          6           0        8.828656   -0.070808   -0.051973
     53          6           0       10.086609   -0.536718   -0.928138
     54          6           0       10.136524   -2.004370   -1.142137
     55          6           0       11.364943   -0.149893   -0.043045
     56          6           0       12.758431   -0.547822   -0.681906
     57          6           0       13.915718    0.043720    0.245553
     58          6           0       15.324788   -0.155524   -0.478325
     59          6           0       15.664300   -1.630610   -0.809084
     60          6           0       16.412089    0.455243    0.435877
     61          6           0       17.815124    0.521445   -0.074723
     62          6           0       18.784098    1.253008    0.782305
     63          6           0       20.207872    1.235188    0.243233
     64          6           0       20.529562    1.881363   -1.026756
     65          6           0       21.141262    1.740900    1.372175
     66          1           0       -4.078108    3.569031    1.325937
     67          1           0      -10.278916    3.892431   -0.444571
     68          1           0      -10.065235   -2.578428   -1.337225
     69          1           0       -2.383870   -0.957569    1.952705
     70          1           0       -2.223742    1.736319    1.402481
     71          1           0       -1.740870    0.953306    3.388035
     72          1           0       -3.025017    2.143266    3.460210
     73          1           0       -3.607627    0.334911    3.558725
     74          1           0       -1.962243   -1.589984   -0.456680
     75          1           0       -2.274472    0.065378   -0.932815
     76          1           0       -0.340030    0.888468    0.447126
     77          1           0       -0.345486   -0.708549    1.183618
     78          1           0       -5.592287    6.843557    0.916960
     79          1           0       -5.602474    5.946762    2.212050
     80          1           0       -4.240558    5.515067    0.920993
     81          1           0       -9.231642    5.942291   -0.720300
     82          1           0       -9.049179    7.791842    0.576821
     83          1           0       -7.799349    7.116450    1.663756
     84          1           0      -11.833518    2.961983   -2.191945
     85          1           0      -13.091551    1.823133   -1.774401
     86          1           0      -12.542009    3.088123   -0.502637
     87          1           0      -12.292461   -1.609785   -1.189238
     88          1           0      -13.227160   -0.108640   -1.445794
     89          1           0      -13.181209   -1.558416   -3.292841
     90          1           0      -12.230297   -0.049919   -3.641000
     91          1           0      -11.484576   -1.594326   -3.421518
     92          1           0       -9.105635   -5.143473   -1.682191
     93          1           0       -7.970349   -5.766244   -0.420933
     94          1           0       -9.568775   -4.766524   -0.090766
     95          1           0       -3.405972   -3.648594   -0.058097
     96          1           0       -1.534723   -4.816943    3.334560
     97          1           0       -2.939737   -5.698980    3.740049
     98          1           0       -1.806466   -6.398724    2.436128
     99          1           0        2.711985   -1.491778   -1.921005
    100          1           0        2.697495    0.237209   -2.231907
    101          1           0        4.108366   -1.033087    0.347458
    102          1           0        3.999579    1.370843   -2.604810
    103          1           0        5.390791    2.179861   -1.957965
    104          1           0        5.592145    0.722125   -2.986526
    105          1           0        6.536998    1.699605    0.030216
    106          1           0        6.092247    0.154523    0.706713
    107          1           0        7.396632   -1.093591   -1.458627
    108          1           0        7.595468    0.480360   -1.920170
    109          1           0        9.055301    0.977854    0.195958
    110          1           0        8.615278   -0.711334    0.805632
    111          1           0       10.234558    0.013038   -1.920299
    112          1           0        9.201232   -2.233065   -1.603918
    113          1           0       11.134733   -2.582001   -1.685971
    114          1           0       10.149716   -2.413982   -0.242529
    115          1           0       11.356723    1.164573   -0.139398
    116          1           0       11.316467   -0.474655    1.000392
    117          1           0       12.985257   -1.687483   -0.803396
    118          1           0       13.006297   -0.147718   -1.760155
    119          1           0       13.787135    0.982283    0.518570
    120          1           0       13.921489   -0.229491    1.287379
    121          1           0       15.100678    0.354819   -1.371182
    122          1           0       15.633791   -2.380752    0.338384
    123          1           0       14.943823   -2.132184   -1.481885
    124          1           0       16.768891   -1.822853   -1.160266
    125          1           0       15.928450    1.548426    0.648225
    126          1           0       16.431840    0.011463    1.464689
    127          1           0       18.296095   -0.521933   -0.209741
    128          1           0       17.770910    0.759615   -1.095160
    129          1           0       18.494057    2.294655    0.959324
    130          1           0       18.669828    0.819699    1.668928
    131          1           0       20.410391    0.170246    0.004787
    132          1           0       19.946134    2.898381   -1.165545
    133          1           0       21.391879    2.277203   -1.184840
    134          1           0       20.183086    1.237451   -1.935162
    135          1           0       20.816128    1.510953    2.475212
    136          1           0       22.272905    1.435875    1.307531
    137          1           0       21.158190    2.967763    1.499566
 ---------------------------------------------------------------------

 SCF Done:  E(RCAM-B3LYP) =  -2932.64528336     A.U. after   18 cycles

 Excitation energies and oscillator strengths:

 Excited State   1:      Singlet-A      2.0555 eV  603.18 nm  f=0.2450  <S**2>=0.000
     240 -> 243        0.25356
     241 -> 242        0.64968
 This state for optimization and/or second-order correction.
 Total Energy, E(TD-HF/TD-DFT) =  -2932.56974460
 Copying the excited state density for this state as the 1-particle RhoCI density.

 The electronic state is 1-A.
 Alpha  occ. eigenvalues --  -46.83995 -19.26246 -19.26190 -19.21895 -19.20423
 Alpha  occ. eigenvalues --  -19.20384 -14.41204 -14.39565 -14.39122 -14.38823
 Alpha  occ. eigenvalues --  -10.38925 -10.38808 -10.35827 -10.32364 -10.31606
 Alpha  occ. eigenvalues --  -10.30471 -10.30255 -10.29650 -10.29349 -10.28809
 Alpha  occ. eigenvalues --  -10.28705 -10.28569 -10.28429 -10.28368 -10.28156
 Alpha  occ. eigenvalues --  -10.27908 -10.27758 -10.27646 -10.27551 -10.27543
 Alpha  occ. eigenvalues --  -10.27343 -10.27296 -10.27254 -10.27008 -10.27006
 Alpha  occ. eigenvalues --  -10.26970 -10.26928 -10.26927 -10.26726 -10.26711
 Alpha  occ. eigenvalues --  -10.26681 -10.26667 -10.26666 -10.26645 -10.26606
 Alpha  occ. eigenvalues --  -10.26412 -10.26346 -10.26171 -10.26150 -10.26066
 Alpha  occ. eigenvalues --  -10.26043 -10.25913 -10.25634 -10.25392 -10.25253
 Alpha  occ. eigenvalues --  -10.24996 -10.24867 -10.24390 -10.24293 -10.24211
 Alpha  occ. eigenvalues --  -10.23988 -10.23897 -10.23824 -10.23768 -10.23485
 Alpha  occ. eigenvalues --   -3.13150  -1.87843  -1.87391  -1.87346  -1.18592
 Alpha  occ. eigenvalues --   -1.18543  -1.14991  -1.09548  -1.08443  -1.05348
 Alpha  occ. eigenvalues --   -1.03912  -1.03148  -1.02108  -0.92378  -0.92319
 Alpha  occ. eigenvalues --   -0.90845  -0.90623  -0.89867  -0.89755  -0.89383
 Alpha  occ. eigenvalues --   -0.88453  -0.88167  -0.87804  -0.87030  -0.86048
 Alpha  occ. eigenvalues --   -0.85020  -0.84483  -0.84267  -0.83497  -0.83084
 Alpha  occ. eigenvalues --   -0.81829  -0.81096  -0.80388  -0.79927  -0.78356
 Alpha  occ. eigenvalues --   -0.78306  -0.77256  -0.77125  -0.76152  -0.75818
 Alpha  occ. eigenvalues --   -0.75286  -0.74496  -0.73674  -0.73179  -0.72261
 Alpha  occ. eigenvalues --   -0.71608  -0.70784  -0.70140  -0.68854  -0.68477
 Alpha  occ. eigenvalues --   -0.67179  -0.66937  -0.65388  -0.64963  -0.64566
 Alpha  occ. eigenvalues --   -0.64461  -0.64078  -0.63555  -0.63318  -0.62202
 Alpha  occ. eigenvalues --   -0.61968  -0.61113  -0.60142  -0.59535  -0.59114
 Alpha  occ. eigenvalues --   -0.58427  -0.58243  -0.57686  -0.57447  -0.57061
 Alpha  occ. eigenvalues --   -0.56446  -0.55810  -0.55587  -0.55068  -0.54595
 Alpha  occ. eigenvalues --   -0.54477  -0.54284  -0.53792  -0.53292  -0.52939
 Alpha  occ. eigenvalues --   -0.52781  -0.52686  -0.52558  -0.52318  -0.52106
 Alpha  occ. eigenvalues --   -0.51939  -0.51677  -0.51260  -0.51187  -0.50973
 Alpha  occ. eigenvalues --   -0.50778  -0.50640  -0.50546  -0.50405  -0.49776
 Alpha  occ. eigenvalues --   -0.49508  -0.49231  -0.48922  -0.48830  -0.48698
 Alpha  occ. eigenvalues --   -0.48380  -0.48054  -0.47916  -0.47663  -0.46980
 Alpha  occ. eigenvalues --   -0.46822  -0.46682  -0.46385  -0.46090  -0.45951
 Alpha  occ. eigenvalues --   -0.45790  -0.45660  -0.45541  -0.45337  -0.45310
 Alpha  occ. eigenvalues --   -0.45012  -0.44862  -0.44562  -0.44481  -0.44331
 Alpha  occ. eigenvalues --   -0.44115  -0.43860  -0.43542  -0.43236  -0.43096
 Alpha  occ. eigenvalues --   -0.42956  -0.42734  -0.42386  -0.42178  -0.42078
 Alpha  occ. eigenvalues --   -0.41922  -0.41816  -0.41610  -0.41552  -0.41124
 Alpha  occ. eigenvalues --   -0.41032  -0.40995  -0.40925  -0.40613  -0.40333
 Alpha  occ. eigenvalues --   -0.40171  -0.40083  -0.39758  -0.39549  -0.39444
 Alpha  occ. eigenvalues --   -0.39096  -0.39052  -0.38713  -0.38676  -0.38468
 Alpha  occ. eigenvalues --   -0.37878  -0.37826  -0.37676  -0.36963  -0.36698
 Alpha  occ. eigenvalues --   -0.36196  -0.36033  -0.35997  -0.35846  -0.35648
 Alpha  occ. eigenvalues --   -0.35368  -0.35156  -0.34985  -0.33451  -0.33364
 Alpha  occ. eigenvalues --   -0.33103  -0.32663  -0.32312  -0.30599  -0.30141
 Alpha  occ. eigenvalues --   -0.29656  -0.28950  -0.27385  -0.27043  -0.22934
 Alpha  occ. eigenvalues --   -0.20930
 Alpha virt. eigenvalues --   -0.06025  -0.02904   0.02013   0.04660   0.05925
 Alpha virt. eigenvalues --    0.06100   0.06354   0.06940   0.07094   0.07945
 Alpha virt. eigenvalues --    0.08133   0.10433   0.11089   0.11123   0.11545

 Mulliken charges:
               1
     1  Mg   0.820824
     2  C    0.042727
     3  C   -0.214139
     4  C   -0.180268
     5  C   -0.194953
     6  N   -0.666425
     7  C    0.333655
     8  C   -0.172215
     9  C   -0.152668
    10  C    0.380637
    11  C   -0.302694
    12  C   -0.152787
    13  C   -0.255390
    14  C    0.598498
    15  O   -0.469372
    16  O   -0.468755
    17  N   -0.713834
    18  C    0.304517
    19  C    0.013506
    20  C    0.000082
    21  C    0.367577
    22  C   -0.366107
    23  C   -0.122653
    24  C   -0.203968
    25  N   -0.647099
    26  C    0.315355
    27  C   -0.017157
    28  C    0.031839
    29  C    0.238272
    30  C   -0.363074
    31  C   -0.234378
    32  C   -0.302054
    33  N   -0.721376
    34  C    0.255658
    35  C    0.076267
    36  C   -0.028749
    37  C    0.297535
    38  C   -0.406154
    39  C    0.373012
    40  O   -0.407346
    41  C   -0.359278
    42  C    0.609713
    43  O   -0.478568
    44  O   -0.439968
    45  C   -0.075506
    46  C    0.010280
    47  C   -0.127888
    48  C    0.091495
    49  C   -0.341325
    50  C   -0.217704
    51  C   -0.196222
    52  C   -0.173585
    53  C   -0.070033
    54  C   -0.281657
    55  C   -0.164014
    56  C   -0.180602
    57  C   -0.179441
    58  C   -0.051928
    59  C   -0.278931
    60  C   -0.168045
    61  C   -0.187262
    62  C   -0.146067
    63  C   -0.040966
    64  C   -0.292916
    65  C   -0.313449
    66  H    0.059824
    67  H    0.092729
    68  H    0.078133
    69  H    0.125217
    70  H    0.098324
    71  H    0.094117
    72  H    0.112851
    73  H    0.138360
    74  H    0.128306
    75  H    0.129083
    76  H    0.105898
    77  H    0.131087
    78  H    0.121072
    79  H    0.147970
    80  H    0.106466
    81  H    0.077226
    82  H    0.094050
    83  H    0.087538
    84  H    0.128212
    85  H    0.097459
    86  H    0.132883
    87  H    0.110221
    88  H    0.100180
    89  H    0.115679
    90  H    0.100945
    91  H    0.098980
    92  H    0.120650
    93  H    0.150749
    94  H    0.130069
    95  H    0.177447
    96  H    0.139995
    97  H    0.108533
    98  H    0.107754
    99  H    0.119353
   100  H    0.106940
   101  H    0.088494
   102  H    0.110251
   103  H    0.113103
   104  H    0.138674
   105  H    0.079065
   106  H    0.107076
   107  H    0.102184
   108  H    0.097909
   109  H    0.105995
   110  H    0.107050
   111  H    0.086214
   112  H    0.095340
   113  H    0.073891
   114  H    0.115013
   115  H    0.040150
   116  H    0.103174
   117  H    0.092255
   118  H    0.080078
   119  H    0.098095
   120  H    0.081885
   121  H    0.099393
   122  H    0.033952
   123  H    0.104076
   124  H    0.098284
   125  H    0.061077
   126  H    0.089455
   127  H    0.073957
   128  H    0.098870
   129  H    0.086732
   130  H    0.104157
   131  H    0.089206
   132  H    0.072415
   133  H    0.122629
   134  H    0.087648
   135  H    0.090120
   136  H    0.093002
   137  H    0.072351
 Sum of Mulliken charges =  -0.00000

 Dipole moment (field-independent basis, Debye):
    X=              1.8493    Y=              3.4901    Z=              0.1360  Tot=              3.9521
 Quadrupole moment (field-independent basis, Debye-Ang):
   XX=           -359.5406   YY=           -390.0497   ZZ=           -399.5989
   XY=            -10.6639   XZ=              9.5833   YZ=              1.3814

 Normal termination of Gaussian 16 at Thu Jun 27 12:44:20 2019.
