 Gaussian 16, Revision A.03,
 Gaussian 16:  ES64L-G16RevA.03 25-Dec-2016

 ----------------------------------------------------------------------
 # td=(NStates=1) iop(3/107=0140000000,3/108=0140000000) CAM-B3LYP/6-31
 G(d,p)
 ----------------------------------------------------------------------

 --
 TD
 --
 Symbolic Z-matrix:
 Charge =  0 Multiplicity = 1

                         Standard orientation:
 ---------------------------------------------------------------------
 Center     Atomic      Atomic             Coordinates (Angstroms)
 Number     Number       Type             X           Y           Z
 ---------------------------------------------------------------------
      1         12           0       -7.065067    0.653537    0.081999
      2          6           0       -4.937126   -1.920372    0.584506
      3          6           0       -4.740163    2.887649    1.118277
      4          6           0       -9.406279    3.271204   -0.378954
      5          6           0       -9.538457   -1.668687   -0.932770
      6          7           0       -5.107063    0.486496    0.632095
      7          6           0       -4.374226   -0.696820    0.740993
      8          6           0       -2.950998   -0.363907    1.171552
      9          6           0       -3.025668    1.106065    1.678988
     10          6           0       -4.281295    1.549743    1.103923
     11          6           0       -3.040031    1.013460    3.281558
     12          6           0       -1.885477   -0.652433    0.014737
     13          6           0       -0.403415   -0.392508    0.404966
     14          6           0        0.507758   -0.616850   -0.721794
     15          8           0        0.291317   -1.128723   -1.836154
     16          8           0        1.817914   -0.455941   -0.339538
     17          7           0       -7.012227    2.622569    0.285685
     18          6           0       -5.950675    3.352838    0.762968
     19          6           0       -6.273451    4.746029    0.761735
     20          6           0       -7.646035    4.841886    0.350846
     21          6           0       -8.066275    3.512206   -0.007814
     22          6           0       -5.456882    5.867148    1.276576
     23          6           0       -8.404784    6.062747    0.153615
     24          6           0       -8.296313    7.182821    0.857002
     25          7           0       -9.024197    0.777870   -0.574523
     26          6           0       -9.792375    1.916981   -0.631101
     27          6           0      -11.154321    1.549000   -1.182442
     28          6           0      -11.204844    0.187297   -1.149164
     29          6           0       -9.878289   -0.232012   -0.852349
     30          6           0      -12.287701    2.488265   -1.455199
     31          6           0      -12.449625   -0.787167   -1.596451
     32          6           0      -12.270432   -1.189972   -3.096960
     33          7           0       -7.203785   -1.383005   -0.202518
     34          6           0       -8.267230   -2.168861   -0.511537
     35          6           0       -7.881460   -3.569756   -0.437294
     36          6           0       -6.494814   -3.537486   -0.052310
     37          6           0       -6.208683   -2.144343    0.118802
     38          6           0       -8.639642   -4.777998   -0.762133
     39          6           0       -5.333014   -4.410244    0.243765
     40          8           0       -5.210842   -5.626228    0.119390
     41          6           0       -4.224475   -3.340106    0.531986
     42          6           0       -3.607022   -3.790705    1.918018
     43          8           0       -3.758513   -3.158295    2.936427
     44          8           0       -2.776983   -4.815231    1.719816
     45          6           0       -2.318779   -5.346485    3.047113
     46          6           0        2.847561   -0.886894   -1.171838
     47          6           0        4.115555   -0.544203   -0.570401
     48          6           0        5.096366    0.235056   -1.012297
     49          6           0        4.957859    1.138599   -2.124342
     50          6           0        6.422022    0.444188   -0.247798
     51          6           0        7.625138   -0.185045   -1.016869
     52          6           0        8.923508   -0.069736   -0.163856
     53          6           0       10.171178   -0.596400   -0.926432
     54          6           0       10.088644   -2.069327   -1.337456
     55          6           0       11.357895   -0.233434   -0.092950
     56          6           0       12.730641   -0.482862   -0.644122
     57          6           0       13.898185   -0.053565    0.330639
     58          6           0       15.279176   -0.178005   -0.496088
     59          6           0       15.609581   -1.586250   -0.948804
     60          6           0       16.388350    0.573699    0.395078
     61          6           0       17.808936    0.499496   -0.180082
     62          6           0       18.785104    1.189552    0.765779
     63          6           0       20.184485    1.343362    0.266587
     64          6           0       20.259056    2.321523   -0.919304
     65          6           0       21.018381    1.846454    1.389786
     66          1           0       -3.909951    3.589350    1.529921
     67          1           0      -10.231824    3.946771   -0.602097
     68          1           0      -10.171261   -2.347294   -1.161381
     69          1           0       -2.699938   -0.908406    2.179808
     70          1           0       -2.218550    1.921679    1.168161
     71          1           0       -2.005600    0.998805    3.642418
     72          1           0       -3.594289    1.829787    3.848156
     73          1           0       -3.682465    0.286722    3.588475
     74          1           0       -1.854047   -1.561007   -0.487893
     75          1           0       -2.099510   -0.086576   -0.875672
     76          1           0       -0.242767    0.556130    1.030650
     77          1           0       -0.154691   -1.243932    1.163174
     78          1           0       -5.756111    6.788719    0.668376
     79          1           0       -5.598940    6.319109    2.268283
     80          1           0       -4.385210    5.786930    1.402132
     81          1           0       -9.193717    6.219040   -0.720508
     82          1           0       -9.056246    7.903630    0.350342
     83          1           0       -7.510265    7.523165    1.627071
     84          1           0      -11.913983    3.170917   -2.116638
     85          1           0      -13.182353    2.089668   -1.960004
     86          1           0      -12.744805    3.062269   -0.521204
     87          1           0      -12.247492   -1.573526   -0.927392
     88          1           0      -13.432446   -0.311193   -1.618080
     89          1           0      -13.184106   -1.688421   -3.378244
     90          1           0      -12.262185   -0.356733   -3.835741
     91          1           0      -11.529873   -1.917531   -3.355034
     92          1           0       -9.114106   -4.561799   -1.759189
     93          1           0       -7.985333   -5.719685   -0.742173
     94          1           0       -9.633805   -4.808729   -0.055954
     95          1           0       -3.505210   -3.727542   -0.182028
     96          1           0       -1.524418   -4.710828    3.376665
     97          1           0       -3.198891   -5.518474    3.623803
     98          1           0       -1.821339   -6.477994    2.898565
     99          1           0        2.881016   -2.143762   -1.320391
    100          1           0        2.788411   -0.310622   -2.059252
    101          1           0        4.289394   -1.133250    0.230584
    102          1           0        4.024535    1.287649   -2.670411
    103          1           0        5.296186    2.208572   -2.014313
    104          1           0        5.611078    0.735042   -3.151741
    105          1           0        6.502550    1.489239    0.197220
    106          1           0        6.473255   -0.158072    0.786678
    107          1           0        7.566344   -1.320590   -1.192800
    108          1           0        7.735173    0.322276   -2.075736
    109          1           0        8.908970    1.004093    0.307133
    110          1           0        9.033197   -0.721714    0.746321
    111          1           0       10.391797    0.134640   -1.806583
    112          1           0        9.306744   -2.174713   -1.908350
    113          1           0       11.018106   -2.203977   -2.054512
    114          1           0       10.149454   -3.033753   -0.555871
    115          1           0       11.345568    0.760230    0.181169
    116          1           0       11.253590   -0.765021    0.956363
    117          1           0       12.958567   -1.463782   -0.934131
    118          1           0       12.942755    0.004830   -1.628298
    119          1           0       13.824137    1.051529    0.477992
    120          1           0       14.052557   -0.618754    1.243563
    121          1           0       15.125008    0.240788   -1.397567
    122          1           0       15.896892   -2.280142   -0.034775
    123          1           0       14.643880   -1.993914   -1.359956
    124          1           0       16.550032   -1.509567   -1.678503
    125          1           0       16.191935    1.491470    0.647478
    126          1           0       16.261717   -0.223207    1.081721
    127          1           0       18.203927   -0.632005   -0.326277
    128          1           0       17.862346    0.890609   -1.223207
    129          1           0       18.535737    2.361486    0.971945
    130          1           0       19.008493    0.457197    1.643800
    131          1           0       20.611605    0.324925   -0.196954
    132          1           0       19.734137    3.174543   -0.726130
    133          1           0       21.133525    2.379042   -1.499879
    134          1           0       19.822820    1.846444   -1.699300
    135          1           0       20.987892    1.362351    2.277126
    136          1           0       22.160191    2.077622    1.251892
    137          1           0       20.560032    2.905616    1.785200
 ---------------------------------------------------------------------

 SCF Done:  E(RCAM-B3LYP) =  -2933.47247031     A.U. after   16 cycles

 Excitation energies and oscillator strengths:

 Excited State   1:      Singlet-A      1.9787 eV  626.59 nm  f=0.2442  <S**2>=0.000
     240 -> 243       -0.22849
     241 -> 242        0.66623
 This state for optimization and/or second-order correction.
 Total Energy, E(TD-HF/TD-DFT) =  -2933.39975338
 Copying the excited state density for this state as the 1-particle RhoCI density.

 The electronic state is 1-A.
 Alpha  occ. eigenvalues --  -46.78977 -19.22622 -19.21152 -19.16713 -19.16434
 Alpha  occ. eigenvalues --  -19.15985 -14.37734 -14.35406 -14.35075 -14.34866
 Alpha  occ. eigenvalues --  -10.34949 -10.34292 -10.30290 -10.28325 -10.27203
 Alpha  occ. eigenvalues --  -10.26519 -10.26263 -10.25423 -10.25210 -10.24909
 Alpha  occ. eigenvalues --  -10.24864 -10.24861 -10.24759 -10.24707 -10.24576
 Alpha  occ. eigenvalues --  -10.24133 -10.23688 -10.23678 -10.23344 -10.23316
 Alpha  occ. eigenvalues --  -10.23289 -10.23178 -10.23157 -10.22936 -10.22851
 Alpha  occ. eigenvalues --  -10.22731 -10.22681 -10.22545 -10.22465 -10.22395
 Alpha  occ. eigenvalues --  -10.22369 -10.22207 -10.22152 -10.22110 -10.22047
 Alpha  occ. eigenvalues --  -10.22021 -10.21919 -10.21855 -10.21821 -10.21751
 Alpha  occ. eigenvalues --  -10.21719 -10.21699 -10.21669 -10.21601 -10.21357
 Alpha  occ. eigenvalues --  -10.21008 -10.20646 -10.20612 -10.20341 -10.20331
 Alpha  occ. eigenvalues --  -10.20254 -10.20035 -10.19692 -10.19113 -10.17466
 Alpha  occ. eigenvalues --   -3.07777  -1.82710  -1.82256  -1.82189  -1.12983
 Alpha  occ. eigenvalues --   -1.12560  -1.05099  -1.04283  -1.03029  -1.00291
 Alpha  occ. eigenvalues --   -0.98094  -0.97657  -0.96579  -0.86969  -0.86214
 Alpha  occ. eigenvalues --   -0.85507  -0.85049  -0.84313  -0.83933  -0.83331
 Alpha  occ. eigenvalues --   -0.83277  -0.82469  -0.82350  -0.82118  -0.81061
 Alpha  occ. eigenvalues --   -0.79856  -0.79028  -0.78218  -0.78182  -0.77837
 Alpha  occ. eigenvalues --   -0.76629  -0.76263  -0.75680  -0.75016  -0.73560
 Alpha  occ. eigenvalues --   -0.73365  -0.72690  -0.72460  -0.71317  -0.71145
 Alpha  occ. eigenvalues --   -0.70962  -0.70342  -0.70051  -0.69147  -0.67713
 Alpha  occ. eigenvalues --   -0.67368  -0.66141  -0.65508  -0.64492  -0.63152
 Alpha  occ. eigenvalues --   -0.62238  -0.61787  -0.60784  -0.60431  -0.60320
 Alpha  occ. eigenvalues --   -0.59578  -0.58616  -0.58443  -0.58023  -0.57759
 Alpha  occ. eigenvalues --   -0.57192  -0.57009  -0.56166  -0.55552  -0.54937
 Alpha  occ. eigenvalues --   -0.54416  -0.54239  -0.53838  -0.52728  -0.52479
 Alpha  occ. eigenvalues --   -0.52309  -0.52099  -0.51765  -0.51100  -0.50857
 Alpha  occ. eigenvalues --   -0.50742  -0.50555  -0.50475  -0.49849  -0.49750
 Alpha  occ. eigenvalues --   -0.49519  -0.49012  -0.48633  -0.48433  -0.47826
 Alpha  occ. eigenvalues --   -0.47124  -0.46970  -0.46839  -0.46634  -0.46390
 Alpha  occ. eigenvalues --   -0.46362  -0.46236  -0.46029  -0.45658  -0.45460
 Alpha  occ. eigenvalues --   -0.45295  -0.45005  -0.44876  -0.44751  -0.44549
 Alpha  occ. eigenvalues --   -0.44371  -0.43980  -0.43606  -0.43366  -0.43333
 Alpha  occ. eigenvalues --   -0.43069  -0.42716  -0.42628  -0.42467  -0.42192
 Alpha  occ. eigenvalues --   -0.42116  -0.41933  -0.41693  -0.41599  -0.41409
 Alpha  occ. eigenvalues --   -0.41360  -0.41104  -0.40999  -0.40882  -0.40513
 Alpha  occ. eigenvalues --   -0.40220  -0.40081  -0.39852  -0.39647  -0.39603
 Alpha  occ. eigenvalues --   -0.39496  -0.39471  -0.39249  -0.39118  -0.39080
 Alpha  occ. eigenvalues --   -0.38511  -0.38506  -0.38466  -0.38111  -0.37908
 Alpha  occ. eigenvalues --   -0.37841  -0.37498  -0.37428  -0.37149  -0.37135
 Alpha  occ. eigenvalues --   -0.36992  -0.36462  -0.36336  -0.36021  -0.35462
 Alpha  occ. eigenvalues --   -0.35211  -0.35116  -0.34985  -0.34640  -0.34580
 Alpha  occ. eigenvalues --   -0.34492  -0.34315  -0.34238  -0.33836  -0.33784
 Alpha  occ. eigenvalues --   -0.33339  -0.33141  -0.32902  -0.32797  -0.32395
 Alpha  occ. eigenvalues --   -0.31954  -0.31909  -0.31411  -0.30512  -0.30233
 Alpha  occ. eigenvalues --   -0.30025  -0.29601  -0.29436  -0.28211  -0.26793
 Alpha  occ. eigenvalues --   -0.26558  -0.26401  -0.25902  -0.24578  -0.21865
 Alpha  occ. eigenvalues --   -0.19720
 Alpha virt. eigenvalues --   -0.07029  -0.03963  -0.00051   0.02184   0.02480
 Alpha virt. eigenvalues --    0.03701   0.04331   0.04612   0.05235   0.05867
 Alpha virt. eigenvalues --    0.06797   0.08311   0.09318   0.09820   0.10077

 Mulliken charges:
               1
     1  Mg   0.805982
     2  C    0.094932
     3  C   -0.198766
     4  C   -0.138201
     5  C   -0.113255
     6  N   -0.641070
     7  C    0.299517
     8  C   -0.166231
     9  C   -0.146953
    10  C    0.329934
    11  C   -0.327330
    12  C   -0.183314
    13  C   -0.268736
    14  C    0.608700
    15  O   -0.481919
    16  O   -0.464480
    17  N   -0.749949
    18  C    0.372565
    19  C    0.045259
    20  C    0.001900
    21  C    0.296748
    22  C   -0.404013
    23  C   -0.103025
    24  C   -0.218714
    25  N   -0.666398
    26  C    0.266987
    27  C   -0.003262
    28  C    0.011261
    29  C    0.288197
    30  C   -0.380891
    31  C   -0.208631
    32  C   -0.324823
    33  N   -0.721220
    34  C    0.266919
    35  C    0.019705
    36  C    0.006921
    37  C    0.318375
    38  C   -0.391645
    39  C    0.359740
    40  O   -0.471499
    41  C   -0.331585
    42  C    0.615860
    43  O   -0.475185
    44  O   -0.442127
    45  C   -0.088775
    46  C    0.050304
    47  C   -0.123307
    48  C    0.169557
    49  C   -0.377775
    50  C   -0.238778
    51  C   -0.164584
    52  C   -0.168201
    53  C   -0.062008
    54  C   -0.299248
    55  C   -0.150594
    56  C   -0.196231
    57  C   -0.179122
    58  C   -0.095412
    59  C   -0.303120
    60  C   -0.136213
    61  C   -0.188325
    62  C   -0.136506
    63  C   -0.060682
    64  C   -0.301578
    65  C   -0.282506
    66  H    0.078528
    67  H    0.102385
    68  H    0.047017
    69  H    0.125140
    70  H    0.088781
    71  H    0.121993
    72  H    0.101331
    73  H    0.152420
    74  H    0.135244
    75  H    0.122001
    76  H    0.129975
    77  H    0.141901
    78  H    0.114641
    79  H    0.121999
    80  H    0.110274
    81  H    0.089789
    82  H    0.081932
    83  H    0.103748
    84  H    0.129479
    85  H    0.110531
    86  H    0.106108
    87  H    0.116653
    88  H    0.111025
    89  H    0.101436
    90  H    0.111816
    91  H    0.113794
    92  H    0.123611
    93  H    0.152675
    94  H    0.105172
    95  H    0.167842
    96  H    0.143368
    97  H    0.154036
    98  H    0.102551
    99  H    0.084402
   100  H    0.103907
   101  H    0.080702
   102  H    0.123857
   103  H    0.117104
   104  H    0.075215
   105  H    0.107145
   106  H    0.081705
   107  H    0.100321
   108  H    0.087704
   109  H    0.075838
   110  H    0.090494
   111  H    0.076100
   112  H    0.123519
   113  H    0.091627
   114  H    0.086524
   115  H    0.099029
   116  H    0.059857
   117  H    0.100398
   118  H    0.082183
   119  H    0.090177
   120  H    0.096008
   121  H    0.089494
   122  H    0.076244
   123  H    0.101911
   124  H    0.094027
   125  H    0.093372
   126  H    0.103636
   127  H    0.070737
   128  H    0.090233
   129  H    0.068490
   130  H    0.090511
   131  H    0.058842
   132  H    0.101735
   133  H    0.098824
   134  H    0.101628
   135  H    0.108693
   136  H    0.085058
   137  H    0.060378
 Sum of Mulliken charges =  -0.00000

 Dipole moment (field-independent basis, Debye):
    X=              0.3102    Y=              3.4356    Z=              1.1489  Tot=              3.6359
 Quadrupole moment (field-independent basis, Debye-Ang):
   XX=           -358.2460   YY=           -395.6022   ZZ=           -393.8750
   XY=            -18.3006   XZ=              5.5772   YZ=             -6.4282

 Normal termination of Gaussian 16 at Fri Sep 13 05:31:55 2019.
