 Gaussian 16, Revision A.03,
 Gaussian 16:  ES64L-G16RevA.03 25-Dec-2016

 ----------------------------------------------------------------------
 # td=(NStates=1) iop(3/107=0140000000,3/108=0140000000) CAM-B3LYP/6-31
 G(d,p)
 ----------------------------------------------------------------------

 --
 TD
 --
 Symbolic Z-matrix:
 Charge =  0 Multiplicity = 1

                         Standard orientation:
 ---------------------------------------------------------------------
 Center     Atomic      Atomic             Coordinates (Angstroms)
 Number     Number       Type             X           Y           Z
 ---------------------------------------------------------------------
      1         12           0       -7.126886    0.610652    0.068017
      2          6           0       -4.866269   -1.956357    0.506168
      3          6           0       -4.767500    2.770210    1.273937
      4          6           0       -9.385673    3.162278   -0.496944
      5          6           0       -9.502339   -1.640374   -0.844717
      6          7           0       -5.115311    0.366646    0.729727
      7          6           0       -4.350124   -0.703916    0.849384
      8          6           0       -2.957908   -0.392882    1.266031
      9          6           0       -3.031545    0.975289    1.810673
     10          6           0       -4.401766    1.452670    1.121405
     11          6           0       -3.029649    1.263087    3.246232
     12          6           0       -1.952435   -0.649111    0.137749
     13          6           0       -0.538350   -0.536531    0.571834
     14          6           0        0.534112   -0.702887   -0.496477
     15          8           0        0.212426   -1.010262   -1.685926
     16          8           0        1.798470   -0.554604   -0.191248
     17          7           0       -7.057649    2.591731    0.308172
     18          6           0       -5.955279    3.315737    0.829518
     19          6           0       -6.341041    4.674932    0.904417
     20          6           0       -7.631159    4.904776    0.339299
     21          6           0       -8.106149    3.562820    0.072167
     22          6           0       -5.493750    5.787431    1.320274
     23          6           0       -8.402971    6.124169    0.140983
     24          6           0       -8.165666    7.397915    0.681629
     25          7           0       -9.006451    0.706407   -0.531696
     26          6           0       -9.873873    1.818467   -0.764194
     27          6           0      -11.222495    1.522857   -1.228372
     28          6           0      -11.210649    0.185477   -1.259227
     29          6           0       -9.922377   -0.227207   -0.885534
     30          6           0      -12.173491    2.569040   -1.483164
     31          6           0      -12.308849   -0.776189   -1.914706
     32          6           0      -12.045462   -1.061035   -3.218903
     33          7           0       -7.242633   -1.355946   -0.173952
     34          6           0       -8.296797   -2.205257   -0.487005
     35          6           0       -7.838453   -3.490395   -0.662073
     36          6           0       -6.542742   -3.532692   -0.120866
     37          6           0       -6.186441   -2.194839    0.092076
     38          6           0       -8.723513   -4.752686   -0.976271
     39          6           0       -5.368924   -4.308836    0.174583
     40          8           0       -5.371460   -5.536295    0.357533
     41          6           0       -4.174104   -3.305312    0.549073
     42          6           0       -3.569347   -3.743264    1.845639
     43          8           0       -3.733894   -3.204377    2.949067
     44          8           0       -2.771667   -4.897137    1.697486
     45          6           0       -2.302959   -5.452942    2.826233
     46          6           0        2.740204   -0.865931   -1.216384
     47          6           0        4.096080   -0.492154   -0.554669
     48          6           0        5.054820    0.302911   -0.904450
     49          6           0        4.934881    1.206471   -2.082363
     50          6           0        6.383685    0.362366   -0.155997
     51          6           0        7.730500   -0.055097   -0.966811
     52          6           0        8.887833   -0.173552   -0.130296
     53          6           0       10.184527   -0.511117   -0.857033
     54          6           0       10.101401   -1.984244   -1.304422
     55          6           0       11.450283   -0.249091   -0.078455
     56          6           0       12.723649   -0.410900   -0.834454
     57          6           0       13.846075   -0.024388    0.086531
     58          6           0       15.323838   -0.126132   -0.450751
     59          6           0       15.766921   -1.573247   -0.831152
     60          6           0       16.370981    0.586770    0.459661
     61          6           0       17.763127    0.608962   -0.127656
     62          6           0       18.780962    1.420031    0.723868
     63          6           0       20.203045    1.320461    0.236210
     64          6           0       20.432219    1.857947   -1.203467
     65          6           0       21.192527    1.867600    1.232277
     66          1           0       -4.080294    3.572365    1.580255
     67          1           0      -10.000679    4.080827   -0.468175
     68          1           0      -10.285268   -2.304426   -1.018928
     69          1           0       -2.559106   -0.987263    2.096178
     70          1           0       -2.275411    1.681248    1.253886
     71          1           0       -2.039267    0.882527    3.670819
     72          1           0       -3.261539    2.274663    3.707345
     73          1           0       -3.919484    0.722118    3.750159
     74          1           0       -2.086448   -1.711261   -0.135790
     75          1           0       -2.128445   -0.011610   -0.723903
     76          1           0       -0.377528    0.365887    1.160417
     77          1           0       -0.611851   -1.501213    1.431635
     78          1           0       -5.637794    6.594020    0.544698
     79          1           0       -6.017020    6.226865    2.445698
     80          1           0       -4.498350    5.318203    1.669525
     81          1           0       -9.358527    6.054520   -0.490351
     82          1           0       -8.653192    8.275184    0.417499
     83          1           0       -7.324494    7.466034    1.275415
     84          1           0      -11.799347    3.215897   -2.281301
     85          1           0      -13.119316    2.168304   -1.700924
     86          1           0      -12.325557    3.143873   -0.648968
     87          1           0      -12.626627   -1.696157   -1.229886
     88          1           0      -13.162783   -0.104311   -1.804031
     89          1           0      -12.797722   -1.704729   -3.653336
     90          1           0      -12.009263   -0.222788   -3.888946
     91          1           0      -10.975871   -1.508955   -3.454332
     92          1           0       -8.849436   -4.593023   -2.110882
     93          1           0       -8.140214   -5.673867   -0.756430
     94          1           0       -9.676730   -4.844037   -0.465410
     95          1           0       -3.798790   -3.598000   -0.228244
     96          1           0       -1.943999   -4.765178    3.399270
     97          1           0       -3.277565   -5.682012    3.650179
     98          1           0       -1.946552   -6.427039    2.593046
     99          1           0        2.861468   -1.955144   -1.426450
    100          1           0        2.574840   -0.107603   -1.990720
    101          1           0        4.187326   -1.003756    0.339600
    102          1           0        3.935708    1.217845   -2.392069
    103          1           0        5.222212    2.191856   -1.845902
    104          1           0        5.686373    1.001969   -2.696145
    105          1           0        6.402969    1.284358    0.325691
    106          1           0        6.434638   -0.460448    0.565840
    107          1           0        7.586529   -1.027934   -1.560474
    108          1           0        7.767431    0.808854   -1.848889
    109          1           0        9.254153    0.842460    0.197840
    110          1           0        8.844678   -0.941028    0.774209
    111          1           0       10.078951   -0.021675   -1.865239
    112          1           0        9.085491   -2.287273   -1.857369
    113          1           0       10.882661   -2.564619   -1.858427
    114          1           0        9.977203   -2.441165   -0.229580
    115          1           0       11.287934    0.826479    0.403540
    116          1           0       11.591191   -1.000699    0.722852
    117          1           0       12.713565   -1.543905   -1.150724
    118          1           0       12.909281    0.310172   -1.713722
    119          1           0       13.739510    0.855075    0.625497
    120          1           0       14.012895   -0.794719    1.060788
    121          1           0       15.309406    0.524432   -1.298590
    122          1           0       15.945623   -1.976069    0.214725
    123          1           0       15.102386   -2.165785   -1.433541
    124          1           0       16.732605   -1.410079   -1.400966
    125          1           0       15.911670    1.509025    0.782534
    126          1           0       16.421179    0.057579    1.421499
    127          1           0       18.238366   -0.249601   -0.376824
    128          1           0       17.494096    0.799234   -1.266132
    129          1           0       18.494262    2.354773    0.546181
    130          1           0       18.525257    1.037400    1.876066
    131          1           0       20.259903    0.108138    0.016870
    132          1           0       20.229368    3.015793   -1.260963
    133          1           0       21.630418    1.628226   -1.523249
    134          1           0       19.798260    1.238211   -1.990483
    135          1           0       21.214570    1.511328    2.326980
    136          1           0       22.334179    1.736744    0.906769
    137          1           0       21.122141    2.983961    1.569304
 ---------------------------------------------------------------------

 SCF Done:  E(RCAM-B3LYP) =  -2933.42034537     A.U. after   16 cycles

 Excitation energies and oscillator strengths:

 Excited State   1:      Singlet-A      2.0103 eV  616.74 nm  f=0.2196  <S**2>=0.000
     240 -> 243        0.25712
     241 -> 242        0.64975
 This state for optimization and/or second-order correction.
 Total Energy, E(TD-HF/TD-DFT) =  -2933.34646734
 Copying the excited state density for this state as the 1-particle RhoCI density.

 The electronic state is 1-A.
 Alpha  occ. eigenvalues --  -46.78681 -19.22975 -19.21370 -19.17317 -19.16250
 Alpha  occ. eigenvalues --  -19.15306 -14.37884 -14.35898 -14.34961 -14.34420
 Alpha  occ. eigenvalues --  -10.35253 -10.34837 -10.30840 -10.28175 -10.26242
 Alpha  occ. eigenvalues --  -10.26218 -10.25603 -10.25571 -10.25268 -10.25049
 Alpha  occ. eigenvalues --  -10.24953 -10.24812 -10.24422 -10.24184 -10.24173
 Alpha  occ. eigenvalues --  -10.24089 -10.23976 -10.23743 -10.23735 -10.23578
 Alpha  occ. eigenvalues --  -10.23541 -10.23501 -10.23251 -10.23051 -10.22951
 Alpha  occ. eigenvalues --  -10.22791 -10.22664 -10.22597 -10.22579 -10.22508
 Alpha  occ. eigenvalues --  -10.22448 -10.22403 -10.22383 -10.22255 -10.22168
 Alpha  occ. eigenvalues --  -10.22056 -10.21978 -10.21937 -10.21907 -10.21862
 Alpha  occ. eigenvalues --  -10.21812 -10.21757 -10.21426 -10.21378 -10.21285
 Alpha  occ. eigenvalues --  -10.21201 -10.21140 -10.21028 -10.21026 -10.20726
 Alpha  occ. eigenvalues --  -10.20598 -10.20562 -10.20525 -10.19666 -10.19079
 Alpha  occ. eigenvalues --   -3.07593  -1.82503  -1.82121  -1.81984  -1.14513
 Alpha  occ. eigenvalues --   -1.12516  -1.05045  -1.04122  -1.01410  -1.00760
 Alpha  occ. eigenvalues --   -0.99013  -0.98134  -0.95410  -0.88579  -0.86874
 Alpha  occ. eigenvalues --   -0.86435  -0.85737  -0.85732  -0.85085  -0.84015
 Alpha  occ. eigenvalues --   -0.83340  -0.83260  -0.82956  -0.81745  -0.81472
 Alpha  occ. eigenvalues --   -0.80961  -0.80547  -0.79761  -0.78543  -0.77890
 Alpha  occ. eigenvalues --   -0.77220  -0.76299  -0.75996  -0.75411  -0.75106
 Alpha  occ. eigenvalues --   -0.73774  -0.72608  -0.72459  -0.72224  -0.70334
 Alpha  occ. eigenvalues --   -0.70236  -0.69770  -0.69515  -0.69297  -0.67808
 Alpha  occ. eigenvalues --   -0.67266  -0.66105  -0.65123  -0.64704  -0.64140
 Alpha  occ. eigenvalues --   -0.63007  -0.62784  -0.61245  -0.60871  -0.60351
 Alpha  occ. eigenvalues --   -0.59936  -0.59043  -0.58812  -0.58786  -0.57995
 Alpha  occ. eigenvalues --   -0.57361  -0.57281  -0.57175  -0.56744  -0.56061
 Alpha  occ. eigenvalues --   -0.55344  -0.54897  -0.54019  -0.53684  -0.53327
 Alpha  occ. eigenvalues --   -0.52398  -0.52001  -0.51321  -0.51100  -0.51012
 Alpha  occ. eigenvalues --   -0.50586  -0.50417  -0.50173  -0.49927  -0.49425
 Alpha  occ. eigenvalues --   -0.49357  -0.49288  -0.48756  -0.48607  -0.48267
 Alpha  occ. eigenvalues --   -0.48074  -0.47888  -0.47720  -0.47519  -0.47350
 Alpha  occ. eigenvalues --   -0.47301  -0.46887  -0.46661  -0.46475  -0.46258
 Alpha  occ. eigenvalues --   -0.46040  -0.45678  -0.45422  -0.45347  -0.45180
 Alpha  occ. eigenvalues --   -0.44991  -0.44689  -0.44490  -0.44304  -0.44102
 Alpha  occ. eigenvalues --   -0.43662  -0.43437  -0.43254  -0.43069  -0.42804
 Alpha  occ. eigenvalues --   -0.42756  -0.42500  -0.42393  -0.42275  -0.41877
 Alpha  occ. eigenvalues --   -0.41567  -0.41389  -0.40898  -0.40848  -0.40799
 Alpha  occ. eigenvalues --   -0.40538  -0.40238  -0.40029  -0.39836  -0.39776
 Alpha  occ. eigenvalues --   -0.39637  -0.39419  -0.39159  -0.39089  -0.39011
 Alpha  occ. eigenvalues --   -0.38764  -0.38677  -0.38527  -0.37917  -0.37757
 Alpha  occ. eigenvalues --   -0.37497  -0.37360  -0.37175  -0.36975  -0.36848
 Alpha  occ. eigenvalues --   -0.36718  -0.36517  -0.36006  -0.35869  -0.35479
 Alpha  occ. eigenvalues --   -0.35221  -0.35173  -0.35116  -0.34439  -0.34358
 Alpha  occ. eigenvalues --   -0.34159  -0.33890  -0.33822  -0.33486  -0.33370
 Alpha  occ. eigenvalues --   -0.33223  -0.32742  -0.32490  -0.32269  -0.32160
 Alpha  occ. eigenvalues --   -0.32014  -0.31581  -0.31289  -0.31166  -0.30717
 Alpha  occ. eigenvalues --   -0.30108  -0.29840  -0.29090  -0.28424  -0.27748
 Alpha  occ. eigenvalues --   -0.27284  -0.26970  -0.26403  -0.24042  -0.21496
 Alpha  occ. eigenvalues --   -0.20408
 Alpha virt. eigenvalues --   -0.07526  -0.04439  -0.00623   0.01656   0.02186
 Alpha virt. eigenvalues --    0.02702   0.04642   0.05146   0.05627   0.06226
 Alpha virt. eigenvalues --    0.06898   0.08825   0.09111   0.09213   0.09583

 Mulliken charges:
               1
     1  Mg   0.798406
     2  C    0.018097
     3  C   -0.171087
     4  C   -0.186969
     5  C   -0.191351
     6  N   -0.617675
     7  C    0.359118
     8  C   -0.155629
     9  C   -0.119435
    10  C    0.296171
    11  C   -0.305222
    12  C   -0.157759
    13  C   -0.249406
    14  C    0.600740
    15  O   -0.503691
    16  O   -0.433039
    17  N   -0.721065
    18  C    0.354605
    19  C   -0.003860
    20  C    0.071147
    21  C    0.240853
    22  C   -0.371997
    23  C   -0.100264
    24  C   -0.244564
    25  N   -0.650082
    26  C    0.238639
    27  C    0.093325
    28  C   -0.022433
    29  C    0.317236
    30  C   -0.381012
    31  C   -0.214206
    32  C   -0.289024
    33  N   -0.736643
    34  C    0.312468
    35  C   -0.021033
    36  C    0.064726
    37  C    0.314548
    38  C   -0.365341
    39  C    0.259616
    40  O   -0.457008
    41  C   -0.236002
    42  C    0.636425
    43  O   -0.482057
    44  O   -0.437372
    45  C   -0.049179
    46  C    0.022843
    47  C   -0.162357
    48  C    0.134564
    49  C   -0.360689
    50  C   -0.233064
    51  C   -0.179736
    52  C   -0.135096
    53  C   -0.070275
    54  C   -0.309256
    55  C   -0.153784
    56  C   -0.160311
    57  C   -0.161356
    58  C   -0.087397
    59  C   -0.296269
    60  C   -0.176781
    61  C   -0.188356
    62  C   -0.143509
    63  C   -0.033433
    64  C   -0.286029
    65  C   -0.310911
    66  H    0.077810
    67  H    0.077154
    68  H    0.073558
    69  H    0.113082
    70  H    0.085946
    71  H    0.101313
    72  H    0.117472
    73  H    0.115259
    74  H    0.124376
    75  H    0.119363
    76  H    0.127453
    77  H    0.096016
    78  H    0.138195
    79  H    0.080065
    80  H    0.098928
    81  H    0.083721
    82  H    0.109769
    83  H    0.096361
    84  H    0.131940
    85  H    0.115302
    86  H    0.141518
    87  H    0.093352
    88  H    0.102432
    89  H    0.107563
    90  H    0.115085
    91  H    0.095197
    92  H    0.117543
    93  H    0.145540
    94  H    0.130147
    95  H    0.148152
    96  H    0.126681
    97  H    0.051111
    98  H    0.127593
    99  H    0.139670
   100  H    0.123451
   101  H    0.080779
   102  H    0.107428
   103  H    0.112180
   104  H    0.127218
   105  H    0.114276
   106  H    0.099086
   107  H    0.097450
   108  H    0.066672
   109  H    0.088943
   110  H    0.081244
   111  H    0.086253
   112  H    0.081840
   113  H    0.104648
   114  H    0.074814
   115  H    0.070139
   116  H    0.100393
   117  H    0.095129
   118  H    0.089135
   119  H    0.098838
   120  H    0.037214
   121  H    0.081330
   122  H    0.100174
   123  H    0.106632
   124  H    0.094730
   125  H    0.094441
   126  H    0.080440
   127  H    0.106330
   128  H    0.064832
   129  H    0.110103
   130  H    0.075739
   131  H    0.061092
   132  H    0.095034
   133  H    0.078587
   134  H    0.099490
   135  H    0.099153
   136  H    0.085981
   137  H    0.093601
 Sum of Mulliken charges =  -0.00000

 Dipole moment (field-independent basis, Debye):
    X=              0.1930    Y=              4.8814    Z=             -0.7565  Tot=              4.9435
 Quadrupole moment (field-independent basis, Debye-Ang):
   XX=           -326.1853   YY=           -398.8664   ZZ=           -401.1275
   XY=            -19.0822   XZ=             20.2460   YZ=              4.1333

 Normal termination of Gaussian 16 at Wed Sep 11 21:29:52 2019.
