 Gaussian 16, Revision A.03,
 Gaussian 16:  ES64L-G16RevA.03 25-Dec-2016

 ----------------------------------------------------------------------
 # td=(NStates=1) iop(3/107=0140000000,3/108=0140000000) CAM-B3LYP/6-31
 G(d,p)
 ----------------------------------------------------------------------

 --
 TD
 --
 Symbolic Z-matrix:
 Charge =  0 Multiplicity = 1

                         Standard orientation:
 ---------------------------------------------------------------------
 Center     Atomic      Atomic             Coordinates (Angstroms)
 Number     Number       Type             X           Y           Z
 ---------------------------------------------------------------------
      1         12           0       -7.177960    0.611096    0.041590
      2          6           0       -4.845075   -1.978398    0.468329
      3          6           0       -4.803388    2.737114    1.107803
      4          6           0       -9.395550    3.124150   -0.287607
      5          6           0       -9.570929   -1.659782   -0.770074
      6          7           0       -5.089191    0.338333    0.714730
      7          6           0       -4.355384   -0.744925    0.742475
      8          6           0       -2.967109   -0.463510    1.251272
      9          6           0       -3.062195    0.969390    1.717448
     10          6           0       -4.400524    1.381555    1.136559
     11          6           0       -3.004685    1.092518    3.161432
     12          6           0       -2.004281   -0.620978   -0.063111
     13          6           0       -0.521402   -0.466016    0.453336
     14          6           0        0.489095   -0.588346   -0.735061
     15          8           0        0.277215   -0.774493   -1.870106
     16          8           0        1.838497   -0.432720   -0.219613
     17          7           0       -7.140601    2.586610    0.337745
     18          6           0       -6.058987    3.289885    0.829859
     19          6           0       -6.303265    4.752389    0.727914
     20          6           0       -7.687158    4.831010    0.348266
     21          6           0       -8.053053    3.488673    0.060672
     22          6           0       -5.319097    5.876724    1.045205
     23          6           0       -8.545677    6.056521    0.221387
     24          6           0       -8.378158    7.285249    0.777178
     25          7           0       -9.188782    0.683345   -0.417251
     26          6           0       -9.968606    1.848020   -0.481229
     27          6           0      -11.278640    1.530301   -0.956723
     28          6           0      -11.332035    0.162741   -1.139202
     29          6           0      -10.067938   -0.351580   -0.716485
     30          6           0      -12.277476    2.603925   -1.409779
     31          6           0      -12.542972   -0.697746   -1.630803
     32          6           0      -12.451919   -1.039051   -3.165108
     33          7           0       -7.235428   -1.363696   -0.204925
     34          6           0       -8.273540   -2.129827   -0.445358
     35          6           0       -7.876063   -3.598094   -0.467770
     36          6           0       -6.548977   -3.604670   -0.036360
     37          6           0       -6.242111   -2.237643    0.083651
     38          6           0       -8.893775   -4.603113   -0.886473
     39          6           0       -5.397447   -4.406443    0.229508
     40          8           0       -5.215631   -5.588558    0.265029
     41          6           0       -4.237056   -3.335136    0.549071
     42          6           0       -3.530310   -3.705045    1.783245
     43          8           0       -3.645619   -3.191387    2.915470
     44          8           0       -2.700404   -4.749485    1.616582
     45          6           0       -2.024224   -5.304643    2.804886
     46          6           0        2.917465   -0.749000   -1.249810
     47          6           0        4.311992   -0.547038   -0.580355
     48          6           0        5.240925    0.261297   -0.978031
     49          6           0        5.190472    1.111144   -2.247204
     50          6           0        6.467289    0.254657   -0.223787
     51          6           0        7.739053   -0.224358   -1.032392
     52          6           0        8.953192   -0.054810   -0.175431
     53          6           0       10.227399   -0.556947   -1.007190
     54          6           0       10.243207   -2.149820   -1.250005
     55          6           0       11.433474   -0.298960   -0.035162
     56          6           0       12.843083   -0.523934   -0.804291
     57          6           0       14.019168   -0.162589    0.149609
     58          6           0       15.280895   -0.097977   -0.468521
     59          6           0       15.818511   -1.561540   -0.871092
     60          6           0       16.427419    0.477935    0.508929
     61          6           0       17.751687    0.549643   -0.123086
     62          6           0       18.747979    1.349307    0.804216
     63          6           0       20.159804    1.323211    0.316243
     64          6           0       20.391219    2.201153   -0.988263
     65          6           0       21.121495    2.073897    1.358710
     66          1           0       -4.003571    3.493575    1.714406
     67          1           0      -10.210681    3.826849   -0.393670
     68          1           0      -10.220136   -2.468774   -1.183987
     69          1           0       -2.676007   -1.143264    2.064713
     70          1           0       -2.236168    1.738416    1.055864
     71          1           0       -1.929774    0.853766    3.687033
     72          1           0       -3.332655    2.091074    3.610971
     73          1           0       -3.648993    0.408645    3.753037
     74          1           0       -2.179689   -1.535507   -0.517859
     75          1           0       -2.318949    0.045932   -0.840959
     76          1           0       -0.216618    0.440043    0.921657
     77          1           0       -0.387234   -1.281612    1.112082
     78          1           0       -5.625063    6.712485    0.384998
     79          1           0       -5.523586    6.226372    2.093667
     80          1           0       -4.235011    5.690519    0.793544
     81          1           0       -9.282060    6.028019   -0.617459
     82          1           0       -9.081386    8.060454    0.406266
     83          1           0       -7.497943    7.720531    1.432070
     84          1           0      -11.932012    3.010917   -2.375957
     85          1           0      -13.191966    2.056425   -1.539593
     86          1           0      -12.450585    3.594638   -0.781492
     87          1           0      -12.491786   -1.592800   -1.161040
     88          1           0      -13.317858    0.179806   -1.467710
     89          1           0      -13.366217   -1.873079   -3.284044
     90          1           0      -12.172938   -0.018474   -3.726571
     91          1           0      -11.454914   -1.730858   -3.252739
     92          1           0       -9.070331   -4.549283   -2.005739
     93          1           0       -8.454686   -5.484770   -0.588259
     94          1           0      -10.037411   -4.504712   -0.423192
     95          1           0       -3.639101   -3.472073   -0.382675
     96          1           0       -1.277723   -4.703542    3.403485
     97          1           0       -2.729009   -5.684181    3.668548
     98          1           0       -1.455242   -6.295972    2.430599
     99          1           0        2.687025   -1.626843   -1.598088
    100          1           0        2.700921   -0.182263   -2.092277
    101          1           0        4.220781   -1.133344    0.308601
    102          1           0        4.127828    1.126009   -2.558833
    103          1           0        5.600917    2.243450   -2.122951
    104          1           0        5.876118    0.690844   -3.058669
    105          1           0        6.504757    1.188552    0.124816
    106          1           0        6.505857   -0.487493    0.546675
    107          1           0        7.564356   -1.314210   -1.165461
    108          1           0        7.831789    0.249197   -2.121333
    109          1           0        9.111338    0.868704    0.356838
    110          1           0        9.001447   -0.622070    0.772957
    111          1           0       10.054877   -0.127026   -1.836298
    112          1           0        9.314518   -2.376521   -1.755313
    113          1           0       11.108436   -2.419047   -2.035967
    114          1           0       10.427943   -2.678219   -0.322897
    115          1           0       11.518812    0.693124    0.293816
    116          1           0       11.241921   -0.883932    1.005722
    117          1           0       12.857725   -1.549248   -1.114926
    118          1           0       12.966596    0.150316   -1.669239
    119          1           0       13.707562    0.900093    0.818126
    120          1           0       14.064311   -0.715153    1.070721
    121          1           0       15.364636    0.458893   -1.330274
    122          1           0       15.667759   -2.342291   -0.155418
    123          1           0       14.982316   -1.787833   -1.600627
    124          1           0       16.702896   -1.462796   -1.551546
    125          1           0       15.902082    1.352884    1.046426
    126          1           0       16.428982   -0.138251    1.249985
    127          1           0       17.854026   -0.570676   -0.095897
    128          1           0       17.724010    1.186092   -1.099677
    129          1           0       18.324789    2.401059    1.014777
    130          1           0       18.534858    0.867182    1.701486
    131          1           0       20.460626    0.478155    0.217934
    132          1           0       20.127094    3.196552   -0.767448
    133          1           0       21.404931    2.158687   -1.079062
    134          1           0       19.762528    1.781724   -1.821579
    135          1           0       21.186832    1.621907    2.350299
    136          1           0       22.224789    1.881656    0.726168
    137          1           0       20.944492    2.907488    1.719699
 ---------------------------------------------------------------------

 SCF Done:  E(RCAM-B3LYP) =  -2933.40160581     A.U. after   16 cycles

 Excitation energies and oscillator strengths:

 Excited State   1:      Singlet-A      2.0161 eV  614.97 nm  f=0.2341  <S**2>=0.000
     240 -> 243       -0.23971
     241 -> 242        0.65179
 This state for optimization and/or second-order correction.
 Total Energy, E(TD-HF/TD-DFT) =  -2933.32751580
 Copying the excited state density for this state as the 1-particle RhoCI density.

 The electronic state is 1-A.
 Alpha  occ. eigenvalues --  -46.80409 -19.22535 -19.19156 -19.17662 -19.17104
 Alpha  occ. eigenvalues --  -19.15833 -14.37400 -14.35724 -14.35456 -14.34567
 Alpha  occ. eigenvalues --  -10.34515 -10.34070 -10.31251 -10.28996 -10.26108
 Alpha  occ. eigenvalues --  -10.25592 -10.25154 -10.25045 -10.25014 -10.24852
 Alpha  occ. eigenvalues --  -10.24776 -10.24713 -10.24505 -10.24390 -10.24335
 Alpha  occ. eigenvalues --  -10.24244 -10.24188 -10.23828 -10.23549 -10.23217
 Alpha  occ. eigenvalues --  -10.23163 -10.23157 -10.23081 -10.23064 -10.22997
 Alpha  occ. eigenvalues --  -10.22975 -10.22953 -10.22911 -10.22843 -10.22734
 Alpha  occ. eigenvalues --  -10.22574 -10.22474 -10.22445 -10.22437 -10.22416
 Alpha  occ. eigenvalues --  -10.22359 -10.22140 -10.21973 -10.21907 -10.21807
 Alpha  occ. eigenvalues --  -10.21218 -10.21188 -10.21172 -10.20915 -10.20837
 Alpha  occ. eigenvalues --  -10.20783 -10.20474 -10.20391 -10.20257 -10.19914
 Alpha  occ. eigenvalues --  -10.19862 -10.19831 -10.19610 -10.18973 -10.18551
 Alpha  occ. eigenvalues --   -3.09043  -1.83978  -1.83502  -1.83466  -1.12129
 Alpha  occ. eigenvalues --   -1.11595  -1.08008  -1.02000  -1.01787  -1.01692
 Alpha  occ. eigenvalues --   -1.00359  -0.99498  -0.96688  -0.88360  -0.86781
 Alpha  occ. eigenvalues --   -0.85787  -0.84777  -0.83932  -0.83798  -0.83233
 Alpha  occ. eigenvalues --   -0.83043  -0.82782  -0.82669  -0.82069  -0.80622
 Alpha  occ. eigenvalues --   -0.79744  -0.79038  -0.78642  -0.78072  -0.77321
 Alpha  occ. eigenvalues --   -0.76333  -0.75690  -0.75568  -0.74141  -0.73407
 Alpha  occ. eigenvalues --   -0.72959  -0.72105  -0.71793  -0.71482  -0.70940
 Alpha  occ. eigenvalues --   -0.70430  -0.70369  -0.69767  -0.68687  -0.67920
 Alpha  occ. eigenvalues --   -0.66908  -0.66439  -0.65418  -0.64985  -0.63699
 Alpha  occ. eigenvalues --   -0.62856  -0.62382  -0.61469  -0.61142  -0.61132
 Alpha  occ. eigenvalues --   -0.60510  -0.59964  -0.59748  -0.59528  -0.58013
 Alpha  occ. eigenvalues --   -0.57730  -0.56419  -0.56176  -0.55632  -0.55278
 Alpha  occ. eigenvalues --   -0.54380  -0.54356  -0.54061  -0.53480  -0.52192
 Alpha  occ. eigenvalues --   -0.51982  -0.51383  -0.51080  -0.50975  -0.50688
 Alpha  occ. eigenvalues --   -0.50479  -0.50295  -0.49456  -0.49417  -0.49148
 Alpha  occ. eigenvalues --   -0.48710  -0.48579  -0.48096  -0.47990  -0.47634
 Alpha  occ. eigenvalues --   -0.47429  -0.47040  -0.46949  -0.46764  -0.46735
 Alpha  occ. eigenvalues --   -0.46546  -0.46360  -0.46197  -0.45774  -0.45608
 Alpha  occ. eigenvalues --   -0.45364  -0.45311  -0.44948  -0.44650  -0.44562
 Alpha  occ. eigenvalues --   -0.44329  -0.44263  -0.43999  -0.43485  -0.43340
 Alpha  occ. eigenvalues --   -0.43181  -0.42854  -0.42748  -0.42460  -0.42394
 Alpha  occ. eigenvalues --   -0.42300  -0.42139  -0.41942  -0.41702  -0.41469
 Alpha  occ. eigenvalues --   -0.41362  -0.41143  -0.41084  -0.40944  -0.40624
 Alpha  occ. eigenvalues --   -0.40517  -0.40434  -0.40346  -0.40273  -0.39995
 Alpha  occ. eigenvalues --   -0.39718  -0.39617  -0.39563  -0.39512  -0.39302
 Alpha  occ. eigenvalues --   -0.39001  -0.38818  -0.38559  -0.38499  -0.38365
 Alpha  occ. eigenvalues --   -0.38164  -0.37919  -0.37718  -0.37649  -0.37564
 Alpha  occ. eigenvalues --   -0.37197  -0.37120  -0.36617  -0.36570  -0.36234
 Alpha  occ. eigenvalues --   -0.35637  -0.35601  -0.35315  -0.34886  -0.34794
 Alpha  occ. eigenvalues --   -0.34536  -0.34298  -0.34173  -0.33219  -0.33180
 Alpha  occ. eigenvalues --   -0.33118  -0.32877  -0.32789  -0.32335  -0.32023
 Alpha  occ. eigenvalues --   -0.31439  -0.31227  -0.30984  -0.30274  -0.30072
 Alpha  occ. eigenvalues --   -0.29618  -0.29556  -0.28532  -0.28418  -0.27879
 Alpha  occ. eigenvalues --   -0.27484  -0.27249  -0.25772  -0.25155  -0.21277
 Alpha  occ. eigenvalues --   -0.19919
 Alpha virt. eigenvalues --   -0.07169  -0.03939  -0.00518   0.01945   0.03162
 Alpha virt. eigenvalues --    0.04013   0.04712   0.05054   0.05245   0.05702
 Alpha virt. eigenvalues --    0.06757   0.07524   0.08641   0.09306   0.09881

 Mulliken charges:
               1
     1  Mg   0.822503
     2  C    0.082463
     3  C   -0.197077
     4  C   -0.175920
     5  C   -0.201426
     6  N   -0.607365
     7  C    0.306419
     8  C   -0.170136
     9  C   -0.101525
    10  C    0.330992
    11  C   -0.318515
    12  C   -0.188937
    13  C   -0.254021
    14  C    0.576445
    15  O   -0.425688
    16  O   -0.535487
    17  N   -0.696926
    18  C    0.286918
    19  C    0.006200
    20  C    0.022115
    21  C    0.329089
    22  C   -0.385074
    23  C   -0.085326
    24  C   -0.241394
    25  N   -0.689614
    26  C    0.292349
    27  C    0.011757
    28  C    0.015394
    29  C    0.302764
    30  C   -0.379212
    31  C   -0.206789
    32  C   -0.290486
    33  N   -0.690881
    34  C    0.297064
    35  C   -0.007177
    36  C    0.102066
    37  C    0.232694
    38  C   -0.377980
    39  C    0.327399
    40  O   -0.434269
    41  C   -0.348992
    42  C    0.634669
    43  O   -0.507555
    44  O   -0.434825
    45  C   -0.088442
    46  C    0.007676
    47  C   -0.134157
    48  C    0.143000
    49  C   -0.359781
    50  C   -0.215546
    51  C   -0.198135
    52  C   -0.175673
    53  C   -0.036590
    54  C   -0.314520
    55  C   -0.180745
    56  C   -0.187210
    57  C   -0.153203
    58  C   -0.045864
    59  C   -0.348544
    60  C   -0.180888
    61  C   -0.183238
    62  C   -0.165575
    63  C   -0.020381
    64  C   -0.303726
    65  C   -0.298884
    66  H    0.070696
    67  H    0.069474
    68  H    0.072600
    69  H    0.131398
    70  H    0.071995
    71  H    0.089544
    72  H    0.103872
    73  H    0.135588
    74  H    0.119760
    75  H    0.121824
    76  H    0.145362
    77  H    0.146571
    78  H    0.126928
    79  H    0.128848
    80  H    0.119709
    81  H    0.098420
    82  H    0.099517
    83  H    0.099004
    84  H    0.134523
    85  H    0.112796
    86  H    0.112196
    87  H    0.116655
    88  H    0.095649
    89  H    0.098527
    90  H    0.113426
    91  H    0.086935
    92  H    0.130848
    93  H    0.142335
    94  H    0.106304
    95  H    0.167148
    96  H    0.130129
    97  H    0.126536
    98  H    0.113437
    99  H    0.120471
   100  H    0.111313
   101  H    0.096171
   102  H    0.119282
   103  H    0.095847
   104  H    0.120158
   105  H    0.108526
   106  H    0.104545
   107  H    0.108241
   108  H    0.075598
   109  H    0.095255
   110  H    0.081151
   111  H    0.086681
   112  H    0.100679
   113  H    0.084927
   114  H    0.110479
   115  H    0.098720
   116  H    0.071889
   117  H    0.108595
   118  H    0.098565
   119  H    0.031215
   120  H    0.094971
   121  H    0.087221
   122  H    0.112198
   123  H    0.089044
   124  H    0.116421
   125  H    0.056539
   126  H    0.100032
   127  H    0.104850
   128  H    0.080623
   129  H    0.076520
   130  H    0.089689
   131  H    0.085875
   132  H    0.110317
   133  H    0.104185
   134  H    0.091236
   135  H    0.082073
   136  H    0.053382
   137  H    0.111679
 Sum of Mulliken charges =  -0.00000

 Dipole moment (field-independent basis, Debye):
    X=              0.4280    Y=              3.0116    Z=             -0.5139  Tot=              3.0850
 Quadrupole moment (field-independent basis, Debye-Ang):
   XX=           -369.0200   YY=           -390.6414   ZZ=           -396.8062
   XY=            -24.5904   XZ=             19.7583   YZ=             -1.2299

 Normal termination of Gaussian 16 at Fri Sep 13 03:33:20 2019.
