 Gaussian 09, Revision D.01,
 Gaussian 09:  ES64L-G09RevD.01 24-Apr-2013

 -------------------------------------
 # td=(NStates=1) CAM-B3LYP/6-31G(d,p)
 -------------------------------------

 --
 TD
 --
 Symbolic Z-matrix:
 Charge =  0 Multiplicity = 1

                         Standard orientation:
 ---------------------------------------------------------------------
 Center     Atomic      Atomic             Coordinates (Angstroms)
 Number     Number       Type             X           Y           Z
 ---------------------------------------------------------------------
      1         12           0       -7.192029    0.609460    0.117340
      2          6           0       -4.876013   -1.947007    0.533754
      3          6           0       -4.896500    2.809070    1.104600
      4          6           0       -9.426017    3.061673   -0.397355
      5          6           0       -9.536581   -1.740270   -0.774492
      6          7           0       -5.113157    0.437216    0.607271
      7          6           0       -4.309547   -0.747621    0.774554
      8          6           0       -2.939752   -0.366506    1.319036
      9          6           0       -2.989527    1.161179    1.568122
     10          6           0       -4.281354    1.512165    1.072300
     11          6           0       -2.925892    1.361408    3.196506
     12          6           0       -1.920403   -0.678096    0.116727
     13          6           0       -0.454900   -0.455959    0.581608
     14          6           0        0.484151   -0.783842   -0.546048
     15          8           0        0.135201   -1.067894   -1.707706
     16          8           0        1.770401   -0.560684   -0.161412
     17          7           0       -7.117503    2.697164    0.232394
     18          6           0       -6.042156    3.378949    0.655653
     19          6           0       -6.391994    4.833747    0.734634
     20          6           0       -7.718178    4.893959    0.312339
     21          6           0       -8.149423    3.579398   -0.081530
     22          6           0       -5.449759    5.984529    0.914305
     23          6           0       -8.511521    6.096054    0.013691
     24          6           0       -8.314295    7.171656    0.752660
     25          7           0       -9.096036    0.617591   -0.618149
     26          6           0       -9.871445    1.757177   -0.663350
     27          6           0      -11.213014    1.492478   -1.087640
     28          6           0      -11.283260    0.134164   -1.171836
     29          6           0       -9.948080   -0.373622   -0.799321
     30          6           0      -12.173093    2.505801   -1.418073
     31          6           0      -12.406877   -0.742978   -1.610533
     32          6           0      -12.192519   -1.193453   -3.043143
     33          7           0       -7.288091   -1.378584   -0.108235
     34          6           0       -8.271808   -2.247580   -0.489365
     35          6           0       -7.802496   -3.555798   -0.507015
     36          6           0       -6.452392   -3.545234   -0.155490
     37          6           0       -6.247151   -2.117161    0.153198
     38          6           0       -8.709921   -4.801288   -0.911726
     39          6           0       -5.257408   -4.371037    0.152326
     40          8           0       -5.130601   -5.602065    0.074409
     41          6           0       -4.141907   -3.302354    0.510290
     42          6           0       -3.423841   -3.605885    1.865211
     43          8           0       -3.692905   -3.012377    2.933783
     44          8           0       -2.531479   -4.634023    1.693108
     45          6           0       -2.030190   -5.176700    2.931359
     46          6           0        2.847091   -0.927968   -1.112068
     47          6           0        4.158292   -0.604661   -0.406367
     48          6           0        5.160677    0.199900   -0.866390
     49          6           0        4.981820    1.037913   -2.093749
     50          6           0        6.435078    0.272414   -0.061243
     51          6           0        7.574411   -0.367131   -0.796346
     52          6           0        8.993209   -0.277300   -0.021846
     53          6           0       10.203581   -0.633382   -0.742634
     54          6           0       10.069782   -2.153421   -1.244700
     55          6           0       11.419442   -0.363921    0.111368
     56          6           0       12.754169   -0.574664   -0.609114
     57          6           0       13.847516   -0.093875    0.152911
     58          6           0       15.271996   -0.110856   -0.544521
     59          6           0       15.529754   -1.484058   -1.079235
     60          6           0       16.412401    0.527230    0.349457
     61          6           0       17.669281    0.566405   -0.302991
     62          6           0       18.716804    1.342070    0.688781
     63          6           0       20.184683    1.521635    0.199330
     64          6           0       20.200076    2.216256   -1.153944
     65          6           0       21.020690    2.123618    1.166613
     66          1           0       -4.279050    3.524233    1.711877
     67          1           0      -10.004385    3.929315   -0.894427
     68          1           0      -10.413382   -2.465720   -1.223566
     69          1           0       -2.650494   -0.977665    2.060798
     70          1           0       -2.089687    1.559464    1.197785
     71          1           0       -1.955931    0.938521    3.648499
     72          1           0       -2.826831    2.339355    3.515337
     73          1           0       -3.773697    0.967052    3.741588
     74          1           0       -2.063055   -1.692204   -0.300052
     75          1           0       -1.861526   -0.086636   -0.715676
     76          1           0       -0.488790    0.590450    0.923257
     77          1           0       -0.010584   -1.171467    1.400503
     78          1           0       -5.697869    6.774479    0.311857
     79          1           0       -5.324636    6.456265    1.928719
     80          1           0       -4.229970    5.990306    0.597059
     81          1           0       -9.006138    6.149606   -0.939085
     82          1           0       -8.960747    8.085981    0.512716
     83          1           0       -7.496186    7.077808    1.603296
     84          1           0      -12.120361    3.239833   -2.357538
     85          1           0      -13.257097    1.982788   -1.492021
     86          1           0      -12.348087    3.302985   -0.660025
     87          1           0      -12.423751   -1.600845   -0.815448
     88          1           0      -13.310607   -0.320070   -1.403385
     89          1           0      -13.091428   -1.732207   -3.111416
     90          1           0      -12.015870   -0.213193   -3.376347
     91          1           0      -11.096183   -1.750975   -3.153862
     92          1           0       -9.314570   -4.554732   -1.927497
     93          1           0       -8.080111   -5.797722   -1.024156
     94          1           0       -9.318630   -4.863647   -0.104239
     95          1           0       -3.443585   -3.395509   -0.359545
     96          1           0       -1.356779   -4.328555    3.380353
     97          1           0       -2.784698   -5.362174    3.469013
     98          1           0       -1.330303   -5.905558    2.700853
     99          1           0        2.621341   -2.045803   -1.372306
    100          1           0        2.871410   -0.362180   -2.040149
    101          1           0        4.175182   -1.254457    0.431485
    102          1           0        3.944753    0.923316   -2.486808
    103          1           0        5.422757    2.178394   -1.713883
    104          1           0        5.763659    0.661125   -2.689176
    105          1           0        6.840557    1.160462    0.247167
    106          1           0        6.347281   -0.352914    0.753070
    107          1           0        7.496908   -1.382186   -0.981275
    108          1           0        7.627625    0.164964   -1.676890
    109          1           0        9.147007    0.881131    0.160616
    110          1           0        8.794800   -0.904347    0.844936
    111          1           0       10.294208    0.048838   -1.495916
    112          1           0        9.050115   -2.427328   -1.753831
    113          1           0       10.892592   -2.485453   -1.721429
    114          1           0        9.999151   -2.703172   -0.376650
    115          1           0       11.294454    0.667486    0.339190
    116          1           0       11.212831   -1.018572    1.031598
    117          1           0       12.915279   -1.630813   -0.798955
    118          1           0       12.693843    0.062160   -1.400863
    119          1           0       13.673346    0.993925    0.638650
    120          1           0       13.908154   -0.926477    1.064810
    121          1           0       15.476318    0.468462   -1.354753
    122          1           0       15.601826   -2.172565   -0.262982
    123          1           0       14.826458   -1.915183   -1.792216
    124          1           0       16.529160   -1.643658   -1.589355
    125          1           0       16.050605    1.502897    0.666158
    126          1           0       16.465704   -0.134551    1.313699
    127          1           0       18.182923   -0.334641   -0.475736
    128          1           0       17.637285    0.958175   -1.249712
    129          1           0       18.392300    2.387806    0.946905
    130          1           0       18.708824    0.912359    1.692164
    131          1           0       20.677471    0.524849   -0.051600
    132          1           0       20.003564    3.242801   -0.968546
    133          1           0       21.324680    2.300537   -1.502036
    134          1           0       19.468708    1.944325   -1.928300
    135          1           0       21.281665    1.429271    1.960064
    136          1           0       22.091457    2.339431    0.949867
    137          1           0       20.667600    3.157806    1.503647
 ---------------------------------------------------------------------

 SCF Done:  E(RCAM-B3LYP) =  -2932.65267856     A.U. after   16 cycles

 Excitation energies and oscillator strengths:

 Excited State   1:      Singlet-A      1.9640 eV  631.28 nm  f=0.2264  <S**2>=0.000
     240 -> 243       -0.23417
     241 -> 242        0.66107
 This state for optimization and/or second-order correction.
 Total Energy, E(TD-HF/TD-KS) =  -2932.58050190
 Copying the excited state density for this state as the 1-particle RhoCI density.

 The electronic state is 1-A.
 Alpha  occ. eigenvalues --  -46.84482 -19.26924 -19.26241 -19.21751 -19.20907
 Alpha  occ. eigenvalues --  -19.20489 -14.41693 -14.39392 -14.39245 -14.38644
 Alpha  occ. eigenvalues --  -10.40474 -10.39410 -10.35770 -10.32586 -10.31672
 Alpha  occ. eigenvalues --  -10.30343 -10.30061 -10.29372 -10.29326 -10.29071
 Alpha  occ. eigenvalues --  -10.28854 -10.28694 -10.28575 -10.28493 -10.28482
 Alpha  occ. eigenvalues --  -10.28400 -10.28365 -10.28284 -10.27983 -10.27896
 Alpha  occ. eigenvalues --  -10.27545 -10.27433 -10.27145 -10.27092 -10.27004
 Alpha  occ. eigenvalues --  -10.26987 -10.26931 -10.26925 -10.26881 -10.26409
 Alpha  occ. eigenvalues --  -10.26378 -10.26290 -10.25949 -10.25875 -10.25829
 Alpha  occ. eigenvalues --  -10.25799 -10.25657 -10.25588 -10.25556 -10.25519
 Alpha  occ. eigenvalues --  -10.25486 -10.25328 -10.25320 -10.25066 -10.25049
 Alpha  occ. eigenvalues --  -10.24995 -10.24772 -10.24574 -10.24313 -10.24307
 Alpha  occ. eigenvalues --  -10.24243 -10.24115 -10.24076 -10.24068 -10.23847
 Alpha  occ. eigenvalues --   -3.13467  -1.88174  -1.87712  -1.87639  -1.17177
 Alpha  occ. eigenvalues --   -1.16507  -1.09547  -1.08462  -1.07707  -1.05532
 Alpha  occ. eigenvalues --   -1.03963  -1.02740  -1.01071  -0.92593  -0.91827
 Alpha  occ. eigenvalues --   -0.91651  -0.90582  -0.89797  -0.89614  -0.89251
 Alpha  occ. eigenvalues --   -0.89192  -0.88186  -0.87261  -0.86919  -0.86425
 Alpha  occ. eigenvalues --   -0.85743  -0.84742  -0.83893  -0.83480  -0.82514
 Alpha  occ. eigenvalues --   -0.81951  -0.81275  -0.80835  -0.80076  -0.77743
 Alpha  occ. eigenvalues --   -0.77459  -0.76792  -0.76728  -0.76259  -0.76110
 Alpha  occ. eigenvalues --   -0.75805  -0.75142  -0.74708  -0.73667  -0.72447
 Alpha  occ. eigenvalues --   -0.72232  -0.70748  -0.69794  -0.69292  -0.68308
 Alpha  occ. eigenvalues --   -0.67468  -0.66240  -0.65824  -0.64992  -0.64719
 Alpha  occ. eigenvalues --   -0.64009  -0.63772  -0.63393  -0.62745  -0.62281
 Alpha  occ. eigenvalues --   -0.61702  -0.61125  -0.60658  -0.59897  -0.59512
 Alpha  occ. eigenvalues --   -0.58528  -0.58452  -0.57807  -0.57328  -0.57101
 Alpha  occ. eigenvalues --   -0.56786  -0.56344  -0.56053  -0.55891  -0.55627
 Alpha  occ. eigenvalues --   -0.54683  -0.54445  -0.54330  -0.54129  -0.53210
 Alpha  occ. eigenvalues --   -0.52927  -0.52874  -0.52556  -0.52066  -0.51845
 Alpha  occ. eigenvalues --   -0.51545  -0.51426  -0.51418  -0.51118  -0.50752
 Alpha  occ. eigenvalues --   -0.50422  -0.50169  -0.49979  -0.49554  -0.49341
 Alpha  occ. eigenvalues --   -0.49196  -0.48791  -0.48559  -0.48444  -0.48303
 Alpha  occ. eigenvalues --   -0.48184  -0.47944  -0.47693  -0.47352  -0.47093
 Alpha  occ. eigenvalues --   -0.46860  -0.46623  -0.46465  -0.45909  -0.45879
 Alpha  occ. eigenvalues --   -0.45590  -0.45244  -0.45238  -0.45080  -0.44763
 Alpha  occ. eigenvalues --   -0.44641  -0.44515  -0.44184  -0.44010  -0.43940
 Alpha  occ. eigenvalues --   -0.43776  -0.43667  -0.43548  -0.43407  -0.43347
 Alpha  occ. eigenvalues --   -0.43039  -0.42944  -0.42716  -0.42614  -0.42571
 Alpha  occ. eigenvalues --   -0.42237  -0.42059  -0.41979  -0.41885  -0.41548
 Alpha  occ. eigenvalues --   -0.40969  -0.40761  -0.40716  -0.40642  -0.40309
 Alpha  occ. eigenvalues --   -0.39992  -0.39684  -0.39659  -0.39407  -0.39156
 Alpha  occ. eigenvalues --   -0.39021  -0.38767  -0.38573  -0.38479  -0.38239
 Alpha  occ. eigenvalues --   -0.37833  -0.37319  -0.37090  -0.36920  -0.36556
 Alpha  occ. eigenvalues --   -0.36449  -0.36095  -0.36072  -0.35745  -0.35736
 Alpha  occ. eigenvalues --   -0.35576  -0.35068  -0.34982  -0.34042  -0.33737
 Alpha  occ. eigenvalues --   -0.33528  -0.33261  -0.31800  -0.30481  -0.30185
 Alpha  occ. eigenvalues --   -0.29760  -0.29674  -0.28471  -0.27394  -0.22798
 Alpha  occ. eigenvalues --   -0.20746
 Alpha virt. eigenvalues --   -0.06359  -0.02666   0.01535   0.03804   0.04823
 Alpha virt. eigenvalues --    0.05051   0.05555   0.05697   0.06578   0.07335
 Alpha virt. eigenvalues --    0.08447   0.10387   0.11180   0.11624   0.11895

 Mulliken charges:
               1
     1  Mg   0.824620
     2  C    0.028667
     3  C   -0.235643
     4  C   -0.183995
     5  C   -0.210542
     6  N   -0.631294
     7  C    0.303992
     8  C   -0.128475
     9  C   -0.148153
    10  C    0.357194
    11  C   -0.329611
    12  C   -0.202205
    13  C   -0.267102
    14  C    0.609881
    15  O   -0.490135
    16  O   -0.482131
    17  N   -0.686945
    18  C    0.344512
    19  C    0.035490
    20  C   -0.016025
    21  C    0.256743
    22  C   -0.399407
    23  C   -0.053741
    24  C   -0.251775
    25  N   -0.667081
    26  C    0.274527
    27  C    0.106152
    28  C   -0.012318
    29  C    0.296857
    30  C   -0.405733
    31  C   -0.249663
    32  C   -0.283934
    33  N   -0.733592
    34  C    0.311364
    35  C   -0.025585
    36  C   -0.019487
    37  C    0.337039
    38  C   -0.348469
    39  C    0.382413
    40  O   -0.468346
    41  C   -0.310343
    42  C    0.628218
    43  O   -0.486143
    44  O   -0.463904
    45  C   -0.058685
    46  C    0.007504
    47  C   -0.135211
    48  C    0.115061
    49  C   -0.342347
    50  C   -0.211396
    51  C   -0.198783
    52  C   -0.177914
    53  C   -0.054086
    54  C   -0.327945
    55  C   -0.172450
    56  C   -0.147178
    57  C   -0.162664
    58  C   -0.058951
    59  C   -0.332619
    60  C   -0.164599
    61  C   -0.181097
    62  C   -0.182292
    63  C   -0.044516
    64  C   -0.305602
    65  C   -0.313001
    66  H    0.072053
    67  H    0.082380
    68  H    0.094840
    69  H    0.132452
    70  H    0.119736
    71  H    0.098897
    72  H    0.119100
    73  H    0.136880
    74  H    0.116839
    75  H    0.137062
    76  H    0.135836
    77  H    0.118461
    78  H    0.145191
    79  H    0.116098
    80  H    0.088696
    81  H    0.108757
    82  H    0.098361
    83  H    0.107472
    84  H    0.110897
    85  H    0.088821
    86  H    0.126548
    87  H    0.084694
    88  H    0.112921
    89  H    0.120039
    90  H    0.128230
    91  H    0.091767
    92  H    0.103237
    93  H    0.133501
    94  H    0.144449
    95  H    0.171671
    96  H    0.104098
    97  H    0.144376
    98  H    0.134425
    99  H    0.119328
   100  H    0.110296
   101  H    0.091382
   102  H    0.122140
   103  H    0.089588
   104  H    0.138607
   105  H    0.107325
   106  H    0.108764
   107  H    0.103695
   108  H    0.093159
   109  H    0.061294
   110  H    0.090147
   111  H    0.086965
   112  H    0.090844
   113  H    0.109650
   114  H    0.107550
   115  H    0.091059
   116  H    0.075580
   117  H    0.107694
   118  H    0.098784
   119  H    0.065950
   120  H    0.056655
   121  H    0.090250
   122  H    0.101591
   123  H    0.107871
   124  H    0.087898
   125  H    0.097711
   126  H    0.073510
   127  H    0.111011
   128  H    0.098167
   129  H    0.077821
   130  H    0.092830
   131  H    0.074406
   132  H    0.099283
   133  H    0.080716
   134  H    0.102389
   135  H    0.106233
   136  H    0.095765
   137  H    0.090182
 Sum of Mulliken charges =   0.00000

 Dipole moment (field-independent basis, Debye):
    X=              3.5692    Y=              3.8200    Z=              0.9349  Tot=              5.3109
 Quadrupole moment (field-independent basis, Debye-Ang):
   XX=           -342.5176   YY=           -391.5295   ZZ=           -399.9922
   XY=            -23.3498   XZ=              5.3338   YZ=             -6.7366

 Normal termination of Gaussian 09 at Sat Jul  6 03:12:55 2019.
