 Gaussian 09, Revision D.01,
 Gaussian 09:  ES64L-G09RevD.01 24-Apr-2013

 -------------------------------------
 # td=(NStates=1) CAM-B3LYP/6-31G(d,p)
 -------------------------------------

 --
 TD
 --
 Symbolic Z-matrix:
 Charge =  0 Multiplicity = 1

                         Standard orientation:
 ---------------------------------------------------------------------
 Center     Atomic      Atomic             Coordinates (Angstroms)
 Number     Number       Type             X           Y           Z
 ---------------------------------------------------------------------
      1         12           0       -7.185100    0.546731    0.124197
      2          6           0       -4.780429   -1.950095    0.476656
      3          6           0       -4.816009    2.827543    1.254865
      4          6           0       -9.460753    3.095190   -0.376001
      5          6           0       -9.659855   -1.744060   -0.663803
      6          7           0       -5.144301    0.418202    0.664837
      7          6           0       -4.381323   -0.781733    0.894765
      8          6           0       -2.831573   -0.380492    1.215118
      9          6           0       -2.992613    1.031858    1.652878
     10          6           0       -4.447380    1.383228    1.117593
     11          6           0       -2.684326    1.218278    3.187865
     12          6           0       -1.943101   -0.652769    0.125880
     13          6           0       -0.495862   -0.307592    0.405918
     14          6           0        0.475537   -0.550468   -0.711608
     15          8           0        0.187462   -1.003058   -1.808284
     16          8           0        1.775345   -0.388597   -0.231704
     17          7           0       -7.207579    2.542907    0.341108
     18          6           0       -6.111515    3.221928    0.709715
     19          6           0       -6.401735    4.638558    0.805848
     20          6           0       -7.741001    4.737870    0.423758
     21          6           0       -8.195259    3.456168    0.059921
     22          6           0       -5.437702    5.828403    1.050205
     23          6           0       -8.409472    6.029519    0.071050
     24          6           0       -8.361202    7.215884    0.638059
     25          7           0       -9.190592    0.733390   -0.412989
     26          6           0       -9.950200    1.801784   -0.573902
     27          6           0      -11.287712    1.454168   -1.088267
     28          6           0      -11.307791    0.031838   -1.140791
     29          6           0       -9.954673   -0.390058   -0.788968
     30          6           0      -12.313169    2.518056   -1.370110
     31          6           0      -12.442333   -0.784241   -1.577903
     32          6           0      -12.198282   -1.205708   -3.031655
     33          7           0       -7.245444   -1.459458   -0.019472
     34          6           0       -8.326951   -2.235690   -0.499627
     35          6           0       -7.899230   -3.610700   -0.480823
     36          6           0       -6.590842   -3.592616   -0.081427
     37          6           0       -6.114077   -2.209858    0.189679
     38          6           0       -8.767199   -4.808983   -0.967360
     39          6           0       -5.320068   -4.361656    0.143352
     40          8           0       -5.143635   -5.593929    0.255255
     41          6           0       -4.191728   -3.336714    0.426995
     42          6           0       -3.461339   -3.716396    1.784178
     43          8           0       -3.622322   -3.141938    2.837987
     44          8           0       -2.568397   -4.699262    1.519175
     45          6           0       -1.940952   -5.150157    2.744153
     46          6           0        2.867164   -0.511576   -1.312484
     47          6           0        4.135323   -0.254627   -0.639558
     48          6           0        5.165079    0.582802   -1.003388
     49          6           0        5.161362    1.391587   -2.313712
     50          6           0        6.384932    0.628769   -0.160448
     51          6           0        7.615798    0.049581   -0.903187
     52          6           0        8.838649   -0.130010   -0.018923
     53          6           0       10.037123   -0.541033   -0.847190
     54          6           0       10.027805   -2.008542   -1.260241
     55          6           0       11.313566   -0.375149    0.071286
     56          6           0       12.656115   -0.592362   -0.629217
     57          6           0       13.918623   -0.053916    0.212190
     58          6           0       15.304108   -0.168268   -0.423988
     59          6           0       15.741841   -1.602977   -0.781716
     60          6           0       16.366867    0.504372    0.458295
     61          6           0       17.763888    0.640898   -0.226403
     62          6           0       18.816062    1.184204    0.755472
     63          6           0       20.241720    1.141983    0.154678
     64          6           0       20.369645    2.133578   -1.056601
     65          6           0       21.222317    1.686265    1.346654
     66          1           0       -3.963916    3.331058    1.585723
     67          1           0      -10.264855    3.984222   -0.405513
     68          1           0      -10.430365   -2.549809   -0.845261
     69          1           0       -2.623718   -0.999727    2.141116
     70          1           0       -2.192515    1.748160    1.163050
     71          1           0       -1.728687    0.903062    3.306898
     72          1           0       -2.611090    2.175753    3.448119
     73          1           0       -3.350528    0.776431    3.666185
     74          1           0       -1.994265   -1.820252   -0.146747
     75          1           0       -2.259656   -0.057448   -0.705504
     76          1           0       -0.237744    0.580944    0.863624
     77          1           0       -0.158363   -1.119769    1.153003
     78          1           0       -5.515032    6.645284    0.617112
     79          1           0       -5.529693    6.131605    2.110332
     80          1           0       -4.317366    5.540460    0.895186
     81          1           0       -9.223222    5.982973   -0.581698
     82          1           0       -8.932300    8.206988    0.235890
     83          1           0       -7.743582    7.420797    1.330833
     84          1           0      -11.927098    3.155098   -2.209632
     85          1           0      -13.264804    2.022600   -1.359338
     86          1           0      -12.478363    3.326922   -0.543847
     87          1           0      -12.582119   -1.593645   -0.899232
     88          1           0      -13.371727   -0.026968   -1.414986
     89          1           0      -13.222788   -1.685616   -3.300473
     90          1           0      -11.953063   -0.344459   -3.770901
     91          1           0      -11.235166   -1.898884   -3.361699
     92          1           0       -8.956602   -4.642370   -2.058385
     93          1           0       -8.159466   -5.599009   -0.555369
     94          1           0       -9.791493   -4.762415   -0.584458
     95          1           0       -3.348411   -3.526341   -0.433413
     96          1           0       -1.540522   -4.201843    3.185220
     97          1           0       -2.587178   -5.864890    3.435961
     98          1           0       -0.954112   -5.714271    2.271933
     99          1           0        2.813268   -1.475043   -1.911810
    100          1           0        2.817076    0.239430   -2.046842
    101          1           0        4.507881   -0.879840    0.253725
    102          1           0        4.252000    1.324897   -2.649497
    103          1           0        5.615631    2.395821   -2.003410
    104          1           0        5.460110    0.933942   -3.252076
    105          1           0        6.688703    1.590086    0.012241
    106          1           0        6.325882    0.066934    0.712876
    107          1           0        7.286270   -1.105698   -1.486114
    108          1           0        7.755497    0.668996   -1.815986
    109          1           0        8.919519    0.970134    0.567823
    110          1           0        8.662646   -0.860126    0.711118
    111          1           0       10.197625    0.014584   -1.685532
    112          1           0        9.239594   -2.257081   -1.990951
    113          1           0       10.938495   -2.345892   -1.764231
    114          1           0        9.958223   -2.677523   -0.566463
    115          1           0       11.297176    0.422334    0.679258
    116          1           0       11.180367   -1.290099    0.883358
    117          1           0       12.866194   -1.647067   -0.802614
    118          1           0       12.778646   -0.103790   -1.678315
    119          1           0       13.920405    1.091149    0.581992
    120          1           0       13.955051   -0.687343    0.979086
    121          1           0       15.272578    0.256559   -1.318632
    122          1           0       15.746036   -2.321889    0.085726
    123          1           0       15.032005   -1.974152   -1.620809
    124          1           0       16.717997   -1.586427   -1.353022
    125          1           0       16.061379    1.531677    0.697416
    126          1           0       16.468815    0.021034    1.629282
    127          1           0       18.236058   -0.336141   -0.527935
    128          1           0       17.783972    1.244135   -1.134629
    129          1           0       18.567775    2.252202    0.846592
    130          1           0       18.678633    0.456101    1.454188
    131          1           0       20.634609    0.199332    0.045005
    132          1           0       19.919774    3.027484   -0.902379
    133          1           0       21.398199    2.317741   -1.197211
    134          1           0       19.757959    1.694078   -1.934390
    135          1           0       21.156884    1.125547    2.242147
    136          1           0       22.163531    1.344649    0.755455
    137          1           0       20.891148    2.687642    1.501312
 ---------------------------------------------------------------------

 SCF Done:  E(RCAM-B3LYP) =  -2932.57919540     A.U. after   17 cycles

 Excitation energies and oscillator strengths:

 Excited State   1:      Singlet-A      2.0732 eV  598.04 nm  f=0.2282  <S**2>=0.000
     240 -> 243       -0.22840
     241 -> 242        0.66301
 This state for optimization and/or second-order correction.
 Total Energy, E(TD-HF/TD-KS) =  -2932.50300757
 Copying the excited state density for this state as the 1-particle RhoCI density.

 The electronic state is 1-A.
 Alpha  occ. eigenvalues --  -46.83931 -19.26897 -19.25863 -19.21797 -19.21033
 Alpha  occ. eigenvalues --  -19.19337 -14.42491 -14.39400 -14.39372 -14.39350
 Alpha  occ. eigenvalues --  -10.39821 -10.39187 -10.34891 -10.33310 -10.32287
 Alpha  occ. eigenvalues --  -10.31612 -10.30920 -10.30416 -10.29834 -10.29621
 Alpha  occ. eigenvalues --  -10.28994 -10.28882 -10.28855 -10.28795 -10.28462
 Alpha  occ. eigenvalues --  -10.28216 -10.28098 -10.28022 -10.27704 -10.27475
 Alpha  occ. eigenvalues --  -10.27431 -10.27400 -10.27343 -10.27291 -10.27029
 Alpha  occ. eigenvalues --  -10.26912 -10.26877 -10.26807 -10.26720 -10.26590
 Alpha  occ. eigenvalues --  -10.26574 -10.26571 -10.26364 -10.26298 -10.26286
 Alpha  occ. eigenvalues --  -10.26216 -10.26108 -10.26101 -10.25799 -10.25712
 Alpha  occ. eigenvalues --  -10.25594 -10.25385 -10.25365 -10.25331 -10.25271
 Alpha  occ. eigenvalues --  -10.25132 -10.24811 -10.24730 -10.24596 -10.24495
 Alpha  occ. eigenvalues --  -10.24270 -10.24200 -10.23582 -10.23059 -10.22833
 Alpha  occ. eigenvalues --   -3.13068  -1.87775  -1.87332  -1.87223  -1.18398
 Alpha  occ. eigenvalues --   -1.15401  -1.09954  -1.08307  -1.07677  -1.05210
 Alpha  occ. eigenvalues --   -1.04365  -1.02838  -1.01487  -0.92864  -0.91874
 Alpha  occ. eigenvalues --   -0.91609  -0.90359  -0.89714  -0.89455  -0.88901
 Alpha  occ. eigenvalues --   -0.88138  -0.87610  -0.86932  -0.86195  -0.86107
 Alpha  occ. eigenvalues --   -0.85158  -0.83833  -0.83135  -0.82888  -0.82814
 Alpha  occ. eigenvalues --   -0.81872  -0.80688  -0.80489  -0.80302  -0.79566
 Alpha  occ. eigenvalues --   -0.78684  -0.77864  -0.76683  -0.75780  -0.75444
 Alpha  occ. eigenvalues --   -0.75072  -0.74714  -0.74166  -0.73703  -0.72684
 Alpha  occ. eigenvalues --   -0.71923  -0.70285  -0.69485  -0.68935  -0.67697
 Alpha  occ. eigenvalues --   -0.66772  -0.65964  -0.65059  -0.65007  -0.64432
 Alpha  occ. eigenvalues --   -0.64125  -0.63463  -0.63349  -0.62966  -0.62425
 Alpha  occ. eigenvalues --   -0.61800  -0.61034  -0.60395  -0.59972  -0.59412
 Alpha  occ. eigenvalues --   -0.58781  -0.58277  -0.56967  -0.56805  -0.56400
 Alpha  occ. eigenvalues --   -0.56313  -0.55828  -0.55731  -0.55399  -0.55154
 Alpha  occ. eigenvalues --   -0.54494  -0.54476  -0.53913  -0.53777  -0.53144
 Alpha  occ. eigenvalues --   -0.52798  -0.52540  -0.52184  -0.51943  -0.51127
 Alpha  occ. eigenvalues --   -0.51051  -0.50945  -0.50784  -0.50638  -0.50561
 Alpha  occ. eigenvalues --   -0.50353  -0.50299  -0.50104  -0.49936  -0.49513
 Alpha  occ. eigenvalues --   -0.49249  -0.48991  -0.48846  -0.48430  -0.48041
 Alpha  occ. eigenvalues --   -0.48004  -0.47834  -0.47690  -0.47354  -0.47186
 Alpha  occ. eigenvalues --   -0.47056  -0.46968  -0.46785  -0.46405  -0.46313
 Alpha  occ. eigenvalues --   -0.46062  -0.45917  -0.45801  -0.45669  -0.45437
 Alpha  occ. eigenvalues --   -0.45337  -0.44941  -0.44689  -0.44510  -0.44317
 Alpha  occ. eigenvalues --   -0.43923  -0.43784  -0.43603  -0.43460  -0.43268
 Alpha  occ. eigenvalues --   -0.43114  -0.42718  -0.42578  -0.42258  -0.42167
 Alpha  occ. eigenvalues --   -0.41989  -0.41664  -0.41549  -0.41536  -0.41377
 Alpha  occ. eigenvalues --   -0.41020  -0.40793  -0.40747  -0.40552  -0.40389
 Alpha  occ. eigenvalues --   -0.40066  -0.39959  -0.39753  -0.39357  -0.39209
 Alpha  occ. eigenvalues --   -0.39108  -0.39019  -0.38797  -0.38570  -0.38368
 Alpha  occ. eigenvalues --   -0.37430  -0.37150  -0.37090  -0.37007  -0.36463
 Alpha  occ. eigenvalues --   -0.36336  -0.36258  -0.36214  -0.35938  -0.35403
 Alpha  occ. eigenvalues --   -0.35373  -0.35077  -0.34264  -0.34090  -0.33495
 Alpha  occ. eigenvalues --   -0.32750  -0.32217  -0.32129  -0.31189  -0.29310
 Alpha  occ. eigenvalues --   -0.28964  -0.28927  -0.28023  -0.27432  -0.23460
 Alpha  occ. eigenvalues --   -0.21220
 Alpha virt. eigenvalues --   -0.06363  -0.02739   0.01609   0.04665   0.05029
 Alpha virt. eigenvalues --    0.05727   0.06108   0.06250   0.06832   0.07060
 Alpha virt. eigenvalues --    0.07956   0.10641   0.11065   0.11461   0.11758

 Mulliken charges:
               1
     1  Mg   0.818535
     2  C    0.148985
     3  C   -0.178463
     4  C   -0.206882
     5  C   -0.143401
     6  N   -0.604300
     7  C    0.206772
     8  C   -0.136158
     9  C   -0.178171
    10  C    0.354128
    11  C   -0.287984
    12  C   -0.145539
    13  C   -0.269212
    14  C    0.614862
    15  O   -0.473704
    16  O   -0.510988
    17  N   -0.718881
    18  C    0.326801
    19  C    0.007827
    20  C   -0.021262
    21  C    0.329490
    22  C   -0.347940
    23  C   -0.057210
    24  C   -0.234575
    25  N   -0.674834
    26  C    0.329157
    27  C    0.010121
    28  C    0.015081
    29  C    0.275839
    30  C   -0.370382
    31  C   -0.232132
    32  C   -0.296072
    33  N   -0.731507
    34  C    0.239902
    35  C   -0.031362
    36  C   -0.006501
    37  C    0.246561
    38  C   -0.354251
    39  C    0.373166
    40  O   -0.483307
    41  C   -0.335472
    42  C    0.635198
    43  O   -0.467154
    44  O   -0.437862
    45  C   -0.084349
    46  C    0.010071
    47  C   -0.132238
    48  C    0.108666
    49  C   -0.345418
    50  C   -0.223956
    51  C   -0.167125
    52  C   -0.148742
    53  C   -0.054240
    54  C   -0.321662
    55  C   -0.159635
    56  C   -0.193283
    57  C   -0.168720
    58  C   -0.048314
    59  C   -0.316736
    60  C   -0.160967
    61  C   -0.201859
    62  C   -0.145351
    63  C   -0.092394
    64  C   -0.310878
    65  C   -0.311342
    66  H    0.087222
    67  H    0.090653
    68  H    0.105662
    69  H    0.122463
    70  H    0.085256
    71  H    0.116315
    72  H    0.109166
    73  H    0.131830
    74  H    0.102181
    75  H    0.120624
    76  H    0.137572
    77  H    0.135464
    78  H    0.132030
    79  H    0.120364
    80  H    0.098345
    81  H    0.086322
    82  H    0.088045
    83  H    0.088987
    84  H    0.129561
    85  H    0.112675
    86  H    0.107413
    87  H    0.119213
    88  H    0.092782
    89  H    0.097988
    90  H    0.112943
    91  H    0.098584
    92  H    0.130096
    93  H    0.153089
    94  H    0.115017
    95  H    0.158167
    96  H    0.136166
    97  H    0.138186
    98  H    0.104882
    99  H    0.139438
   100  H    0.123365
   101  H    0.080445
   102  H    0.108130
   103  H    0.112102
   104  H    0.124671
   105  H    0.107816
   106  H    0.106394
   107  H    0.037386
   108  H    0.099884
   109  H    0.059809
   110  H    0.109116
   111  H    0.097538
   112  H    0.094818
   113  H    0.101791
   114  H    0.114840
   115  H    0.100363
   116  H    0.052751
   117  H    0.107669
   118  H    0.074036
   119  H    0.065242
   120  H    0.105659
   121  H    0.095639
   122  H    0.097269
   123  H    0.082479
   124  H    0.102515
   125  H    0.090161
   126  H    0.052376
   127  H    0.084396
   128  H    0.087744
   129  H    0.085776
   130  H    0.098652
   131  H    0.092904
   132  H    0.113522
   133  H    0.106023
   134  H    0.093628
   135  H    0.105331
   136  H    0.087020
   137  H    0.107596
 Sum of Mulliken charges =   0.00000

 Dipole moment (field-independent basis, Debye):
    X=              2.2502    Y=              5.1023    Z=             -0.2222  Tot=              5.5808
 Quadrupole moment (field-independent basis, Debye-Ang):
   XX=           -350.3641   YY=           -398.3963   ZZ=           -396.5087
   XY=            -22.4389   XZ=              5.3498   YZ=             -2.6246

 Normal termination of Gaussian 09 at Fri Jul  5 12:34:23 2019.
