 Gaussian 16, Revision A.03,
 Gaussian 16:  ES64L-G16RevA.03 25-Dec-2016

 ----------------------------------------------------------------------
 # td=(NStates=1) iop(3/107=0140000000,3/108=0140000000) CAM-B3LYP/6-31
 G(d,p)
 ----------------------------------------------------------------------

 --
 TD
 --
 Symbolic Z-matrix:
 Charge =  0 Multiplicity = 1

                         Standard orientation:
 ---------------------------------------------------------------------
 Center     Atomic      Atomic             Coordinates (Angstroms)
 Number     Number       Type             X           Y           Z
 ---------------------------------------------------------------------
      1         12           0       -7.172287    0.590342    0.141121
      2          6           0       -4.853948   -1.953762    0.557486
      3          6           0       -4.852030    2.870395    1.242206
      4          6           0       -9.422279    3.135629   -0.430168
      5          6           0       -9.592751   -1.783876   -0.959490
      6          7           0       -5.097837    0.527989    0.720979
      7          6           0       -4.334169   -0.642535    0.795448
      8          6           0       -2.983890   -0.392891    1.217248
      9          6           0       -3.049933    1.069098    1.758080
     10          6           0       -4.410718    1.528573    1.177205
     11          6           0       -3.001076    1.204112    3.299930
     12          6           0       -1.923111   -0.507291    0.119944
     13          6           0       -0.411595   -0.676611    0.518252
     14          6           0        0.467728   -0.895745   -0.520133
     15          8           0        0.199670   -1.341049   -1.685149
     16          8           0        1.778123   -0.579396   -0.130658
     17          7           0       -7.050702    2.696335    0.395109
     18          6           0       -6.122177    3.398725    0.886248
     19          6           0       -6.453455    4.817285    0.857841
     20          6           0       -7.731241    4.844766    0.392254
     21          6           0       -8.186703    3.513891    0.004487
     22          6           0       -5.526144    5.968277    1.309437
     23          6           0       -8.467133    5.998094    0.049151
     24          6           0       -8.416900    7.205649    0.470700
     25          7           0       -9.158729    0.701365   -0.597924
     26          6           0       -9.886958    1.837316   -0.673062
     27          6           0      -11.232030    1.498985   -1.242524
     28          6           0      -11.253937    0.170504   -1.365890
     29          6           0       -9.951850   -0.392451   -0.883685
     30          6           0      -12.283279    2.515241   -1.439142
     31          6           0      -12.368706   -0.704435   -1.795493
     32          6           0      -12.220091   -1.106763   -3.336074
     33          7           0       -7.272931   -1.364615   -0.041314
     34          6           0       -8.272606   -2.117054   -0.654818
     35          6           0       -7.872463   -3.550719   -0.584048
     36          6           0       -6.551613   -3.575338   -0.092804
     37          6           0       -6.205207   -2.155619    0.151278
     38          6           0       -8.653141   -4.734361   -0.849397
     39          6           0       -5.390443   -4.345012    0.191715
     40          8           0       -5.135138   -5.567535    0.170731
     41          6           0       -4.196613   -3.307305    0.582202
     42          6           0       -3.612859   -3.683927    1.944019
     43          8           0       -3.848424   -3.014662    2.949727
     44          8           0       -2.759702   -4.740022    1.790751
     45          6           0       -2.339324   -5.179662    3.154820
     46          6           0        2.838925   -0.865118   -1.153482
     47          6           0        4.108794   -0.554694   -0.475330
     48          6           0        5.180642    0.241328   -0.840030
     49          6           0        5.107478    1.048513   -2.158503
     50          6           0        6.524163    0.286928   -0.206553
     51          6           0        7.686535   -0.293275   -0.966174
     52          6           0        9.012207   -0.194789   -0.192237
     53          6           0       10.311364   -0.635903   -0.908822
     54          6           0       10.154310   -2.041325   -1.451004
     55          6           0       11.512364   -0.307761   -0.046464
     56          6           0       12.860220   -0.426177   -0.792760
     57          6           0       13.965649   -0.071615    0.137505
     58          6           0       15.437656   -0.235606   -0.509144
     59          6           0       15.770644   -1.728719   -0.810692
     60          6           0       16.440758    0.565255    0.427028
     61          6           0       17.876578    0.539790   -0.216844
     62          6           0       18.814860    1.314522    0.671427
     63          6           0       20.301272    1.470401    0.198388
     64          6           0       20.337837    2.353421   -1.007984
     65          6           0       21.172970    2.046933    1.248026
     66          1           0       -4.244287    3.735056    1.724441
     67          1           0      -10.169280    3.911852   -0.575059
     68          1           0      -10.380228   -2.401757   -1.501966
     69          1           0       -2.731903   -0.958882    2.063197
     70          1           0       -2.217777    1.741440    1.298952
     71          1           0       -2.015273    0.997507    3.686640
     72          1           0       -3.333203    2.166347    3.587700
     73          1           0       -3.553871    0.437098    3.805077
     74          1           0       -2.215334   -1.388495   -0.554890
     75          1           0       -2.091903    0.336265   -0.589921
     76          1           0       -0.080249    0.168930    0.944079
     77          1           0       -0.497919   -1.490901    1.424001
     78          1           0       -5.399566    6.904937    0.711614
     79          1           0       -5.715934    6.213080    2.396265
     80          1           0       -4.405796    5.611872    1.216294
     81          1           0       -9.238548    5.897132   -0.876903
     82          1           0       -8.877106    8.049203    0.093155
     83          1           0       -7.570356    7.393585    1.189025
     84          1           0      -11.924931    3.456400   -2.154887
     85          1           0      -13.162711    2.205492   -2.119177
     86          1           0      -12.598468    3.014581   -0.701042
     87          1           0      -12.434947   -1.591524   -1.134214
     88          1           0      -13.272973   -0.224773   -1.440166
     89          1           0      -13.106966   -1.708091   -3.324135
     90          1           0      -12.491009   -0.264701   -3.960019
     91          1           0      -11.021763   -1.230661   -3.583213
     92          1           0       -8.793088   -4.930702   -2.062979
     93          1           0       -8.181848   -5.755265   -0.598665
     94          1           0       -9.737660   -4.885248   -0.293831
     95          1           0       -3.274777   -3.215012   -0.318196
     96          1           0       -1.680957   -4.442693    3.431899
     97          1           0       -3.099906   -5.328949    3.782915
     98          1           0       -1.903498   -6.156431    2.944446
     99          1           0        2.800039   -1.934129   -1.289753
    100          1           0        2.669678   -0.264195   -2.057861
    101          1           0        4.219903   -1.045222    0.414638
    102          1           0        4.111783    1.017172   -2.688511
    103          1           0        5.567889    1.999987   -1.818783
    104          1           0        5.743471    0.900065   -2.990844
    105          1           0        6.802914    1.406585    0.123220
    106          1           0        6.342167   -0.376095    0.763420
    107          1           0        7.429967   -1.451898   -1.327876
    108          1           0        7.832058    0.209241   -1.853621
    109          1           0        9.420549    0.759091    0.017297
    110          1           0        8.879481   -0.651682    0.548193
    111          1           0       10.276414    0.111141   -1.749940
    112          1           0        9.342485   -2.203896   -2.178884
    113          1           0       11.027649   -2.254257   -1.985623
    114          1           0       10.065105   -2.696382   -0.474486
    115          1           0       11.303336    0.714328    0.413079
    116          1           0       11.565441   -0.932352    0.888962
    117          1           0       12.951050   -1.495772   -1.169263
    118          1           0       12.736971    0.211907   -1.725677
    119          1           0       13.872571    0.965234    0.544977
    120          1           0       13.911978   -0.732672    1.022601
    121          1           0       15.455093    0.302394   -1.474265
    122          1           0       15.584850   -2.316115    0.093104
    123          1           0       14.897028   -1.955048   -1.447244
    124          1           0       16.555065   -2.075739   -1.233928
    125          1           0       16.072580    1.522858    0.564676
    126          1           0       16.509122   -0.131408    1.415181
    127          1           0       18.036374   -0.612036   -0.085194
    128          1           0       17.803243    0.964619   -1.326041
    129          1           0       18.287040    2.422120    0.911923
    130          1           0       18.769742    0.900165    1.734520
    131          1           0       20.735972    0.441155    0.037782
    132          1           0       19.605885    3.185410   -0.817572
    133          1           0       21.246985    2.772930   -1.332169
    134          1           0       19.934664    1.775782   -1.877701
    135          1           0       21.217735    1.630701    2.202710
    136          1           0       22.239785    2.103898    0.976670
    137          1           0       20.737090    3.175345    1.129792
 ---------------------------------------------------------------------

 SCF Done:  E(RCAM-B3LYP) =  -2933.49535206     A.U. after   16 cycles

 Excitation energies and oscillator strengths:

 Excited State   1:      Singlet-A      2.0618 eV  601.35 nm  f=0.2477  <S**2>=0.000
     240 -> 243       -0.26097
     241 -> 242        0.65462
 This state for optimization and/or second-order correction.
 Total Energy, E(TD-HF/TD-DFT) =  -2933.41958402
 Copying the excited state density for this state as the 1-particle RhoCI density.

 The electronic state is 1-A.
 Alpha  occ. eigenvalues --  -46.80723 -19.22389 -19.21336 -19.17104 -19.16310
 Alpha  occ. eigenvalues --  -19.15318 -14.37731 -14.36236 -14.35544 -14.34846
 Alpha  occ. eigenvalues --  -10.34740 -10.34340 -10.30323 -10.27384 -10.26396
 Alpha  occ. eigenvalues --  -10.26227 -10.25762 -10.25419 -10.25262 -10.25172
 Alpha  occ. eigenvalues --  -10.25040 -10.24661 -10.24658 -10.24600 -10.24442
 Alpha  occ. eigenvalues --  -10.24159 -10.24056 -10.23856 -10.23683 -10.23650
 Alpha  occ. eigenvalues --  -10.23615 -10.23492 -10.23201 -10.23028 -10.22637
 Alpha  occ. eigenvalues --  -10.22623 -10.22444 -10.22256 -10.22232 -10.22145
 Alpha  occ. eigenvalues --  -10.22020 -10.21958 -10.21920 -10.21857 -10.21794
 Alpha  occ. eigenvalues --  -10.21764 -10.21690 -10.21654 -10.21603 -10.21466
 Alpha  occ. eigenvalues --  -10.21459 -10.21425 -10.21362 -10.21309 -10.21265
 Alpha  occ. eigenvalues --  -10.21148 -10.21133 -10.20955 -10.20499 -10.20385
 Alpha  occ. eigenvalues --  -10.19968 -10.19938 -10.19729 -10.19044 -10.17901
 Alpha  occ. eigenvalues --   -3.09189  -1.84146  -1.83662  -1.83577  -1.11702
 Alpha  occ. eigenvalues --   -1.09617  -1.03890  -1.03485  -1.01073  -1.00296
 Alpha  occ. eigenvalues --   -0.99006  -0.98543  -0.97239  -0.86876  -0.86526
 Alpha  occ. eigenvalues --   -0.85686  -0.85056  -0.84892  -0.84513  -0.83737
 Alpha  occ. eigenvalues --   -0.83215  -0.83058  -0.82451  -0.82261  -0.81391
 Alpha  occ. eigenvalues --   -0.80269  -0.79285  -0.78519  -0.78443  -0.78160
 Alpha  occ. eigenvalues --   -0.76779  -0.76515  -0.76040  -0.75312  -0.73966
 Alpha  occ. eigenvalues --   -0.72950  -0.72418  -0.71933  -0.71293  -0.71226
 Alpha  occ. eigenvalues --   -0.70851  -0.70261  -0.69851  -0.68837  -0.67420
 Alpha  occ. eigenvalues --   -0.67176  -0.66746  -0.65663  -0.64134  -0.64007
 Alpha  occ. eigenvalues --   -0.63098  -0.62072  -0.61143  -0.60676  -0.60233
 Alpha  occ. eigenvalues --   -0.60223  -0.59261  -0.58382  -0.58020  -0.57811
 Alpha  occ. eigenvalues --   -0.57294  -0.56410  -0.56068  -0.55288  -0.54952
 Alpha  occ. eigenvalues --   -0.54509  -0.54383  -0.53501  -0.53045  -0.52456
 Alpha  occ. eigenvalues --   -0.52316  -0.51894  -0.51593  -0.51462  -0.51117
 Alpha  occ. eigenvalues --   -0.50809  -0.50436  -0.49832  -0.49794  -0.49398
 Alpha  occ. eigenvalues --   -0.49152  -0.48617  -0.48510  -0.48296  -0.48205
 Alpha  occ. eigenvalues --   -0.47816  -0.47734  -0.47643  -0.47187  -0.46845
 Alpha  occ. eigenvalues --   -0.46625  -0.46537  -0.46273  -0.46071  -0.45892
 Alpha  occ. eigenvalues --   -0.45811  -0.45617  -0.45113  -0.44973  -0.44653
 Alpha  occ. eigenvalues --   -0.44547  -0.44314  -0.43989  -0.43611  -0.43412
 Alpha  occ. eigenvalues --   -0.43345  -0.43218  -0.42897  -0.42551  -0.42447
 Alpha  occ. eigenvalues --   -0.42048  -0.41738  -0.41583  -0.41489  -0.41372
 Alpha  occ. eigenvalues --   -0.41035  -0.40940  -0.40883  -0.40778  -0.40701
 Alpha  occ. eigenvalues --   -0.40502  -0.40128  -0.40113  -0.39924  -0.39576
 Alpha  occ. eigenvalues --   -0.39427  -0.39393  -0.39285  -0.39025  -0.38856
 Alpha  occ. eigenvalues --   -0.38703  -0.38623  -0.38395  -0.38135  -0.38118
 Alpha  occ. eigenvalues --   -0.38030  -0.37792  -0.37683  -0.37277  -0.36976
 Alpha  occ. eigenvalues --   -0.36720  -0.36495  -0.36034  -0.35668  -0.35517
 Alpha  occ. eigenvalues --   -0.35460  -0.35401  -0.35180  -0.34714  -0.34495
 Alpha  occ. eigenvalues --   -0.34420  -0.34107  -0.33900  -0.33798  -0.33467
 Alpha  occ. eigenvalues --   -0.33400  -0.33203  -0.33193  -0.32718  -0.32508
 Alpha  occ. eigenvalues --   -0.32208  -0.32180  -0.31715  -0.30420  -0.30028
 Alpha  occ. eigenvalues --   -0.29953  -0.29701  -0.29600  -0.27844  -0.27124
 Alpha  occ. eigenvalues --   -0.26645  -0.26239  -0.25902  -0.25186  -0.21495
 Alpha  occ. eigenvalues --   -0.19964
 Alpha virt. eigenvalues --   -0.06892  -0.03731  -0.00941   0.01266   0.02672
 Alpha virt. eigenvalues --    0.03074   0.03620   0.04630   0.05019   0.05618
 Alpha virt. eigenvalues --    0.06207   0.08258   0.09280   0.10071   0.10261

 Mulliken charges:
               1
     1  Mg   0.823232
     2  C    0.110853
     3  C   -0.207373
     4  C   -0.148165
     5  C   -0.154004
     6  N   -0.619889
     7  C    0.298604
     8  C   -0.154567
     9  C   -0.151433
    10  C    0.356496
    11  C   -0.322022
    12  C   -0.182105
    13  C   -0.251556
    14  C    0.629950
    15  O   -0.503544
    16  O   -0.507085
    17  N   -0.713037
    18  C    0.363660
    19  C    0.033820
    20  C    0.006805
    21  C    0.282844
    22  C   -0.389357
    23  C   -0.055475
    24  C   -0.254429
    25  N   -0.687821
    26  C    0.291113
    27  C    0.070657
    28  C   -0.001069
    29  C    0.272575
    30  C   -0.384177
    31  C   -0.274317
    32  C   -0.316654
    33  N   -0.745961
    34  C    0.270581
    35  C    0.043325
    36  C    0.090690
    37  C    0.275485
    38  C   -0.405418
    39  C    0.325481
    40  O   -0.484319
    41  C   -0.338202
    42  C    0.637159
    43  O   -0.479779
    44  O   -0.451735
    45  C   -0.091953
    46  C    0.030110
    47  C   -0.127999
    48  C    0.138184
    49  C   -0.371437
    50  C   -0.229738
    51  C   -0.165963
    52  C   -0.127918
    53  C   -0.082401
    54  C   -0.297205
    55  C   -0.176555
    56  C   -0.169557
    57  C   -0.176567
    58  C   -0.068103
    59  C   -0.315261
    60  C   -0.169725
    61  C   -0.160308
    62  C   -0.144836
    63  C   -0.051930
    64  C   -0.308962
    65  C   -0.283517
    66  H    0.066018
    67  H    0.090116
    68  H    0.121112
    69  H    0.122200
    70  H    0.092805
    71  H    0.107914
    72  H    0.118595
    73  H    0.130827
    74  H    0.112540
    75  H    0.110314
    76  H    0.148549
    77  H    0.135041
    78  H    0.131119
    79  H    0.130747
    80  H    0.098999
    81  H    0.062472
    82  H    0.103287
    83  H    0.078408
    84  H    0.078780
    85  H    0.105632
    86  H    0.142582
    87  H    0.104037
    88  H    0.105703
    89  H    0.124456
    90  H    0.119196
    91  H    0.114629
    92  H    0.104146
    93  H    0.146927
    94  H    0.106595
    95  H    0.133208
    96  H    0.135628
    97  H    0.149431
    98  H    0.128134
    99  H    0.137797
   100  H    0.123489
   101  H    0.082033
   102  H    0.101327
   103  H    0.105743
   104  H    0.125171
   105  H    0.088540
   106  H    0.081656
   107  H    0.073350
   108  H    0.101441
   109  H    0.082692
   110  H    0.089125
   111  H    0.070434
   112  H    0.105665
   113  H    0.103450
   114  H    0.083494
   115  H    0.082459
   116  H    0.082987
   117  H    0.098490
   118  H    0.087424
   119  H    0.089309
   120  H    0.092501
   121  H    0.079706
   122  H    0.096101
   123  H    0.097374
   124  H    0.115939
   125  H    0.096203
   126  H    0.066085
   127  H    0.091685
   128  H    0.082184
   129  H    0.048441
   130  H    0.082300
   131  H    0.078122
   132  H    0.098390
   133  H    0.108826
   134  H    0.096741
   135  H    0.102982
   136  H    0.094767
   137  H    0.067234
 Sum of Mulliken charges =  -0.00000

 Dipole moment (field-independent basis, Debye):
    X=              1.5360    Y=              3.4452    Z=              0.8434  Tot=              3.8652
 Quadrupole moment (field-independent basis, Debye-Ang):
   XX=           -336.8319   YY=           -398.5157   ZZ=           -393.7249
   XY=            -21.8304   XZ=              6.0812   YZ=             -8.6174

 Normal termination of Gaussian 16 at Mon Sep 16 06:40:25 2019.
