 Gaussian 09, Revision D.01,
 Gaussian 09:  ES64L-G09RevD.01 24-Apr-2013

 -------------------------------------
 # td=(NStates=1) CAM-B3LYP/6-31G(d,p)
 -------------------------------------

 --
 TD
 --
 Symbolic Z-matrix:
 Charge =  0 Multiplicity = 1

                         Standard orientation:
 ---------------------------------------------------------------------
 Center     Atomic      Atomic             Coordinates (Angstroms)
 Number     Number       Type             X           Y           Z
 ---------------------------------------------------------------------
      1         12           0       -7.066608    0.600780    0.057694
      2          6           0       -4.807061   -1.987285    0.372939
      3          6           0       -4.773239    2.899894    1.176856
      4          6           0       -9.303453    3.122976   -0.450207
      5          6           0       -9.583578   -1.763395   -0.818594
      6          7           0       -5.094535    0.460576    0.667145
      7          6           0       -4.312932   -0.755365    0.776361
      8          6           0       -2.929570   -0.412696    1.230768
      9          6           0       -3.054187    1.010388    1.588608
     10          6           0       -4.390720    1.484646    1.071987
     11          6           0       -2.889210    1.338385    3.153450
     12          6           0       -1.897245   -0.585279    0.065204
     13          6           0       -0.419278   -0.376043    0.528645
     14          6           0        0.547252   -0.707781   -0.629323
     15          8           0        0.240396   -1.090322   -1.725215
     16          8           0        1.757822   -0.387793   -0.206916
     17          7           0       -7.066938    2.594935    0.383032
     18          6           0       -5.935635    3.325596    0.738584
     19          6           0       -6.359325    4.757319    0.698281
     20          6           0       -7.616062    4.876796    0.344978
     21          6           0       -7.971439    3.446278   -0.036677
     22          6           0       -5.436282    5.833900    1.238291
     23          6           0       -8.665064    5.962494    0.126337
     24          6           0       -8.566261    7.183253    0.736008
     25          7           0       -9.055632    0.702997   -0.562159
     26          6           0       -9.753909    1.819787   -0.615887
     27          6           0      -11.174054    1.458038   -1.070454
     28          6           0      -11.206057    0.114093   -1.237983
     29          6           0       -9.822781   -0.362777   -0.913079
     30          6           0      -12.265394    2.449978   -1.244077
     31          6           0      -12.392232   -0.718647   -1.625012
     32          6           0      -12.348533   -1.189080   -3.128656
     33          7           0       -7.206494   -1.416769   -0.208858
     34          6           0       -8.270480   -2.231055   -0.522761
     35          6           0       -7.838521   -3.637156   -0.493850
     36          6           0       -6.518678   -3.564294   -0.134470
     37          6           0       -6.139192   -2.279490    0.060010
     38          6           0       -8.687220   -4.717939   -0.842920
     39          6           0       -5.305157   -4.292885    0.232382
     40          8           0       -5.245869   -5.470846    0.262786
     41          6           0       -4.168528   -3.265276    0.492131
     42          6           0       -3.505214   -3.701372    1.801781
     43          8           0       -3.858738   -3.211245    2.824244
     44          8           0       -2.588716   -4.661972    1.707341
     45          6           0       -2.193223   -5.189534    3.091390
     46          6           0        2.754879   -0.550582   -1.189519
     47          6           0        4.105541   -0.518529   -0.537114
     48          6           0        5.049257    0.305492   -0.955074
     49          6           0        5.080335    1.219706   -2.130079
     50          6           0        6.292902    0.393590   -0.281276
     51          6           0        7.509052   -0.044369   -1.050342
     52          6           0        8.837281    0.066327   -0.284569
     53          6           0       10.067245   -0.515161   -0.920171
     54          6           0        9.958222   -1.961105   -1.251757
     55          6           0       11.392288   -0.321741    0.029978
     56          6           0       12.664746   -0.660870   -0.527482
     57          6           0       13.930005   -0.215625    0.284904
     58          6           0       15.343585   -0.222255   -0.407023
     59          6           0       15.678878   -1.705275   -0.863166
     60          6           0       16.406690    0.407766    0.466384
     61          6           0       17.772491    0.629584   -0.164934
     62          6           0       18.802837    1.328487    0.665469
     63          6           0       20.311927    1.344278    0.213628
     64          6           0       20.422311    2.058156   -1.127500
     65          6           0       21.183180    1.999339    1.343987
     66          1           0       -4.019296    3.558039    1.579406
     67          1           0      -10.045172    3.975872   -0.736037
     68          1           0      -10.369197   -2.513980   -0.929470
     69          1           0       -2.731786   -1.095175    2.022358
     70          1           0       -2.290367    1.586502    1.056983
     71          1           0       -2.048335    0.757980    3.409316
     72          1           0       -2.644395    2.550041    3.342487
     73          1           0       -3.763280    0.945028    3.818126
     74          1           0       -1.891466   -1.649962   -0.405946
     75          1           0       -2.297844    0.069277   -0.747895
     76          1           0       -0.290442    0.578038    0.877497
     77          1           0       -0.273168   -1.034063    1.333808
     78          1           0       -5.448832    6.696182    0.633492
     79          1           0       -5.344332    5.954025    2.336947
     80          1           0       -4.343974    5.592272    1.000855
     81          1           0       -9.674028    5.789711   -0.568167
     82          1           0       -9.275518    7.971255    0.766711
     83          1           0       -7.746497    7.331172    1.442005
     84          1           0      -11.996336    3.232479   -1.970260
     85          1           0      -13.215835    1.888301   -1.585053
     86          1           0      -12.624618    2.977671   -0.232468
     87          1           0      -12.362607   -1.640114   -0.959099
     88          1           0      -13.324149   -0.076273   -1.419615
     89          1           0      -13.127191   -1.959479   -3.370623
     90          1           0      -12.403004   -0.214722   -3.742141
     91          1           0      -11.191995   -1.489661   -3.208073
     92          1           0       -9.148260   -4.602931   -1.804394
     93          1           0       -8.216875   -5.791096   -0.650978
     94          1           0       -9.676113   -4.941007   -0.184609
     95          1           0       -3.545231   -3.221898   -0.150836
     96          1           0       -1.490574   -4.454564    3.477921
     97          1           0       -3.022163   -5.342960    3.680849
     98          1           0       -1.910064   -6.227784    2.844352
     99          1           0        2.669810   -1.464720   -1.656029
    100          1           0        2.748281    0.036958   -2.106666
    101          1           0        4.360501   -1.286898    0.182662
    102          1           0        4.092096    1.421280   -2.804167
    103          1           0        5.471828    2.184028   -1.951738
    104          1           0        5.775926    0.831054   -2.952381
    105          1           0        6.686915    1.293622    0.033560
    106          1           0        6.462811   -0.174372    0.651909
    107          1           0        7.420489   -1.137643   -1.490472
    108          1           0        7.683415    0.378389   -1.960946
    109          1           0        9.130704    0.962232    0.044418
    110          1           0        8.713999   -0.601550    0.661273
    111          1           0       10.406479    0.170931   -1.862252
    112          1           0        8.889239   -2.096522   -1.946386
    113          1           0       10.746174   -2.363476   -1.688987
    114          1           0        9.829149   -2.372440   -0.229152
    115          1           0       11.214062    0.589872    0.518428
    116          1           0       10.946467   -0.877797    0.973719
    117          1           0       12.653234   -1.779625   -0.737117
    118          1           0       12.599420    0.026538   -1.496745
    119          1           0       13.947964    0.686619    0.917709
    120          1           0       14.119354   -0.674681    1.280604
    121          1           0       15.211835    0.428808   -1.394776
    122          1           0       15.606658   -2.595762   -0.190368
    123          1           0       15.179063   -1.910286   -1.880664
    124          1           0       16.678066   -1.896194   -1.271487
    125          1           0       16.080783    1.400690    0.999788
    126          1           0       16.661457   -0.444145    1.273251
    127          1           0       18.241726   -0.301079   -0.357168
    128          1           0       17.674014    0.858615   -1.292240
    129          1           0       18.565316    2.309220    0.930183
    130          1           0       18.732510    0.749740    1.688328
    131          1           0       20.663915    0.220027    0.097275
    132          1           0       19.918535    3.094526   -1.364389
    133          1           0       21.495027    2.040933   -1.373204
    134          1           0       19.869505    1.482594   -2.018469
    135          1           0       21.155643    1.338291    2.211608
    136          1           0       22.198734    1.965597    0.935543
    137          1           0       20.910053    2.982196    1.671441
 ---------------------------------------------------------------------

 SCF Done:  E(RCAM-B3LYP) =  -2932.67563139     A.U. after   16 cycles

 Excitation energies and oscillator strengths:

 Excited State   1:      Singlet-A      2.0773 eV  596.85 nm  f=0.3140  <S**2>=0.000
     240 -> 243       -0.19373
     241 -> 242        0.67404
 This state for optimization and/or second-order correction.
 Total Energy, E(TD-HF/TD-KS) =  -2932.59929174
 Copying the excited state density for this state as the 1-particle RhoCI density.

 The electronic state is 1-A.
 Alpha  occ. eigenvalues --  -46.83693 -19.27462 -19.26232 -19.21622 -19.19916
 Alpha  occ. eigenvalues --  -19.19097 -14.42550 -14.39709 -14.39025 -14.37966
 Alpha  occ. eigenvalues --  -10.39525 -10.38372 -10.33506 -10.31921 -10.31535
 Alpha  occ. eigenvalues --  -10.30583 -10.30323 -10.30181 -10.30028 -10.29786
 Alpha  occ. eigenvalues --  -10.29178 -10.28744 -10.28390 -10.27873 -10.27870
 Alpha  occ. eigenvalues --  -10.27775 -10.27620 -10.27580 -10.27489 -10.27406
 Alpha  occ. eigenvalues --  -10.27375 -10.27222 -10.27177 -10.27060 -10.26959
 Alpha  occ. eigenvalues --  -10.26938 -10.26892 -10.26856 -10.26814 -10.26709
 Alpha  occ. eigenvalues --  -10.26682 -10.26599 -10.26470 -10.26439 -10.26413
 Alpha  occ. eigenvalues --  -10.26296 -10.26178 -10.26108 -10.25800 -10.25777
 Alpha  occ. eigenvalues --  -10.25638 -10.25489 -10.25472 -10.25406 -10.25388
 Alpha  occ. eigenvalues --  -10.25379 -10.25367 -10.25231 -10.25133 -10.24966
 Alpha  occ. eigenvalues --  -10.24931 -10.24757 -10.24645 -10.24582 -10.22707
 Alpha  occ. eigenvalues --   -3.12826  -1.87539  -1.87063  -1.87002  -1.20512
 Alpha  occ. eigenvalues --   -1.18074  -1.12121  -1.10931  -1.08948  -1.05212
 Alpha  occ. eigenvalues --   -1.04158  -1.03214  -1.01648  -0.93989  -0.93333
 Alpha  occ. eigenvalues --   -0.90911  -0.90612  -0.89689  -0.89279  -0.88814
 Alpha  occ. eigenvalues --   -0.87899  -0.87870  -0.87004  -0.86518  -0.85835
 Alpha  occ. eigenvalues --   -0.85421  -0.84232  -0.83623  -0.83055  -0.82257
 Alpha  occ. eigenvalues --   -0.81742  -0.81163  -0.80843  -0.80424  -0.78235
 Alpha  occ. eigenvalues --   -0.78080  -0.77399  -0.76922  -0.75635  -0.75553
 Alpha  occ. eigenvalues --   -0.75501  -0.75071  -0.74226  -0.73989  -0.71762
 Alpha  occ. eigenvalues --   -0.71455  -0.70558  -0.69492  -0.68371  -0.67647
 Alpha  occ. eigenvalues --   -0.67425  -0.66476  -0.65974  -0.65354  -0.65072
 Alpha  occ. eigenvalues --   -0.64692  -0.63982  -0.62776  -0.62468  -0.61929
 Alpha  occ. eigenvalues --   -0.61902  -0.61062  -0.60162  -0.59785  -0.59461
 Alpha  occ. eigenvalues --   -0.58692  -0.58555  -0.58132  -0.57779  -0.57058
 Alpha  occ. eigenvalues --   -0.56695  -0.55931  -0.55812  -0.55243  -0.55220
 Alpha  occ. eigenvalues --   -0.54982  -0.54579  -0.53646  -0.53590  -0.53057
 Alpha  occ. eigenvalues --   -0.52969  -0.52804  -0.52425  -0.52148  -0.51847
 Alpha  occ. eigenvalues --   -0.51596  -0.51256  -0.51118  -0.50914  -0.50501
 Alpha  occ. eigenvalues --   -0.50252  -0.50099  -0.49949  -0.49861  -0.49488
 Alpha  occ. eigenvalues --   -0.49134  -0.48886  -0.48671  -0.48251  -0.48148
 Alpha  occ. eigenvalues --   -0.48072  -0.47858  -0.47626  -0.47589  -0.47172
 Alpha  occ. eigenvalues --   -0.47068  -0.46978  -0.46456  -0.46232  -0.46122
 Alpha  occ. eigenvalues --   -0.45677  -0.45569  -0.45396  -0.45318  -0.45056
 Alpha  occ. eigenvalues --   -0.44903  -0.44754  -0.44496  -0.44317  -0.44002
 Alpha  occ. eigenvalues --   -0.43894  -0.43636  -0.43548  -0.43354  -0.43224
 Alpha  occ. eigenvalues --   -0.42943  -0.42893  -0.42812  -0.42409  -0.42235
 Alpha  occ. eigenvalues --   -0.41867  -0.41731  -0.41717  -0.41256  -0.41196
 Alpha  occ. eigenvalues --   -0.41159  -0.41043  -0.40726  -0.40576  -0.40359
 Alpha  occ. eigenvalues --   -0.40299  -0.39973  -0.39828  -0.39553  -0.39307
 Alpha  occ. eigenvalues --   -0.39056  -0.38740  -0.38517  -0.37989  -0.37898
 Alpha  occ. eigenvalues --   -0.37152  -0.37077  -0.36815  -0.36720  -0.36595
 Alpha  occ. eigenvalues --   -0.36548  -0.36111  -0.35971  -0.35751  -0.35728
 Alpha  occ. eigenvalues --   -0.35635  -0.34940  -0.34700  -0.34654  -0.33368
 Alpha  occ. eigenvalues --   -0.33125  -0.32466  -0.32186  -0.30409  -0.30132
 Alpha  occ. eigenvalues --   -0.28848  -0.28776  -0.28388  -0.27496  -0.23517
 Alpha  occ. eigenvalues --   -0.19692
 Alpha virt. eigenvalues --   -0.05303  -0.02175   0.02339   0.04433   0.05922
 Alpha virt. eigenvalues --    0.06217   0.06792   0.06960   0.07539   0.08276
 Alpha virt. eigenvalues --    0.08671   0.10421   0.11026   0.11686   0.11708

 Mulliken charges:
               1
     1  Mg   0.808951
     2  C    0.059611
     3  C   -0.208041
     4  C   -0.196375
     5  C   -0.155241
     6  N   -0.632102
     7  C    0.247699
     8  C   -0.149017
     9  C   -0.163023
    10  C    0.362952
    11  C   -0.300723
    12  C   -0.188991
    13  C   -0.270503
    14  C    0.612186
    15  O   -0.465357
    16  O   -0.443613
    17  N   -0.695663
    18  C    0.382262
    19  C   -0.037124
    20  C    0.063200
    21  C    0.284121
    22  C   -0.387315
    23  C   -0.067840
    24  C   -0.249079
    25  N   -0.686658
    26  C    0.333847
    27  C    0.009014
    28  C    0.036553
    29  C    0.272606
    30  C   -0.376221
    31  C   -0.237768
    32  C   -0.298011
    33  N   -0.725538
    34  C    0.261536
    35  C    0.031700
    36  C    0.046821
    37  C    0.242228
    38  C   -0.418890
    39  C    0.338555
    40  O   -0.443173
    41  C   -0.231703
    42  C    0.596517
    43  O   -0.469637
    44  O   -0.476037
    45  C   -0.096108
    46  C    0.001898
    47  C   -0.167637
    48  C    0.191092
    49  C   -0.383833
    50  C   -0.238805
    51  C   -0.188824
    52  C   -0.164544
    53  C   -0.078900
    54  C   -0.261205
    55  C   -0.178518
    56  C   -0.153694
    57  C   -0.185113
    58  C   -0.036894
    59  C   -0.331279
    60  C   -0.169945
    61  C   -0.176650
    62  C   -0.161010
    63  C   -0.060697
    64  C   -0.296091
    65  C   -0.311330
    66  H    0.093668
    67  H    0.081999
    68  H    0.105594
    69  H    0.124011
    70  H    0.110231
    71  H    0.121996
    72  H    0.083983
    73  H    0.124971
    74  H    0.112710
    75  H    0.112805
    76  H    0.138230
    77  H    0.139924
    78  H    0.130961
    79  H    0.132215
    80  H    0.095544
    81  H    0.100155
    82  H    0.113285
    83  H    0.108552
    84  H    0.119881
    85  H    0.100435
    86  H    0.104517
    87  H    0.101412
    88  H    0.092407
    89  H    0.110746
    90  H    0.104640
    91  H    0.101399
    92  H    0.129609
    93  H    0.128430
    94  H    0.090983
    95  H    0.137948
    96  H    0.140007
    97  H    0.159516
    98  H    0.137453
    99  H    0.131011
   100  H    0.117473
   101  H    0.097052
   102  H    0.092662
   103  H    0.129316
   104  H    0.126040
   105  H    0.116039
   106  H    0.098388
   107  H    0.073279
   108  H    0.106821
   109  H    0.101661
   110  H    0.068474
   111  H    0.046214
   112  H    0.062419
   113  H    0.113027
   114  H    0.097152
   115  H    0.095416
   116  H    0.055740
   117  H    0.110362
   118  H    0.088953
   119  H    0.086016
   120  H    0.085733
   121  H    0.070820
   122  H    0.106683
   123  H    0.095239
   124  H    0.099568
   125  H    0.083455
   126  H    0.076164
   127  H    0.102864
   128  H    0.074023
   129  H    0.094759
   130  H    0.064957
   131  H    0.076226
   132  H    0.097263
   133  H    0.099443
   134  H    0.083659
   135  H    0.105754
   136  H    0.099443
   137  H    0.111584
 Sum of Mulliken charges =   0.00000

 Dipole moment (field-independent basis, Debye):
    X=              4.4980    Y=              5.5622    Z=              1.6727  Tot=              7.3463
 Quadrupole moment (field-independent basis, Debye-Ang):
   XX=           -357.6891   YY=           -389.8681   ZZ=           -395.2272
   XY=            -29.5580   XZ=              5.6946   YZ=             -4.6050

 Normal termination of Gaussian 09 at Thu Jul  4 01:31:02 2019.
