 Gaussian 16, Revision A.03,
 Gaussian 16:  ES64L-G16RevA.03 25-Dec-2016

 ----------------------------------------------------------------------
 # td=(NStates=1) iop(3/107=0140000000,3/108=0140000000) CAM-B3LYP/6-31
 G(d,p)
 ----------------------------------------------------------------------

 --
 TD
 --
 Symbolic Z-matrix:
 Charge =  0 Multiplicity = 1

                         Standard orientation:
 ---------------------------------------------------------------------
 Center     Atomic      Atomic             Coordinates (Angstroms)
 Number     Number       Type             X           Y           Z
 ---------------------------------------------------------------------
      1         12           0       -7.164117    0.576342    0.119426
      2          6           0       -4.951890   -1.980618    0.473321
      3          6           0       -4.808764    2.915023    1.018379
      4          6           0       -9.429178    3.057918   -0.403306
      5          6           0       -9.521238   -1.821457   -0.929097
      6          7           0       -5.095367    0.428797    0.741616
      7          6           0       -4.338184   -0.677473    0.948443
      8          6           0       -2.958518   -0.381876    1.273363
      9          6           0       -3.086502    1.061410    1.650714
     10          6           0       -4.359328    1.555604    1.085549
     11          6           0       -3.041664    1.214539    3.162887
     12          6           0       -1.944434   -0.528507   -0.029299
     13          6           0       -0.568563   -0.470968    0.499627
     14          6           0        0.536585   -0.541452   -0.677011
     15          8           0        0.283670   -0.735648   -1.815960
     16          8           0        1.735510   -0.236885   -0.187221
     17          7           0       -7.150680    2.693260    0.288356
     18          6           0       -6.079545    3.385266    0.682409
     19          6           0       -6.454513    4.778439    0.803202
     20          6           0       -7.751436    4.870611    0.295353
     21          6           0       -8.214430    3.480701    0.088320
     22          6           0       -5.487000    5.974988    1.201206
     23          6           0       -8.672967    6.030253    0.317635
     24          6           0       -8.360610    7.233020    0.791459
     25          7           0       -9.158984    0.627137   -0.624173
     26          6           0       -9.856362    1.719942   -0.707179
     27          6           0      -11.220403    1.399347   -1.102203
     28          6           0      -11.349767    0.116516   -1.264471
     29          6           0      -10.017892   -0.491051   -0.880163
     30          6           0      -12.347873    2.354659   -1.334203
     31          6           0      -12.417136   -0.796031   -1.696167
     32          6           0      -12.315484   -1.309102   -3.186937
     33          7           0       -7.281124   -1.459688   -0.264940
     34          6           0       -8.245766   -2.247304   -0.634246
     35          6           0       -7.725756   -3.667575   -0.549164
     36          6           0       -6.466969   -3.597376   -0.102857
     37          6           0       -6.214595   -2.209929    0.134166
     38          6           0       -8.658585   -4.800636   -0.814371
     39          6           0       -5.250082   -4.351083    0.168576
     40          8           0       -5.178848   -5.603494    0.165382
     41          6           0       -4.145992   -3.362137    0.569421
     42          6           0       -3.539300   -3.740389    1.893271
     43          8           0       -3.723521   -3.165255    2.877310
     44          8           0       -2.616686   -4.714676    1.747522
     45          6           0       -2.169353   -5.301900    2.925869
     46          6           0        2.766698   -0.458306   -1.147258
     47          6           0        4.193927   -0.323327   -0.527794
     48          6           0        5.235135    0.438059   -0.929891
     49          6           0        5.246296    1.341394   -2.100146
     50          6           0        6.530245    0.485537   -0.174322
     51          6           0        7.669031   -0.061333   -0.893708
     52          6           0        8.966774   -0.144959    0.014178
     53          6           0       10.162032   -0.560409   -0.768059
     54          6           0       10.087967   -1.995087   -1.228215
     55          6           0       11.507600   -0.336086    0.054620
     56          6           0       12.766891   -0.518207   -0.774406
     57          6           0       13.921843   -0.182598    0.199308
     58          6           0       15.480942   -0.246002   -0.484997
     59          6           0       15.775395   -1.778194   -0.803618
     60          6           0       16.455923    0.316283    0.494868
     61          6           0       17.787862    0.607819   -0.247180
     62          6           0       18.718249    1.240316    0.633108
     63          6           0       20.246213    1.315747    0.169402
     64          6           0       20.410483    2.046353   -1.119594
     65          6           0       21.230302    1.933763    1.252613
     66          1           0       -4.007564    3.589371    1.396925
     67          1           0      -10.164166    3.692999   -0.809207
     68          1           0      -10.207834   -2.515340   -1.185842
     69          1           0       -2.554505   -1.195395    1.928063
     70          1           0       -2.274360    1.623274    1.234721
     71          1           0       -1.862026    1.235689    3.731274
     72          1           0       -3.316990    2.175521    3.721616
     73          1           0       -3.554835    0.520631    3.760862
     74          1           0       -2.106746   -1.358213   -0.681060
     75          1           0       -2.049971    0.373886   -0.699824
     76          1           0       -0.312565    0.448950    1.137040
     77          1           0       -0.378090   -1.369080    1.099750
     78          1           0       -5.304071    6.719378    0.270850
     79          1           0       -5.717438    6.398893    2.100618
     80          1           0       -4.421499    5.686940    1.185907
     81          1           0       -9.717343    5.840858   -0.280727
     82          1           0       -9.326242    7.957036    0.596060
     83          1           0       -7.367915    7.470390    1.249415
     84          1           0      -12.258653    2.950554   -2.398648
     85          1           0      -13.519609    2.129187   -1.450932
     86          1           0      -12.108024    3.240533   -0.498092
     87          1           0      -12.425843   -1.634989   -1.153340
     88          1           0      -13.315279   -0.151010   -1.421317
     89          1           0      -13.276882   -1.969394   -3.383304
     90          1           0      -12.489506   -0.529549   -3.691656
     91          1           0      -11.435238   -1.866599   -3.353195
     92          1           0       -8.879929   -4.732535   -1.894145
     93          1           0       -8.449701   -5.814534   -0.156046
     94          1           0       -9.646279   -4.563018   -0.190200
     95          1           0       -3.175840   -3.416662    0.008659
     96          1           0       -1.414317   -4.751932    3.600424
     97          1           0       -2.992627   -5.418123    3.518160
     98          1           0       -1.685663   -6.416040    2.665043
     99          1           0        2.748058   -1.468203   -1.726724
    100          1           0        2.407448    0.212667   -1.849749
    101          1           0        4.190600   -0.861966    0.421881
    102          1           0        4.228310    0.933406   -2.803928
    103          1           0        5.164508    2.413191   -1.939440
    104          1           0        6.146201    1.006680   -2.680393
    105          1           0        6.629099    1.630311    0.081250
    106          1           0        6.261561   -0.040203    0.866150
    107          1           0        7.379055   -1.158315   -1.389807
    108          1           0        7.989374    0.581535   -1.815809
    109          1           0        8.929027    1.044855    0.378438
    110          1           0        8.524695   -0.706744    0.935498
    111          1           0       10.185980    0.097716   -1.649773
    112          1           0        9.178299   -2.000782   -1.900681
    113          1           0       10.927371   -2.312617   -1.967311
    114          1           0       10.063275   -2.884958   -0.432529
    115          1           0       11.233425    0.670711    0.634887
    116          1           0       11.514048   -1.120501    0.962081
    117          1           0       12.869215   -1.521635   -1.099885
    118          1           0       12.824688    0.008096   -1.768225
    119          1           0       13.726251    0.672137    0.477697
    120          1           0       13.902502   -0.961747    1.019217
    121          1           0       15.466940    0.339185   -1.490490
    122          1           0       15.823572   -2.470969    0.000001
    123          1           0       14.977013   -2.193276   -1.453301
    124          1           0       16.783040   -1.836215   -1.134870
    125          1           0       16.159762    1.444158    0.755123
    126          1           0       16.489610   -0.038351    1.506722
    127          1           0       18.339467   -0.418738   -0.520034
    128          1           0       17.747638    1.164362   -1.179754
    129          1           0       18.303583    2.283749    0.718992
    130          1           0       18.687931    0.842222    1.532786
    131          1           0       20.537274    0.224649    0.056230
    132          1           0       20.186378    3.105871   -0.901364
    133          1           0       21.482892    1.934184   -1.531763
    134          1           0       19.934871    1.698943   -1.987432
    135          1           0       20.977928    1.319326    2.126167
    136          1           0       22.293735    1.834952    1.068033
    137          1           0       20.916512    2.932843    1.260410
 ---------------------------------------------------------------------

 SCF Done:  E(RCAM-B3LYP) =  -2933.43041321     A.U. after   16 cycles

 Excitation energies and oscillator strengths:

 Excited State   1:      Singlet-A      1.9898 eV  623.09 nm  f=0.2463  <S**2>=0.000
     240 -> 243        0.25110
     241 -> 242        0.65984
 This state for optimization and/or second-order correction.
 Total Energy, E(TD-HF/TD-DFT) =  -2933.35728807
 Copying the excited state density for this state as the 1-particle RhoCI density.

 The electronic state is 1-A.
 Alpha  occ. eigenvalues --  -46.81810 -19.22790 -19.22512 -19.17650 -19.17447
 Alpha  occ. eigenvalues --  -19.16018 -14.38454 -14.35181 -14.35109 -14.34811
 Alpha  occ. eigenvalues --  -10.34776 -10.34766 -10.30838 -10.27823 -10.27510
 Alpha  occ. eigenvalues --  -10.27067 -10.26460 -10.25053 -10.24926 -10.24797
 Alpha  occ. eigenvalues --  -10.24692 -10.24583 -10.24560 -10.24188 -10.24186
 Alpha  occ. eigenvalues --  -10.24010 -10.23870 -10.23860 -10.23860 -10.23659
 Alpha  occ. eigenvalues --  -10.23588 -10.23413 -10.23294 -10.23198 -10.23185
 Alpha  occ. eigenvalues --  -10.23166 -10.23029 -10.23013 -10.22994 -10.22915
 Alpha  occ. eigenvalues --  -10.22856 -10.22775 -10.22579 -10.22532 -10.22290
 Alpha  occ. eigenvalues --  -10.22290 -10.22100 -10.22040 -10.21936 -10.21818
 Alpha  occ. eigenvalues --  -10.21785 -10.21488 -10.21448 -10.21189 -10.21008
 Alpha  occ. eigenvalues --  -10.20840 -10.20807 -10.20807 -10.20756 -10.20088
 Alpha  occ. eigenvalues --  -10.19806 -10.19680 -10.19487 -10.19447 -10.18972
 Alpha  occ. eigenvalues --   -3.09991  -1.84966  -1.84448  -1.84374  -1.16053
 Alpha  occ. eigenvalues --   -1.15271  -1.07742  -1.06529  -1.04122  -1.00522
 Alpha  occ. eigenvalues --   -0.99720  -0.99141  -0.97720  -0.88137  -0.86693
 Alpha  occ. eigenvalues --   -0.85505  -0.85366  -0.84586  -0.84312  -0.83360
 Alpha  occ. eigenvalues --   -0.82537  -0.82413  -0.82298  -0.82015  -0.81348
 Alpha  occ. eigenvalues --   -0.80323  -0.79797  -0.78927  -0.78362  -0.77431
 Alpha  occ. eigenvalues --   -0.76982  -0.76723  -0.75741  -0.75143  -0.73041
 Alpha  occ. eigenvalues --   -0.72787  -0.72350  -0.71587  -0.71048  -0.70701
 Alpha  occ. eigenvalues --   -0.70602  -0.69976  -0.69376  -0.68801  -0.67674
 Alpha  occ. eigenvalues --   -0.66958  -0.66528  -0.65421  -0.65060  -0.63897
 Alpha  occ. eigenvalues --   -0.62384  -0.62026  -0.61103  -0.60915  -0.60652
 Alpha  occ. eigenvalues --   -0.60288  -0.59697  -0.59488  -0.59360  -0.58312
 Alpha  occ. eigenvalues --   -0.57552  -0.56913  -0.55907  -0.55644  -0.55393
 Alpha  occ. eigenvalues --   -0.54862  -0.54176  -0.53639  -0.53406  -0.53069
 Alpha  occ. eigenvalues --   -0.52539  -0.52236  -0.51440  -0.51162  -0.51132
 Alpha  occ. eigenvalues --   -0.50951  -0.50759  -0.50492  -0.50189  -0.49317
 Alpha  occ. eigenvalues --   -0.49201  -0.48971  -0.48897  -0.48385  -0.48220
 Alpha  occ. eigenvalues --   -0.47898  -0.47736  -0.47590  -0.47355  -0.46946
 Alpha  occ. eigenvalues --   -0.46892  -0.46641  -0.46270  -0.46076  -0.46021
 Alpha  occ. eigenvalues --   -0.45830  -0.45706  -0.45164  -0.44999  -0.44847
 Alpha  occ. eigenvalues --   -0.44814  -0.44248  -0.44029  -0.43918  -0.43755
 Alpha  occ. eigenvalues --   -0.43594  -0.43353  -0.43133  -0.42629  -0.42569
 Alpha  occ. eigenvalues --   -0.42517  -0.42342  -0.42168  -0.42018  -0.41529
 Alpha  occ. eigenvalues --   -0.41382  -0.41206  -0.40849  -0.40634  -0.40460
 Alpha  occ. eigenvalues --   -0.40086  -0.39999  -0.39946  -0.39637  -0.39542
 Alpha  occ. eigenvalues --   -0.39458  -0.39338  -0.39306  -0.39200  -0.38907
 Alpha  occ. eigenvalues --   -0.38857  -0.38511  -0.38413  -0.38331  -0.38144
 Alpha  occ. eigenvalues --   -0.38082  -0.38017  -0.37253  -0.37199  -0.37012
 Alpha  occ. eigenvalues --   -0.36848  -0.36470  -0.36340  -0.36180  -0.35825
 Alpha  occ. eigenvalues --   -0.35752  -0.35638  -0.34921  -0.34889  -0.34840
 Alpha  occ. eigenvalues --   -0.34821  -0.34070  -0.33851  -0.33637  -0.33515
 Alpha  occ. eigenvalues --   -0.33372  -0.33316  -0.33053  -0.32906  -0.32660
 Alpha  occ. eigenvalues --   -0.32535  -0.32331  -0.31362  -0.31115  -0.30558
 Alpha  occ. eigenvalues --   -0.30398  -0.29722  -0.28667  -0.28011  -0.27590
 Alpha  occ. eigenvalues --   -0.27123  -0.26858  -0.26056  -0.24576  -0.21894
 Alpha  occ. eigenvalues --   -0.18911
 Alpha virt. eigenvalues --   -0.06120  -0.04256  -0.01217   0.02413   0.03701
 Alpha virt. eigenvalues --    0.04034   0.04256   0.04624   0.05003   0.05762
 Alpha virt. eigenvalues --    0.06107   0.08542   0.09140   0.09263   0.09640

 Mulliken charges:
               1
     1  Mg   0.819813
     2  C    0.001665
     3  C   -0.179302
     4  C   -0.158335
     5  C   -0.177873
     6  N   -0.616362
     7  C    0.305983
     8  C   -0.150052
     9  C   -0.147136
    10  C    0.317909
    11  C   -0.305320
    12  C   -0.184141
    13  C   -0.265166
    14  C    0.584807
    15  O   -0.447362
    16  O   -0.448885
    17  N   -0.716024
    18  C    0.352805
    19  C   -0.012016
    20  C   -0.004804
    21  C    0.316412
    22  C   -0.382858
    23  C   -0.048976
    24  C   -0.245460
    25  N   -0.698919
    26  C    0.354882
    27  C    0.029418
    28  C    0.074492
    29  C    0.220668
    30  C   -0.385474
    31  C   -0.252759
    32  C   -0.298705
    33  N   -0.712377
    34  C    0.333231
    35  C   -0.042380
    36  C    0.089269
    37  C    0.298189
    38  C   -0.371511
    39  C    0.361539
    40  O   -0.477300
    41  C   -0.309024
    42  C    0.604366
    43  O   -0.423568
    44  O   -0.429388
    45  C   -0.082243
    46  C    0.006044
    47  C   -0.147882
    48  C    0.138647
    49  C   -0.348171
    50  C   -0.212560
    51  C   -0.164460
    52  C   -0.157272
    53  C   -0.044637
    54  C   -0.301260
    55  C   -0.163118
    56  C   -0.190788
    57  C   -0.155152
    58  C   -0.061806
    59  C   -0.323546
    60  C   -0.163094
    61  C   -0.163803
    62  C   -0.153228
    63  C   -0.077625
    64  C   -0.300597
    65  C   -0.305387
    66  H    0.084602
    67  H    0.081819
    68  H    0.059524
    69  H    0.124589
    70  H    0.110427
    71  H    0.054319
    72  H    0.107199
    73  H    0.141903
    74  H    0.128683
    75  H    0.112662
    76  H    0.126775
    77  H    0.128364
    78  H    0.112130
    79  H    0.140702
    80  H    0.108633
    81  H    0.074457
    82  H    0.084347
    83  H    0.103490
    84  H    0.095549
    85  H    0.117611
    86  H    0.091645
    87  H    0.117925
    88  H    0.085962
    89  H    0.082627
    90  H    0.129944
    91  H    0.119605
    92  H    0.136512
    93  H    0.129410
    94  H    0.108464
    95  H    0.161177
    96  H    0.108977
    97  H    0.136144
    98  H    0.104879
    99  H    0.117654
   100  H    0.123520
   101  H    0.089337
   102  H    0.067634
   103  H    0.132774
   104  H    0.121729
   105  H    0.090343
   106  H    0.083665
   107  H    0.079042
   108  H    0.086360
   109  H    0.063702
   110  H    0.092430
   111  H    0.091582
   112  H    0.094773
   113  H    0.092902
   114  H    0.094677
   115  H    0.072856
   116  H    0.073248
   117  H    0.105819
   118  H    0.084333
   119  H    0.097967
   120  H    0.083266
   121  H    0.076662
   122  H    0.103580
   123  H    0.096907
   124  H    0.106064
   125  H    0.064037
   126  H    0.105408
   127  H    0.060159
   128  H    0.102190
   129  H    0.069212
   130  H    0.092805
   131  H    0.070227
   132  H    0.096301
   133  H    0.083179
   134  H    0.107245
   135  H    0.097849
   136  H    0.106833
   137  H    0.108645
 Sum of Mulliken charges =  -0.00000

 Dipole moment (field-independent basis, Debye):
    X=              3.0030    Y=              2.6057    Z=              1.1183  Tot=              4.1302
 Quadrupole moment (field-independent basis, Debye-Ang):
   XX=           -361.2460   YY=           -404.3787   ZZ=           -397.8338
   XY=             -8.4152   XZ=              6.1506   YZ=             -5.1053

 Normal termination of Gaussian 16 at Wed Sep 11 06:58:52 2019.
