 Gaussian 16, Revision A.03,
 Gaussian 16:  ES64L-G16RevA.03 25-Dec-2016

 ----------------------------------------------------------------------
 # td=(NStates=1) iop(3/107=0140000000,3/108=0140000000) CAM-B3LYP/6-31
 G(d,p)
 ----------------------------------------------------------------------

 --
 TD
 --
 Symbolic Z-matrix:
 Charge =  0 Multiplicity = 1

                         Standard orientation:
 ---------------------------------------------------------------------
 Center     Atomic      Atomic             Coordinates (Angstroms)
 Number     Number       Type             X           Y           Z
 ---------------------------------------------------------------------
      1         12           0       -7.269941    0.604412   -0.012118
      2          6           0       -4.862370   -1.924977    0.530491
      3          6           0       -4.769378    2.849139    1.048781
      4          6           0       -9.468703    3.079685   -0.329594
      5          6           0       -9.582928   -1.814913   -0.908312
      6          7           0       -5.076465    0.446668    0.644247
      7          6           0       -4.331364   -0.657033    0.797288
      8          6           0       -2.931969   -0.398048    1.212902
      9          6           0       -2.983990    1.140232    1.571133
     10          6           0       -4.370971    1.577256    1.075902
     11          6           0       -2.860336    1.264794    3.143473
     12          6           0       -1.974439   -0.487295    0.103955
     13          6           0       -0.449118   -0.457214    0.511410
     14          6           0        0.494292   -0.624694   -0.620258
     15          8           0        0.279531   -0.949359   -1.731706
     16          8           0        1.803091   -0.461817   -0.186377
     17          7           0       -7.125839    2.660137    0.363550
     18          6           0       -6.103317    3.365929    0.708735
     19          6           0       -6.504821    4.768964    0.756580
     20          6           0       -7.795409    4.876419    0.396198
     21          6           0       -8.235762    3.443032    0.037392
     22          6           0       -5.635745    5.940261    1.224036
     23          6           0       -8.670139    6.071267    0.160364
     24          6           0       -8.396974    7.311239    0.717721
     25          7           0       -9.235504    0.653053   -0.602707
     26          6           0       -9.944493    1.821632   -0.681525
     27          6           0      -11.342731    1.460008   -1.116062
     28          6           0      -11.266959    0.093372   -1.233881
     29          6           0       -9.958803   -0.441334   -0.910199
     30          6           0      -12.354204    2.497171   -1.297300
     31          6           0      -12.435085   -0.773650   -1.664769
     32          6           0      -12.410598   -1.286333   -3.164807
     33          7           0       -7.259911   -1.423837   -0.274487
     34          6           0       -8.291748   -2.339299   -0.519571
     35          6           0       -7.801359   -3.663329   -0.523628
     36          6           0       -6.539462   -3.548414   -0.166912
     37          6           0       -6.132793   -2.184246   -0.049619
     38          6           0       -8.603564   -4.878681   -0.836704
     39          6           0       -5.368528   -4.371004    0.368573
     40          8           0       -5.218777   -5.532199    0.468781
     41          6           0       -4.212282   -3.383141    0.582789
     42          6           0       -3.609132   -3.609508    1.925871
     43          8           0       -3.786057   -3.085513    3.006417
     44          8           0       -2.752091   -4.744214    1.750372
     45          6           0       -2.253426   -5.262395    3.045255
     46          6           0        2.755120   -0.690155   -1.132936
     47          6           0        4.165037   -0.404898   -0.593513
     48          6           0        5.150626    0.350439   -0.934590
     49          6           0        5.120488    1.112556   -2.326369
     50          6           0        6.450265    0.325296   -0.214379
     51          6           0        7.690210   -0.268430   -1.069986
     52          6           0        8.988857   -0.214296   -0.272424
     53          6           0       10.290139   -0.539392   -1.039478
     54          6           0       10.232598   -2.120855   -1.326879
     55          6           0       11.468043   -0.127736   -0.157437
     56          6           0       12.841816   -0.515748   -0.762897
     57          6           0       14.035297   -0.116750    0.215141
     58          6           0       15.389848   -0.248126   -0.480328
     59          6           0       15.765570   -1.674776   -0.789911
     60          6           0       16.487751    0.462282    0.409469
     61          6           0       17.903744    0.595220   -0.221285
     62          6           0       18.872218    1.183830    0.854040
     63          6           0       20.318163    1.277053    0.312979
     64          6           0       20.477868    2.102419   -1.022686
     65          6           0       21.219058    2.069203    1.349461
     66          1           0       -4.092727    3.465428    1.571053
     67          1           0      -10.245357    3.932975   -0.551755
     68          1           0      -10.301888   -2.514894   -1.403788
     69          1           0       -2.874610   -1.009590    2.012951
     70          1           0       -2.253495    1.697472    1.208687
     71          1           0       -1.778672    1.142235    3.602313
     72          1           0       -2.835009    2.363292    3.480631
     73          1           0       -3.515458    0.677290    3.726215
     74          1           0       -2.101998   -1.361042   -0.416750
     75          1           0       -2.240483    0.229898   -0.479181
     76          1           0       -0.190716    0.472530    0.989656
     77          1           0       -0.355618   -1.201431    1.303351
     78          1           0       -5.927024    6.841990    0.646106
     79          1           0       -5.681208    6.164896    2.186336
     80          1           0       -4.487849    5.731670    1.150416
     81          1           0       -9.536661    6.013107   -0.428684
     82          1           0       -9.081865    8.247535    0.444554
     83          1           0       -7.340396    7.436612    1.432314
     84          1           0      -11.828311    3.234175   -1.925883
     85          1           0      -13.321238    2.171651   -1.732315
     86          1           0      -12.454457    3.016198   -0.503765
     87          1           0      -12.527899   -1.672160   -1.007257
     88          1           0      -13.317187   -0.262213   -1.310117
     89          1           0      -13.172717   -2.007073   -3.290655
     90          1           0      -12.706072   -0.639343   -3.779585
     91          1           0      -11.431446   -1.681912   -3.245310
     92          1           0       -8.918347   -4.612121   -2.012124
     93          1           0       -8.018422   -5.771929   -0.545425
     94          1           0       -9.411337   -4.941569   -0.238668
     95          1           0       -3.390849   -3.519836   -0.141323
     96          1           0       -1.559511   -4.561196    3.624557
     97          1           0       -2.943958   -5.439240    3.855180
     98          1           0       -1.721069   -6.110678    2.784751
     99          1           0        2.594366   -1.733162   -1.533409
    100          1           0        2.596192   -0.264447   -2.005407
    101          1           0        4.256657   -0.761291    0.514004
    102          1           0        4.200973    1.586267   -2.681107
    103          1           0        5.753282    2.096988   -2.369746
    104          1           0        5.705030    0.655364   -3.129937
    105          1           0        6.426699    1.186823    0.313116
    106          1           0        6.251964   -0.136308    0.774862
    107          1           0        7.603857   -1.280290   -1.271409
    108          1           0        7.885075    0.399570   -2.044462
    109          1           0        9.255047    0.958315    0.134241
    110          1           0        8.819891   -0.881062    0.504116
    111          1           0       10.492753   -0.036264   -2.109243
    112          1           0        9.687818   -2.373112   -2.124810
    113          1           0       11.221021   -2.359201   -1.647747
    114          1           0       10.205515   -2.648729   -0.454111
    115          1           0       11.325917    0.945167   -0.028061
    116          1           0       11.515522   -0.436113    0.984585
    117          1           0       13.094363   -1.571946   -0.922230
    118          1           0       12.940279    0.029499   -1.843201
    119          1           0       13.963842    1.166980    0.747242
    120          1           0       13.820961   -0.788585    1.103803
    121          1           0       15.475255    0.312071   -1.291699
    122          1           0       15.741127   -2.017094    0.248858
    123          1           0       15.029470   -2.261555   -1.335561
    124          1           0       16.588538   -1.959199   -1.303548
    125          1           0       15.926685    1.355050    0.453720
    126          1           0       16.605656    0.030476    1.600808
    127          1           0       18.340840   -0.454993   -0.462668
    128          1           0       17.874748    1.117912   -1.161300
    129          1           0       18.561231    2.188253    1.062220
    130          1           0       18.811178    0.520435    1.760598
    131          1           0       20.654257    0.217473    0.201633
    132          1           0       20.452154    3.345677   -0.795149
    133          1           0       21.633127    2.033200   -1.323669
    134          1           0       19.571612    1.742496   -1.648936
    135          1           0       21.217521    1.588635    2.277335
    136          1           0       22.118720    2.283282    0.924635
    137          1           0       20.877833    3.178261    1.496242
 ---------------------------------------------------------------------

 SCF Done:  E(RCAM-B3LYP) =  -2933.42211661     A.U. after   15 cycles

 Excitation energies and oscillator strengths:

 Excited State   1:      Singlet-A      2.0734 eV  597.96 nm  f=0.2939  <S**2>=0.000
     240 -> 243       -0.22746
     241 -> 242        0.66551
 This state for optimization and/or second-order correction.
 Total Energy, E(TD-HF/TD-DFT) =  -2933.34591904
 Copying the excited state density for this state as the 1-particle RhoCI density.

 The electronic state is 1-A.
 Alpha  occ. eigenvalues --  -46.81122 -19.21350 -19.20962 -19.18039 -19.17485
 Alpha  occ. eigenvalues --  -19.16964 -14.37201 -14.36195 -14.35120 -14.35078
 Alpha  occ. eigenvalues --  -10.34799 -10.34501 -10.30909 -10.26146 -10.26051
 Alpha  occ. eigenvalues --  -10.25784 -10.25746 -10.25376 -10.25351 -10.24882
 Alpha  occ. eigenvalues --  -10.24749 -10.24589 -10.24586 -10.24562 -10.24475
 Alpha  occ. eigenvalues --  -10.24092 -10.23933 -10.23656 -10.23617 -10.23412
 Alpha  occ. eigenvalues --  -10.23254 -10.23082 -10.23029 -10.22949 -10.22785
 Alpha  occ. eigenvalues --  -10.22614 -10.22550 -10.22461 -10.22418 -10.22366
 Alpha  occ. eigenvalues --  -10.22294 -10.22249 -10.21954 -10.21811 -10.21733
 Alpha  occ. eigenvalues --  -10.21586 -10.21554 -10.21545 -10.21529 -10.21499
 Alpha  occ. eigenvalues --  -10.21476 -10.21355 -10.21205 -10.21035 -10.20995
 Alpha  occ. eigenvalues --  -10.20835 -10.20786 -10.20663 -10.20635 -10.20595
 Alpha  occ. eigenvalues --  -10.20439 -10.19250 -10.18901 -10.18704 -10.18210
 Alpha  occ. eigenvalues --   -3.09434  -1.84400  -1.83900  -1.83813  -1.14397
 Alpha  occ. eigenvalues --   -1.10956  -1.09077  -1.06145  -1.03284  -0.99861
 Alpha  occ. eigenvalues --   -0.98684  -0.98139  -0.97423  -0.86850  -0.86304
 Alpha  occ. eigenvalues --   -0.85476  -0.85057  -0.84321  -0.83804  -0.83635
 Alpha  occ. eigenvalues --   -0.83361  -0.82938  -0.82611  -0.82422  -0.81053
 Alpha  occ. eigenvalues --   -0.80042  -0.78997  -0.78887  -0.77795  -0.77302
 Alpha  occ. eigenvalues --   -0.76542  -0.75975  -0.75610  -0.74860  -0.73614
 Alpha  occ. eigenvalues --   -0.73512  -0.72894  -0.71831  -0.71586  -0.71350
 Alpha  occ. eigenvalues --   -0.71253  -0.70419  -0.69397  -0.68933  -0.68418
 Alpha  occ. eigenvalues --   -0.67560  -0.66817  -0.66049  -0.65603  -0.64453
 Alpha  occ. eigenvalues --   -0.62706  -0.62681  -0.61956  -0.61103  -0.60839
 Alpha  occ. eigenvalues --   -0.59748  -0.59438  -0.58860  -0.57969  -0.57613
 Alpha  occ. eigenvalues --   -0.57272  -0.56836  -0.56293  -0.55657  -0.55606
 Alpha  occ. eigenvalues --   -0.54758  -0.54233  -0.53907  -0.53392  -0.53026
 Alpha  occ. eigenvalues --   -0.52754  -0.51794  -0.51444  -0.51191  -0.51005
 Alpha  occ. eigenvalues --   -0.50559  -0.50178  -0.49869  -0.49682  -0.49169
 Alpha  occ. eigenvalues --   -0.49139  -0.48992  -0.48570  -0.48289  -0.47708
 Alpha  occ. eigenvalues --   -0.47544  -0.47196  -0.47122  -0.47055  -0.47035
 Alpha  occ. eigenvalues --   -0.46877  -0.46630  -0.46358  -0.46131  -0.46060
 Alpha  occ. eigenvalues --   -0.45967  -0.45812  -0.45425  -0.45236  -0.45066
 Alpha  occ. eigenvalues --   -0.44803  -0.44603  -0.44297  -0.43912  -0.43773
 Alpha  occ. eigenvalues --   -0.43394  -0.43166  -0.42981  -0.42894  -0.42836
 Alpha  occ. eigenvalues --   -0.42756  -0.42496  -0.42268  -0.42161  -0.42016
 Alpha  occ. eigenvalues --   -0.41926  -0.41668  -0.41592  -0.41525  -0.41123
 Alpha  occ. eigenvalues --   -0.40632  -0.40484  -0.40416  -0.40073  -0.39893
 Alpha  occ. eigenvalues --   -0.39607  -0.39550  -0.39217  -0.39071  -0.38962
 Alpha  occ. eigenvalues --   -0.38840  -0.38746  -0.38450  -0.38370  -0.38000
 Alpha  occ. eigenvalues --   -0.37784  -0.37558  -0.37291  -0.37129  -0.36851
 Alpha  occ. eigenvalues --   -0.36824  -0.36423  -0.36307  -0.36012  -0.35786
 Alpha  occ. eigenvalues --   -0.35662  -0.35421  -0.34911  -0.34598  -0.34561
 Alpha  occ. eigenvalues --   -0.34419  -0.34072  -0.33879  -0.33617  -0.33266
 Alpha  occ. eigenvalues --   -0.33245  -0.33000  -0.32836  -0.32124  -0.32101
 Alpha  occ. eigenvalues --   -0.31955  -0.31821  -0.31507  -0.31135  -0.31008
 Alpha  occ. eigenvalues --   -0.29949  -0.29859  -0.29766  -0.29116  -0.27498
 Alpha  occ. eigenvalues --   -0.27025  -0.26993  -0.25592  -0.25249  -0.22131
 Alpha  occ. eigenvalues --   -0.19873
 Alpha virt. eigenvalues --   -0.06922  -0.03738   0.00438   0.01969   0.03186
 Alpha virt. eigenvalues --    0.04051   0.04664   0.04927   0.05592   0.05834
 Alpha virt. eigenvalues --    0.06215   0.08958   0.09264   0.09478   0.09980

 Mulliken charges:
               1
     1  Mg   0.823077
     2  C    0.048056
     3  C   -0.181856
     4  C   -0.153452
     5  C   -0.180038
     6  N   -0.627559
     7  C    0.283930
     8  C   -0.136754
     9  C   -0.142955
    10  C    0.349948
    11  C   -0.325689
    12  C   -0.142421
    13  C   -0.284479
    14  C    0.609653
    15  O   -0.443622
    16  O   -0.470423
    17  N   -0.705685
    18  C    0.342120
    19  C   -0.003115
    20  C    0.031759
    21  C    0.278039
    22  C   -0.397350
    23  C   -0.056963
    24  C   -0.250350
    25  N   -0.736404
    26  C    0.273655
    27  C    0.064241
    28  C   -0.044054
    29  C    0.358479
    30  C   -0.371669
    31  C   -0.268185
    32  C   -0.298363
    33  N   -0.715675
    34  C    0.265479
    35  C    0.007037
    36  C   -0.005904
    37  C    0.257593
    38  C   -0.355820
    39  C    0.396555
    40  O   -0.418243
    41  C   -0.304317
    42  C    0.627362
    43  O   -0.464522
    44  O   -0.477418
    45  C   -0.089550
    46  C    0.038715
    47  C   -0.118108
    48  C    0.112149
    49  C   -0.386503
    50  C   -0.218735
    51  C   -0.166451
    52  C   -0.146041
    53  C   -0.058594
    54  C   -0.331326
    55  C   -0.161019
    56  C   -0.176143
    57  C   -0.158326
    58  C   -0.054278
    59  C   -0.309665
    60  C   -0.158989
    61  C   -0.191576
    62  C   -0.153634
    63  C   -0.054639
    64  C   -0.292759
    65  C   -0.307817
    66  H    0.075437
    67  H    0.078575
    68  H    0.093321
    69  H    0.120926
    70  H    0.100261
    71  H    0.088893
    72  H    0.089760
    73  H    0.138189
    74  H    0.113447
    75  H    0.117824
    76  H    0.135430
    77  H    0.150641
    78  H    0.124811
    79  H    0.145301
    80  H    0.091754
    81  H    0.094202
    82  H    0.099449
    83  H    0.089984
    84  H    0.119340
    85  H    0.115274
    86  H    0.139832
    87  H    0.094704
    88  H    0.091463
    89  H    0.102081
    90  H    0.121072
    91  H    0.109971
    92  H    0.107240
    93  H    0.141270
    94  H    0.140423
    95  H    0.171451
    96  H    0.104205
    97  H    0.135444
    98  H    0.128082
    99  H    0.095710
   100  H    0.113730
   101  H    0.060705
   102  H    0.117959
   103  H    0.084948
   104  H    0.124213
   105  H    0.117412
   106  H    0.079587
   107  H    0.120765
   108  H    0.083640
   109  H    0.041869
   110  H    0.106299
   111  H    0.068616
   112  H    0.114596
   113  H    0.095991
   114  H    0.111496
   115  H    0.104883
   116  H    0.072237
   117  H    0.112768
   118  H    0.066137
   119  H    0.021813
   120  H    0.095681
   121  H    0.097133
   122  H    0.101746
   123  H    0.089299
   124  H    0.109472
   125  H    0.098382
   126  H    0.045422
   127  H    0.081591
   128  H    0.098735
   129  H    0.098556
   130  H    0.090249
   131  H    0.084833
   132  H    0.070360
   133  H    0.099635
   134  H    0.095931
   135  H    0.102342
   136  H    0.104442
   137  H    0.080352
 Sum of Mulliken charges =  -0.00000

 Dipole moment (field-independent basis, Debye):
    X=              0.3096    Y=              3.5726    Z=              0.1732  Tot=              3.5902
 Quadrupole moment (field-independent basis, Debye-Ang):
   XX=           -340.4621   YY=           -392.0988   ZZ=           -396.2381
   XY=            -26.6838   XZ=              8.6447   YZ=             -1.0331

 Normal termination of Gaussian 16 at Mon Sep 23 04:32:11 2019.
