 Gaussian 09, Revision D.01,
 Gaussian 09:  ES64L-G09RevD.01 24-Apr-2013

 -------------------------------------
 # td=(NStates=1) CAM-B3LYP/6-31G(d,p)
 -------------------------------------

 --
 TD
 --
 Symbolic Z-matrix:
 Charge =  0 Multiplicity = 1

                         Standard orientation:
 ---------------------------------------------------------------------
 Center     Atomic      Atomic             Coordinates (Angstroms)
 Number     Number       Type             X           Y           Z
 ---------------------------------------------------------------------
      1         12           0       -7.127720    0.652483    0.011026
      2          6           0       -4.866358   -1.994519    0.566611
      3          6           0       -4.724326    2.840908    1.045780
      4          6           0       -9.333404    3.066704   -0.445649
      5          6           0       -9.502124   -1.841738   -0.897584
      6          7           0       -5.117633    0.451865    0.719538
      7          6           0       -4.367751   -0.594006    0.879480
      8          6           0       -2.942362   -0.371975    1.291004
      9          6           0       -2.983382    1.110137    1.735432
     10          6           0       -4.371681    1.573025    1.104026
     11          6           0       -2.976211    1.271629    3.215629
     12          6           0       -1.910114   -0.669198    0.069105
     13          6           0       -0.520985   -0.473876    0.528804
     14          6           0        0.451074   -0.599853   -0.595999
     15          8           0        0.220262   -0.939782   -1.728474
     16          8           0        1.709551   -0.341872   -0.124848
     17          7           0       -7.061204    2.671203    0.286123
     18          6           0       -6.048127    3.326970    0.837643
     19          6           0       -6.420518    4.754351    0.813495
     20          6           0       -7.797086    4.808118    0.367300
     21          6           0       -8.168987    3.485144    0.118324
     22          6           0       -5.589146    5.925868    1.280615
     23          6           0       -8.533200    6.006368    0.121930
     24          6           0       -8.500120    7.145375    0.847438
     25          7           0       -9.097362    0.582184   -0.627355
     26          6           0       -9.721263    1.709407   -0.750825
     27          6           0      -11.147729    1.394152   -1.206847
     28          6           0      -11.249233    0.079660   -1.311574
     29          6           0       -9.924184   -0.447288   -0.965127
     30          6           0      -12.154665    2.467395   -1.587179
     31          6           0      -12.234652   -0.747619   -1.955212
     32          6           0      -12.162847   -1.079891   -3.479799
     33          7           0       -7.199571   -1.399980   -0.062743
     34          6           0       -8.243799   -2.288035   -0.514416
     35          6           0       -7.732998   -3.663386   -0.450908
     36          6           0       -6.538190   -3.689633   -0.040025
     37          6           0       -6.209252   -2.263082    0.249402
     38          6           0       -8.591275   -4.820239   -0.778982
     39          6           0       -5.304661   -4.339188    0.206726
     40          8           0       -5.089958   -5.591972    0.149535
     41          6           0       -4.192141   -3.298263    0.660567
     42          6           0       -3.477730   -3.684985    1.973446
     43          8           0       -3.641931   -3.194449    3.034351
     44          8           0       -2.792817   -4.809272    1.722788
     45          6           0       -2.098944   -5.306013    2.840302
     46          6           0        2.696026   -0.451592   -1.184407
     47          6           0        4.029832   -0.253636   -0.446288
     48          6           0        5.078738    0.409618   -0.733263
     49          6           0        4.950553    1.496564   -1.802094
     50          6           0        6.374406    0.361615    0.173783
     51          6           0        7.514018    0.001429   -0.861801
     52          6           0        8.857599   -0.135484   -0.031214
     53          6           0       10.226472   -0.436259   -0.881125
     54          6           0        9.953489   -1.965032   -1.313963
     55          6           0       11.447690   -0.305065   -0.013973
     56          6           0       12.720070   -0.596386   -0.777056
     57          6           0       13.955296   -0.082448   -0.005243
     58          6           0       15.323790   -0.138319   -0.606667
     59          6           0       15.645736   -1.661351   -1.092644
     60          6           0       16.433731    0.427861    0.399118
     61          6           0       17.756351    0.530654   -0.328301
     62          6           0       18.763634    1.218472    0.703220
     63          6           0       20.294159    1.199832    0.200692
     64          6           0       20.412001    2.125872   -1.095183
     65          6           0       21.213412    1.744114    1.206512
     66          1           0       -4.151846    3.807598    1.518002
     67          1           0       -9.993247    3.829475   -0.600957
     68          1           0      -10.310608   -2.578294   -0.978321
     69          1           0       -2.668502   -1.109575    2.105614
     70          1           0       -2.009563    1.647349    1.271481
     71          1           0       -1.923630    1.204043    3.816337
     72          1           0       -3.295838    2.188374    3.613199
     73          1           0       -3.802117    0.600927    3.770414
     74          1           0       -2.042085   -1.608010   -0.563467
     75          1           0       -2.128040    0.186615   -0.651411
     76          1           0       -0.417687    0.448494    1.176865
     77          1           0       -0.280747   -1.206938    1.151906
     78          1           0       -5.997711    6.961647    0.955124
     79          1           0       -5.681621    5.948780    2.434798
     80          1           0       -4.481276    5.742467    1.023371
     81          1           0       -9.223973    5.798882   -0.650402
     82          1           0       -9.109920    7.953585    0.509441
     83          1           0       -8.026618    7.324817    1.897215
     84          1           0      -11.785416    2.928303   -2.601664
     85          1           0      -13.102453    1.906901   -1.740446
     86          1           0      -12.117052    3.105847   -0.800905
     87          1           0      -12.469440   -1.453929   -1.350992
     88          1           0      -13.233742    0.055411   -2.124640
     89          1           0      -13.094162   -1.524698   -3.952898
     90          1           0      -11.757327   -0.403789   -4.084885
     91          1           0      -11.244754   -1.774579   -3.431510
     92          1           0       -8.752797   -4.846864   -1.896442
     93          1           0       -7.992904   -5.720740   -0.689328
     94          1           0       -9.631568   -4.994626   -0.215874
     95          1           0       -3.541652   -3.512572   -0.321249
     96          1           0       -1.308713   -4.676263    3.222002
     97          1           0       -2.965956   -5.783945    3.706857
     98          1           0       -1.742298   -6.308121    2.403176
     99          1           0        2.680192   -1.448215   -1.788202
    100          1           0        2.636283    0.459975   -1.728535
    101          1           0        4.145591   -1.023070    0.476522
    102          1           0        3.861728    1.790117   -2.097587
    103          1           0        5.421932    2.374548   -1.592621
    104          1           0        5.678261    0.977360   -2.669884
    105          1           0        6.589835    1.209617    0.868689
    106          1           0        6.290647   -0.431584    0.997793
    107          1           0        6.969236   -1.017395   -1.269336
    108          1           0        7.661219    0.672477   -1.885233
    109          1           0        9.071705    0.885362    0.432702
    110          1           0        8.675501   -0.779138    0.831243
    111          1           0       10.121525    0.049260   -1.845354
    112          1           0        9.114890   -2.191561   -2.053133
    113          1           0       10.690242   -2.168103   -1.934406
    114          1           0        9.841351   -2.587988   -0.459703
    115          1           0       11.270794    0.593854    0.499134
    116          1           0       11.474959   -1.092976    0.860416
    117          1           0       12.793354   -1.336325   -1.089774
    118          1           0       12.703009   -0.177208   -1.771674
    119          1           0       13.592493    0.866244    0.454598
    120          1           0       13.936567   -0.635226    0.929348
    121          1           0       15.353179    0.318110   -1.629422
    122          1           0       15.799696   -2.207330   -0.239723
    123          1           0       14.845463   -2.013848   -1.631330
    124          1           0       16.647891   -1.619135   -1.766656
    125          1           0       15.995420    1.441409    0.730076
    126          1           0       16.635710   -0.197489    1.211955
    127          1           0       18.268259   -0.269286   -0.957653
    128          1           0       17.721962    1.056651   -1.307697
    129          1           0       18.381302    2.244073    0.758851
    130          1           0       18.845773    0.793532    1.885303
    131          1           0       20.669587    0.186246   -0.015398
    132          1           0       20.213508    3.174291   -0.892381
    133          1           0       21.385617    2.061269   -1.464528
    134          1           0       19.771384    1.568872   -1.775083
    135          1           0       21.385572    1.257870    2.050971
    136          1           0       22.281132    1.558360    1.048281
    137          1           0       21.132876    2.874573    1.442742
 ---------------------------------------------------------------------

 SCF Done:  E(RCAM-B3LYP) =  -2932.48667173     A.U. after   17 cycles

 Excitation energies and oscillator strengths:

 Excited State   1:      Singlet-A      2.0052 eV  618.32 nm  f=0.2738  <S**2>=0.000
     240 -> 243        0.23794
     241 -> 242        0.66078
 This state for optimization and/or second-order correction.
 Total Energy, E(TD-HF/TD-KS) =  -2932.41298325
 Copying the excited state density for this state as the 1-particle RhoCI density.

 The electronic state is 1-A.
 Alpha  occ. eigenvalues --  -46.85225 -19.26654 -19.26271 -19.21897 -19.21599
 Alpha  occ. eigenvalues --  -19.20313 -14.42815 -14.39775 -14.39494 -14.39466
 Alpha  occ. eigenvalues --  -10.39533 -10.39286 -10.35798 -10.33121 -10.32495
 Alpha  occ. eigenvalues --  -10.32207 -10.31011 -10.29734 -10.29605 -10.29538
 Alpha  occ. eigenvalues --  -10.29423 -10.29300 -10.29293 -10.28759 -10.28708
 Alpha  occ. eigenvalues --  -10.28381 -10.28369 -10.27991 -10.27844 -10.27596
 Alpha  occ. eigenvalues --  -10.27545 -10.27431 -10.27308 -10.27137 -10.27077
 Alpha  occ. eigenvalues --  -10.27065 -10.26881 -10.26786 -10.26777 -10.26763
 Alpha  occ. eigenvalues --  -10.26755 -10.26751 -10.26730 -10.26584 -10.26526
 Alpha  occ. eigenvalues --  -10.26373 -10.26324 -10.26225 -10.26092 -10.25815
 Alpha  occ. eigenvalues --  -10.25772 -10.25771 -10.25745 -10.25636 -10.25576
 Alpha  occ. eigenvalues --  -10.25497 -10.25416 -10.25324 -10.24696 -10.24468
 Alpha  occ. eigenvalues --  -10.24305 -10.23582 -10.23028 -10.22933 -10.22219
 Alpha  occ. eigenvalues --   -3.14167  -1.88881  -1.88433  -1.88310  -1.20010
 Alpha  occ. eigenvalues --   -1.18287  -1.11496  -1.09771  -1.08300  -1.05713
 Alpha  occ. eigenvalues --   -1.04688  -1.03591  -1.02863  -0.92183  -0.91096
 Alpha  occ. eigenvalues --   -0.90829  -0.90235  -0.90130  -0.89476  -0.89305
 Alpha  occ. eigenvalues --   -0.88689  -0.88041  -0.87362  -0.87234  -0.86387
 Alpha  occ. eigenvalues --   -0.84999  -0.84430  -0.83393  -0.82909  -0.82312
 Alpha  occ. eigenvalues --   -0.81365  -0.81008  -0.80341  -0.79500  -0.78262
 Alpha  occ. eigenvalues --   -0.78045  -0.76890  -0.76479  -0.75584  -0.75311
 Alpha  occ. eigenvalues --   -0.75134  -0.74509  -0.74351  -0.73033  -0.72329
 Alpha  occ. eigenvalues --   -0.71628  -0.71515  -0.71039  -0.69824  -0.68472
 Alpha  occ. eigenvalues --   -0.67772  -0.67348  -0.65633  -0.65331  -0.64696
 Alpha  occ. eigenvalues --   -0.64260  -0.63698  -0.63383  -0.63004  -0.62421
 Alpha  occ. eigenvalues --   -0.62295  -0.60847  -0.60299  -0.59819  -0.59053
 Alpha  occ. eigenvalues --   -0.58397  -0.58290  -0.57817  -0.57590  -0.57412
 Alpha  occ. eigenvalues --   -0.56552  -0.56152  -0.55407  -0.54878  -0.54573
 Alpha  occ. eigenvalues --   -0.54360  -0.54231  -0.53729  -0.53288  -0.52720
 Alpha  occ. eigenvalues --   -0.52646  -0.52256  -0.51699  -0.51460  -0.51376
 Alpha  occ. eigenvalues --   -0.51340  -0.51142  -0.50887  -0.50782  -0.50686
 Alpha  occ. eigenvalues --   -0.50263  -0.50112  -0.49865  -0.49520  -0.49289
 Alpha  occ. eigenvalues --   -0.49122  -0.48913  -0.48562  -0.48421  -0.48324
 Alpha  occ. eigenvalues --   -0.48105  -0.47968  -0.47773  -0.47280  -0.47236
 Alpha  occ. eigenvalues --   -0.47059  -0.47019  -0.46653  -0.46624  -0.46260
 Alpha  occ. eigenvalues --   -0.45885  -0.45600  -0.45517  -0.45397  -0.45339
 Alpha  occ. eigenvalues --   -0.45027  -0.44824  -0.44708  -0.44504  -0.44463
 Alpha  occ. eigenvalues --   -0.44208  -0.44074  -0.43854  -0.43533  -0.43502
 Alpha  occ. eigenvalues --   -0.43469  -0.42950  -0.42804  -0.42632  -0.42290
 Alpha  occ. eigenvalues --   -0.41988  -0.41868  -0.41694  -0.41312  -0.41216
 Alpha  occ. eigenvalues --   -0.40923  -0.40814  -0.40720  -0.40699  -0.39975
 Alpha  occ. eigenvalues --   -0.39861  -0.39841  -0.39813  -0.39304  -0.39269
 Alpha  occ. eigenvalues --   -0.39107  -0.38664  -0.38398  -0.38267  -0.37336
 Alpha  occ. eigenvalues --   -0.37172  -0.37005  -0.36800  -0.36300  -0.36194
 Alpha  occ. eigenvalues --   -0.36050  -0.35979  -0.35395  -0.35285  -0.34955
 Alpha  occ. eigenvalues --   -0.34845  -0.34576  -0.34508  -0.34354  -0.33334
 Alpha  occ. eigenvalues --   -0.33164  -0.32485  -0.32423  -0.31719  -0.30547
 Alpha  occ. eigenvalues --   -0.30362  -0.30084  -0.28823  -0.26409  -0.23456
 Alpha  occ. eigenvalues --   -0.20568
 Alpha virt. eigenvalues --   -0.06187  -0.03191   0.01112   0.03871   0.05082
 Alpha virt. eigenvalues --    0.05696   0.06138   0.06735   0.07078   0.07908
 Alpha virt. eigenvalues --    0.08132   0.10293   0.10787   0.11194   0.11283

 Mulliken charges:
               1
     1  Mg   0.819366
     2  C    0.026937
     3  C   -0.189929
     4  C   -0.146818
     5  C   -0.198870
     6  N   -0.609945
     7  C    0.348886
     8  C   -0.160621
     9  C   -0.132266
    10  C    0.313229
    11  C   -0.304359
    12  C   -0.188983
    13  C   -0.254929
    14  C    0.617375
    15  O   -0.468230
    16  O   -0.490182
    17  N   -0.696825
    18  C    0.291963
    19  C   -0.009296
    20  C    0.010041
    21  C    0.303534
    22  C   -0.379400
    23  C   -0.073702
    24  C   -0.256326
    25  N   -0.677809
    26  C    0.318039
    27  C   -0.028477
    28  C    0.035466
    29  C    0.244446
    30  C   -0.344733
    31  C   -0.213594
    32  C   -0.296512
    33  N   -0.693927
    34  C    0.277354
    35  C   -0.025367
    36  C    0.190387
    37  C    0.234592
    38  C   -0.394950
    39  C    0.314737
    40  O   -0.482064
    41  C   -0.315450
    42  C    0.619642
    43  O   -0.448142
    44  O   -0.414775
    45  C   -0.080979
    46  C    0.034409
    47  C   -0.154495
    48  C    0.128417
    49  C   -0.350836
    50  C   -0.215379
    51  C   -0.168075
    52  C   -0.181702
    53  C   -0.084637
    54  C   -0.313021
    55  C   -0.173102
    56  C   -0.102305
    57  C   -0.182515
    58  C   -0.080765
    59  C   -0.314883
    60  C   -0.162546
    61  C   -0.198753
    62  C   -0.154845
    63  C   -0.070004
    64  C   -0.304130
    65  C   -0.301878
    66  H    0.088421
    67  H    0.079219
    68  H    0.097898
    69  H    0.131391
    70  H    0.094018
    71  H    0.090217
    72  H    0.123608
    73  H    0.108658
    74  H    0.130008
    75  H    0.109214
    76  H    0.132037
    77  H    0.149880
    78  H    0.121962
    79  H    0.114146
    80  H    0.104262
    81  H    0.093325
    82  H    0.102273
    83  H    0.110948
    84  H    0.112114
    85  H    0.111422
    86  H    0.130501
    87  H    0.112828
    88  H    0.045032
    89  H    0.109113
    90  H    0.126493
    91  H    0.086061
    92  H    0.125143
    93  H    0.146925
    94  H    0.119363
    95  H    0.150149
    96  H    0.133430
    97  H    0.092103
    98  H    0.126618
    99  H    0.140733
   100  H    0.112264
   101  H    0.061325
   102  H    0.107947
   103  H    0.130322
   104  H    0.089137
   105  H    0.103379
   106  H    0.099948
   107  H    0.086982
   108  H    0.079964
   109  H    0.073495
   110  H    0.097145
   111  H    0.094854
   112  H    0.086114
   113  H    0.102094
   114  H    0.105584
   115  H    0.100633
   116  H    0.079653
   117  H    0.067362
   118  H    0.069622
   119  H    0.082684
   120  H    0.084106
   121  H    0.083077
   122  H    0.113748
   123  H    0.110340
   124  H    0.076936
   125  H    0.095788
   126  H    0.112539
   127  H    0.088334
   128  H    0.094757
   129  H    0.101176
   130  H    0.059894
   131  H    0.086466
   132  H    0.106213
   133  H    0.106094
   134  H    0.092097
   135  H    0.100917
   136  H    0.084396
   137  H    0.085615
 Sum of Mulliken charges =   0.00000

 Dipole moment (field-independent basis, Debye):
    X=              2.1627    Y=              3.5440    Z=              0.4390  Tot=              4.1749
 Quadrupole moment (field-independent basis, Debye-Ang):
   XX=           -350.5468   YY=           -399.0570   ZZ=           -395.5689
   XY=            -20.0915   XZ=             12.1059   YZ=              1.7813

 Normal termination of Gaussian 09 at Sat Jul  6 12:02:00 2019.
