 Gaussian 16, Revision A.03,
 Gaussian 16:  ES64L-G16RevA.03 25-Dec-2016

 ----------------------------------------------------------------------
 # td=(NStates=1) iop(3/107=0140000000,3/108=0140000000) CAM-B3LYP/6-31
 G(d,p)
 ----------------------------------------------------------------------

 --
 TD
 --
 Symbolic Z-matrix:
 Charge =  0 Multiplicity = 1

                         Standard orientation:
 ---------------------------------------------------------------------
 Center     Atomic      Atomic             Coordinates (Angstroms)
 Number     Number       Type             X           Y           Z
 ---------------------------------------------------------------------
      1         12           0       -7.119696    0.650574    0.006861
      2          6           0       -4.857531   -1.970089    0.422369
      3          6           0       -4.675200    2.791102    1.186660
      4          6           0       -9.300426    3.102087   -0.314962
      5          6           0       -9.560752   -1.694238   -0.936873
      6          7           0       -5.075982    0.439189    0.719370
      7          6           0       -4.387074   -0.742265    0.813563
      8          6           0       -2.910348   -0.433788    1.196257
      9          6           0       -3.038589    1.015036    1.757421
     10          6           0       -4.332335    1.454055    1.155404
     11          6           0       -2.998681    1.137284    3.280289
     12          6           0       -1.929272   -0.644527    0.008588
     13          6           0       -0.489182   -0.640401    0.508102
     14          6           0        0.603989   -0.767591   -0.551680
     15          8           0        0.296285   -1.057619   -1.722949
     16          8           0        1.844303   -0.474118   -0.212926
     17          7           0       -7.015785    2.614336    0.287736
     18          6           0       -5.861789    3.309019    0.714373
     19          6           0       -6.232557    4.741525    0.753110
     20          6           0       -7.583365    4.856319    0.374774
     21          6           0       -8.041769    3.456288    0.127204
     22          6           0       -5.337313    5.896641    1.125358
     23          6           0       -8.432843    6.100999    0.264145
     24          6           0       -8.432150    7.270983    0.929836
     25          7           0       -9.006585    0.726654   -0.563631
     26          6           0       -9.822620    1.814164   -0.593224
     27          6           0      -11.148929    1.586550   -1.067713
     28          6           0      -11.177033    0.188993   -1.208747
     29          6           0       -9.893796   -0.336202   -0.910373
     30          6           0      -12.255520    2.620134   -1.433640
     31          6           0      -12.287842   -0.624233   -1.798377
     32          6           0      -12.130454   -0.968135   -3.305906
     33          7           0       -7.207458   -1.379041   -0.198472
     34          6           0       -8.255114   -2.150154   -0.592234
     35          6           0       -7.813105   -3.546288   -0.627235
     36          6           0       -6.501960   -3.568449   -0.197949
     37          6           0       -6.147407   -2.183801    0.023695
     38          6           0       -8.623724   -4.753860   -0.749271
     39          6           0       -5.396433   -4.378546    0.228907
     40          8           0       -5.215659   -5.537613    0.310403
     41          6           0       -4.265871   -3.314275    0.520467
     42          6           0       -3.528085   -3.706831    1.726974
     43          8           0       -3.757139   -3.287117    2.858890
     44          8           0       -2.656932   -4.714740    1.662502
     45          6           0       -2.299372   -5.330977    2.892088
     46          6           0        2.867205   -0.692278   -1.138891
     47          6           0        4.178219   -0.578958   -0.409433
     48          6           0        5.146318    0.283821   -0.932294
     49          6           0        5.056484    1.198921   -2.056208
     50          6           0        6.381026    0.421453   -0.128846
     51          6           0        7.579507   -0.086542   -0.916043
     52          6           0        8.819831   -0.218465   -0.010162
     53          6           0       10.023708   -0.668118   -0.810100
     54          6           0       10.013330   -2.125510   -1.063802
     55          6           0       11.342528   -0.275970    0.012408
     56          6           0       12.752699   -0.519295   -0.700257
     57          6           0       13.980307   -0.183198    0.291386
     58          6           0       15.276160   -0.230437   -0.362762
     59          6           0       15.588959   -1.730586   -0.745076
     60          6           0       16.259559    0.587023    0.438151
     61          6           0       17.742208    0.666589   -0.202640
     62          6           0       18.696624    1.379584    0.771598
     63          6           0       20.160967    1.364524    0.042240
     64          6           0       20.056096    2.123840   -1.301026
     65          6           0       21.181636    2.032528    0.995628
     66          1           0       -3.838253    3.560672    1.600196
     67          1           0      -10.017278    3.830787   -0.414738
     68          1           0      -10.226988   -2.329529   -1.293283
     69          1           0       -2.730421   -1.195687    1.912649
     70          1           0       -2.562529    1.657546    1.056888
     71          1           0       -1.888343    0.837075    3.505942
     72          1           0       -3.333151    2.186810    3.621418
     73          1           0       -3.702414    0.467487    3.777944
     74          1           0       -2.021613   -1.541033   -0.650752
     75          1           0       -2.097194    0.187643   -0.815060
     76          1           0       -0.517000    0.293777    1.014475
     77          1           0       -0.288680   -1.408291    1.239073
     78          1           0       -6.000525    6.771926    0.608475
     79          1           0       -5.191174    6.079387    2.268172
     80          1           0       -4.335148    5.609904    0.624753
     81          1           0       -9.231370    5.895072   -0.440050
     82          1           0       -8.872685    8.133040    0.604956
     83          1           0       -7.777253    7.395842    1.811314
     84          1           0      -11.733490    3.209287   -2.245322
     85          1           0      -13.241811    2.134734   -1.690572
     86          1           0      -12.175437    3.298578   -0.571620
     87          1           0      -12.637655   -1.580117   -1.153665
     88          1           0      -13.144127   -0.051062   -1.839540
     89          1           0      -12.783781   -1.649719   -3.864652
     90          1           0      -12.077909    0.030879   -3.859925
     91          1           0      -11.047110   -1.394101   -3.597778
     92          1           0       -9.062575   -5.284284   -1.707496
     93          1           0       -8.176297   -5.600141   -0.513305
     94          1           0       -9.542660   -4.917890   -0.371083
     95          1           0       -3.729236   -3.421600   -0.459772
     96          1           0       -2.035293   -4.491192    3.667478
     97          1           0       -3.222972   -5.939781    3.343872
     98          1           0       -1.527574   -6.101679    2.476199
     99          1           0        2.794717   -1.760264   -1.625099
    100          1           0        2.734354    0.027517   -1.909916
    101          1           0        4.500785   -1.143429    0.570563
    102          1           0        4.145559    1.131396   -2.465548
    103          1           0        5.434721    2.150049   -1.505196
    104          1           0        5.678644    0.998106   -2.885416
    105          1           0        6.491392    1.520318    0.124288
    106          1           0        6.312862   -0.031296    1.004360
    107          1           0        7.220171   -1.098172   -1.426581
    108          1           0        7.597521    0.499228   -1.892535
    109          1           0        8.884563    0.767167    0.347408
    110          1           0        8.521113   -0.824133    0.906705
    111          1           0        9.997953   -0.092321   -1.916863
    112          1           0        9.198224   -2.292746   -1.707678
    113          1           0       10.863977   -2.673380   -1.536744
    114          1           0        9.662652   -2.649947   -0.216851
    115          1           0       11.236410    0.783319    0.241949
    116          1           0       11.240844   -0.709686    0.879085
    117          1           0       13.015765   -1.680881   -0.923412
    118          1           0       12.756840    0.027865   -1.657976
    119          1           0       13.758751    1.080907    0.493867
    120          1           0       13.807442   -0.636293    1.300710
    121          1           0       15.018430    0.191744   -1.352761
    122          1           0       15.653493   -2.177922    0.249255
    123          1           0       14.649442   -2.287334   -1.257511
    124          1           0       16.536946   -1.877466   -1.247510
    125          1           0       15.986730    1.660955    0.480380
    126          1           0       16.568440    0.354339    1.533124
    127          1           0       18.053916   -0.382896   -0.305082
    128          1           0       17.601818    1.114042   -1.302141
    129          1           0       18.474925    2.441897    1.078063
    130          1           0       18.630044    0.738034    1.659571
    131          1           0       20.432611    0.363850    0.024517
    132          1           0       19.980474    3.246149   -1.055579
    133          1           0       20.811186    2.011350   -2.023332
    134          1           0       19.262940    1.606177   -2.034970
    135          1           0       21.252867    1.525303    2.037763
    136          1           0       22.148799    2.257031    0.440068
    137          1           0       20.788273    3.089133    1.295489
 ---------------------------------------------------------------------

 SCF Done:  E(RCAM-B3LYP) =  -2933.53165753     A.U. after   16 cycles

 Excitation energies and oscillator strengths:

 Excited State   1:      Singlet-A      2.0804 eV  595.96 nm  f=0.2438  <S**2>=0.000
     240 -> 243       -0.24810
     241 -> 242        0.65817
 This state for optimization and/or second-order correction.
 Total Energy, E(TD-HF/TD-DFT) =  -2933.45520368
 Copying the excited state density for this state as the 1-particle RhoCI density.

 The electronic state is 1-A.
 Alpha  occ. eigenvalues --  -46.78960 -19.22467 -19.21031 -19.16349 -19.15503
 Alpha  occ. eigenvalues --  -19.15063 -14.37555 -14.35334 -14.35161 -14.34830
 Alpha  occ. eigenvalues --  -10.34382 -10.33702 -10.30301 -10.27965 -10.27756
 Alpha  occ. eigenvalues --  -10.26028 -10.26012 -10.25935 -10.25233 -10.24820
 Alpha  occ. eigenvalues --  -10.24560 -10.24077 -10.23838 -10.23814 -10.23811
 Alpha  occ. eigenvalues --  -10.23778 -10.23664 -10.23648 -10.23346 -10.23174
 Alpha  occ. eigenvalues --  -10.23116 -10.23026 -10.22973 -10.22906 -10.22878
 Alpha  occ. eigenvalues --  -10.22820 -10.22784 -10.22707 -10.22632 -10.22513
 Alpha  occ. eigenvalues --  -10.22419 -10.22380 -10.22340 -10.22319 -10.22317
 Alpha  occ. eigenvalues --  -10.22303 -10.22155 -10.22055 -10.21859 -10.21832
 Alpha  occ. eigenvalues --  -10.21750 -10.21527 -10.21522 -10.21441 -10.21407
 Alpha  occ. eigenvalues --  -10.21345 -10.21291 -10.21245 -10.21153 -10.21137
 Alpha  occ. eigenvalues --  -10.21099 -10.20494 -10.19750 -10.19638 -10.18757
 Alpha  occ. eigenvalues --   -3.07795  -1.82723  -1.82276  -1.82207  -1.14401
 Alpha  occ. eigenvalues --   -1.13299  -1.08634  -1.02761  -1.02256  -0.99966
 Alpha  occ. eigenvalues --   -0.98778  -0.98010  -0.96824  -0.88939  -0.86917
 Alpha  occ. eigenvalues --   -0.85074  -0.84922  -0.84429  -0.84228  -0.83487
 Alpha  occ. eigenvalues --   -0.83070  -0.82752  -0.82533  -0.82515  -0.81349
 Alpha  occ. eigenvalues --   -0.80005  -0.78964  -0.78624  -0.77845  -0.77568
 Alpha  occ. eigenvalues --   -0.76950  -0.76597  -0.76391  -0.74800  -0.74060
 Alpha  occ. eigenvalues --   -0.73030  -0.72342  -0.72058  -0.71558  -0.70819
 Alpha  occ. eigenvalues --   -0.70187  -0.70039  -0.69615  -0.69055  -0.68339
 Alpha  occ. eigenvalues --   -0.67811  -0.65666  -0.65105  -0.64401  -0.63949
 Alpha  occ. eigenvalues --   -0.63179  -0.62058  -0.61417  -0.61103  -0.60276
 Alpha  occ. eigenvalues --   -0.59639  -0.59322  -0.58925  -0.58720  -0.57546
 Alpha  occ. eigenvalues --   -0.57382  -0.56386  -0.56212  -0.55677  -0.55583
 Alpha  occ. eigenvalues --   -0.55025  -0.54766  -0.54136  -0.53646  -0.53234
 Alpha  occ. eigenvalues --   -0.52987  -0.51413  -0.51196  -0.51005  -0.50576
 Alpha  occ. eigenvalues --   -0.50176  -0.50074  -0.49646  -0.49285  -0.49005
 Alpha  occ. eigenvalues --   -0.48891  -0.48559  -0.48544  -0.48400  -0.48114
 Alpha  occ. eigenvalues --   -0.47554  -0.47436  -0.47325  -0.47197  -0.46943
 Alpha  occ. eigenvalues --   -0.46646  -0.46593  -0.46299  -0.45961  -0.45934
 Alpha  occ. eigenvalues --   -0.45664  -0.45381  -0.45202  -0.45082  -0.44723
 Alpha  occ. eigenvalues --   -0.44413  -0.44107  -0.43935  -0.43781  -0.43673
 Alpha  occ. eigenvalues --   -0.43520  -0.42995  -0.42986  -0.42604  -0.42402
 Alpha  occ. eigenvalues --   -0.42260  -0.42111  -0.41976  -0.41811  -0.41590
 Alpha  occ. eigenvalues --   -0.41256  -0.41153  -0.40963  -0.40837  -0.40624
 Alpha  occ. eigenvalues --   -0.40437  -0.40354  -0.40032  -0.39961  -0.39811
 Alpha  occ. eigenvalues --   -0.39433  -0.39175  -0.39061  -0.38712  -0.38684
 Alpha  occ. eigenvalues --   -0.38506  -0.38377  -0.38211  -0.38080  -0.37877
 Alpha  occ. eigenvalues --   -0.37793  -0.37718  -0.37512  -0.37291  -0.37153
 Alpha  occ. eigenvalues --   -0.36863  -0.36738  -0.36662  -0.36405  -0.36288
 Alpha  occ. eigenvalues --   -0.35454  -0.35441  -0.35166  -0.35011  -0.34792
 Alpha  occ. eigenvalues --   -0.34341  -0.34178  -0.34172  -0.33863  -0.33133
 Alpha  occ. eigenvalues --   -0.32849  -0.32720  -0.32479  -0.32384  -0.31922
 Alpha  occ. eigenvalues --   -0.31524  -0.31450  -0.31130  -0.30288  -0.30060
 Alpha  occ. eigenvalues --   -0.29345  -0.29135  -0.29049  -0.28701  -0.27195
 Alpha  occ. eigenvalues --   -0.26976  -0.25798  -0.25753  -0.25206  -0.21820
 Alpha  occ. eigenvalues --   -0.19982
 Alpha virt. eigenvalues --   -0.06814  -0.04198  -0.00165   0.02105   0.03731
 Alpha virt. eigenvalues --    0.03763   0.04251   0.04909   0.05440   0.05857
 Alpha virt. eigenvalues --    0.06598   0.08818   0.09485   0.09571   0.09948

 Mulliken charges:
               1
     1  Mg   0.811972
     2  C    0.135065
     3  C   -0.196588
     4  C   -0.175133
     5  C   -0.115670
     6  N   -0.612882
     7  C    0.271542
     8  C   -0.168615
     9  C   -0.126682
    10  C    0.323633
    11  C   -0.300351
    12  C   -0.177951
    13  C   -0.255918
    14  C    0.584024
    15  O   -0.491748
    16  O   -0.427553
    17  N   -0.744389
    18  C    0.322643
    19  C   -0.009833
    20  C    0.011609
    21  C    0.350994
    22  C   -0.364970
    23  C   -0.074635
    24  C   -0.245877
    25  N   -0.712277
    26  C    0.307645
    27  C    0.034282
    28  C    0.004488
    29  C    0.296944
    30  C   -0.364433
    31  C   -0.246291
    32  C   -0.313146
    33  N   -0.729929
    34  C    0.277266
    35  C    0.013674
    36  C    0.049266
    37  C    0.255735
    38  C   -0.408193
    39  C    0.359140
    40  O   -0.434713
    41  C   -0.344989
    42  C    0.615135
    43  O   -0.507619
    44  O   -0.433571
    45  C   -0.079077
    46  C    0.005966
    47  C   -0.129740
    48  C    0.112538
    49  C   -0.335370
    50  C   -0.227341
    51  C   -0.172466
    52  C   -0.170324
    53  C   -0.056540
    54  C   -0.303866
    55  C   -0.165017
    56  C   -0.183095
    57  C   -0.152155
    58  C   -0.030519
    59  C   -0.323967
    60  C   -0.181518
    61  C   -0.183398
    62  C   -0.174681
    63  C   -0.043366
    64  C   -0.302261
    65  C   -0.310344
    66  H    0.087903
    67  H    0.052109
    68  H    0.079204
    69  H    0.119425
    70  H    0.115055
    71  H    0.106475
    72  H    0.106651
    73  H    0.141954
    74  H    0.124559
    75  H    0.094661
    76  H    0.133229
    77  H    0.135974
    78  H    0.111586
    79  H    0.117632
    80  H    0.107594
    81  H    0.087642
    82  H    0.113475
    83  H    0.104747
    84  H    0.132107
    85  H    0.125070
    86  H    0.133451
    87  H    0.086705
    88  H    0.109436
    89  H    0.114732
    90  H    0.100372
    91  H    0.088245
    92  H    0.088252
    93  H    0.147525
    94  H    0.134604
    95  H    0.169267
    96  H    0.133181
    97  H    0.117452
    98  H    0.116736
    99  H    0.114090
   100  H    0.123193
   101  H    0.091345
   102  H    0.109813
   103  H    0.111658
   104  H    0.130149
   105  H    0.087285
   106  H    0.069357
   107  H    0.080251
   108  H    0.094311
   109  H    0.105132
   110  H    0.094084
   111  H    0.049124
   112  H    0.103950
   113  H    0.103107
   114  H    0.101500
   115  H    0.085054
   116  H    0.098430
   117  H    0.067576
   118  H    0.097365
   119  H    0.033091
   120  H    0.091940
   121  H    0.093783
   122  H    0.103337
   123  H    0.091311
   124  H    0.107714
   125  H    0.101379
   126  H    0.075294
   127  H    0.092820
   128  H    0.079270
   129  H    0.087688
   130  H    0.092608
   131  H    0.097548
   132  H    0.098719
   133  H    0.108767
   134  H    0.085577
   135  H    0.093777
   136  H    0.096527
   137  H    0.080501
 Sum of Mulliken charges =  -0.00000

 Dipole moment (field-independent basis, Debye):
    X=              0.8798    Y=              4.3023    Z=             -0.1589  Tot=              4.3942
 Quadrupole moment (field-independent basis, Debye-Ang):
   XX=           -336.6233   YY=           -394.5003   ZZ=           -396.8652
   XY=            -22.6411   XZ=             12.5720   YZ=              0.7655

 Normal termination of Gaussian 16 at Mon Sep 23 11:09:12 2019.
