 Gaussian 16, Revision A.03,
 Gaussian 16:  ES64L-G16RevA.03 25-Dec-2016

 ----------------------------------------------------------------------
 # td=(NStates=1) iop(3/107=0140000000,3/108=0140000000) CAM-B3LYP/6-31
 G(d,p)
 ----------------------------------------------------------------------

 --
 TD
 --
 Symbolic Z-matrix:
 Charge =  0 Multiplicity = 1

                         Standard orientation:
 ---------------------------------------------------------------------
 Center     Atomic      Atomic             Coordinates (Angstroms)
 Number     Number       Type             X           Y           Z
 ---------------------------------------------------------------------
      1         12           0       -7.108545    0.608809    0.163411
      2          6           0       -4.874690   -1.971199    0.547015
      3          6           0       -4.736320    2.875304    1.066627
      4          6           0       -9.380107    3.018737   -0.266715
      5          6           0       -9.606411   -1.732447   -0.843247
      6          7           0       -5.011175    0.448952    0.763275
      7          6           0       -4.318154   -0.710753    0.849369
      8          6           0       -2.836680   -0.408479    1.177529
      9          6           0       -2.929335    0.998006    1.663627
     10          6           0       -4.336654    1.557269    1.094869
     11          6           0       -2.828958    1.231905    3.203073
     12          6           0       -1.990877   -0.640760    0.034761
     13          6           0       -0.523393   -0.483647    0.413961
     14          6           0        0.517052   -0.655094   -0.651413
     15          8           0        0.206982   -0.956604   -1.816997
     16          8           0        1.757396   -0.426381   -0.198098
     17          7           0       -7.020067    2.546552    0.250198
     18          6           0       -5.922219    3.357520    0.735467
     19          6           0       -6.262224    4.759330    0.705952
     20          6           0       -7.636428    4.797876    0.337878
     21          6           0       -7.999402    3.427662    0.008991
     22          6           0       -5.423634    5.866884    1.134265
     23          6           0       -8.507841    5.964695    0.075250
     24          6           0       -8.371552    7.151901    0.710095
     25          7           0       -9.075031    0.742155   -0.461034
     26          6           0       -9.912874    1.798427   -0.600677
     27          6           0      -11.237120    1.535354   -0.976937
     28          6           0      -11.243368    0.218727   -1.241459
     29          6           0       -9.873609   -0.300073   -0.834851
     30          6           0      -12.354030    2.524296   -1.206974
     31          6           0      -12.384348   -0.675442   -1.632660
     32          6           0      -12.310402   -1.081978   -3.202445
     33          7           0       -7.314212   -1.393229   -0.129885
     34          6           0       -8.311018   -2.225139   -0.592988
     35          6           0       -7.896324   -3.645118   -0.474076
     36          6           0       -6.603399   -3.556454   -0.020483
     37          6           0       -6.283039   -2.186087    0.199858
     38          6           0       -8.681382   -4.947197   -0.759952
     39          6           0       -5.474339   -4.312083    0.241944
     40          8           0       -5.278865   -5.505595    0.132539
     41          6           0       -4.180144   -3.340695    0.493032
     42          6           0       -3.515247   -3.702452    1.771589
     43          8           0       -3.787159   -3.304522    2.875095
     44          8           0       -2.626873   -4.792084    1.606551
     45          6           0       -2.006995   -5.329989    2.748531
     46          6           0        2.788039   -0.445963   -1.199771
     47          6           0        4.157006   -0.442667   -0.576741
     48          6           0        5.094474    0.423181   -0.969086
     49          6           0        4.932281    1.463638   -2.128310
     50          6           0        6.454646    0.419653   -0.212982
     51          6           0        7.605768   -0.162182   -0.916357
     52          6           0        8.863901   -0.149668   -0.050088
     53          6           0       10.202000   -0.580704   -0.952781
     54          6           0       10.075590   -2.023131   -1.332712
     55          6           0       11.412451   -0.363179   -0.059196
     56          6           0       12.800299   -0.494384   -0.813688
     57          6           0       13.921863   -0.099730    0.024335
     58          6           0       15.355937   -0.247956   -0.615794
     59          6           0       15.604036   -1.701223   -0.992728
     60          6           0       16.431208    0.327670    0.422970
     61          6           0       17.812531    0.499530   -0.175935
     62          6           0       18.768307    1.159044    0.822512
     63          6           0       20.269799    1.307623    0.275754
     64          6           0       20.219389    2.204959   -0.869843
     65          6           0       21.067928    1.895824    1.464535
     66          1           0       -3.978279    3.498135    1.477267
     67          1           0      -10.057381    3.982018   -0.487535
     68          1           0      -10.495712   -2.195587   -1.096224
     69          1           0       -2.609641   -1.193879    2.011776
     70          1           0       -2.184130    1.546773    1.138437
     71          1           0       -1.807515    0.955507    3.484049
     72          1           0       -2.751381    2.292295    3.472936
     73          1           0       -3.743275    0.708084    3.692660
     74          1           0       -2.153770   -1.573031   -0.120461
     75          1           0       -2.208918    0.258307   -0.725105
     76          1           0       -0.153069    0.426549    0.785964
     77          1           0       -0.301039   -1.362572    1.123780
     78          1           0       -5.726993    6.881046    1.030743
     79          1           0       -5.382148    5.869585    2.114186
     80          1           0       -4.487079    5.800243    0.818081
     81          1           0       -9.091418    5.999106   -0.692611
     82          1           0       -9.073837    8.004497    0.509171
     83          1           0       -7.804526    7.275184    1.711273
     84          1           0      -12.043720    3.229107   -1.931355
     85          1           0      -13.420149    2.097493   -1.543642
     86          1           0      -12.543054    2.940646   -0.127484
     87          1           0      -12.061508   -1.539481   -1.005924
     88          1           0      -13.490559   -0.372321   -1.395509
     89          1           0      -13.242271   -1.637390   -3.457182
     90          1           0      -12.273235   -0.249756   -3.772481
     91          1           0      -11.266239   -1.769132   -3.584561
     92          1           0       -8.834819   -4.911391   -1.779496
     93          1           0       -8.163969   -5.764201   -0.489531
     94          1           0       -9.481373   -4.942819   -0.239535
     95          1           0       -3.573951   -3.340458   -0.512234
     96          1           0       -1.439638   -4.637269    3.563704
     97          1           0       -2.631457   -5.705704    3.630116
     98          1           0       -1.502675   -6.248769    2.396943
     99          1           0        2.805465   -1.430704   -1.640318
    100          1           0        2.664709    0.545483   -1.867772
    101          1           0        4.167162   -0.938610    0.348726
    102          1           0        3.858863    1.512904   -2.564515
    103          1           0        5.198336    2.575865   -1.898936
    104          1           0        5.586597    1.307005   -3.146499
    105          1           0        6.607485    1.582637    0.117004
    106          1           0        6.487780   -0.065145    0.711932
    107          1           0        7.358524   -1.198236   -1.403099
    108          1           0        7.824263    0.490529   -1.671288
    109          1           0        9.347540    0.822223    0.238883
    110          1           0        8.953007   -0.619049    0.833329
    111          1           0       10.174687    0.095767   -1.736701
    112          1           0        9.183157   -2.214513   -2.154134
    113          1           0       11.103818   -2.429552   -1.751265
    114          1           0        9.683726   -2.639804   -0.390223
    115          1           0       11.411430    0.651945    0.306815
    116          1           0       11.358037   -1.147904    0.766560
    117          1           0       12.955437   -1.407071   -1.245442
    118          1           0       12.621293    0.451397   -1.645749
    119          1           0       13.851050    0.829677    0.318449
    120          1           0       13.766237   -0.770147    0.909627
    121          1           0       15.373797    0.379277   -1.631305
    122          1           0       15.622281   -2.121857   -0.040178
    123          1           0       15.054491   -2.075699   -1.874719
    124          1           0       16.678152   -1.394888   -1.139435
    125          1           0       16.005095    1.241709    0.899960
    126          1           0       16.541337   -0.348655    1.287905
    127          1           0       18.069045   -0.570703   -0.493035
    128          1           0       17.537602    1.094168   -1.156848
    129          1           0       18.390518    2.101908    1.057945
    130          1           0       18.711075    0.626012    1.760836
    131          1           0       20.735632    0.356244    0.222546
    132          1           0       19.910159    3.159484   -0.631292
    133          1           0       21.258283    2.483064   -1.125862
    134          1           0       19.680917    1.809865   -1.794205
    135          1           0       21.024677    1.149643    2.304660
    136          1           0       22.188773    2.109290    1.119403
    137          1           0       20.690440    2.825549    1.769075
 ---------------------------------------------------------------------

 SCF Done:  E(RCAM-B3LYP) =  -2933.46452588     A.U. after   16 cycles

 Excitation energies and oscillator strengths:

 Excited State   1:      Singlet-A      1.9942 eV  621.71 nm  f=0.2452  <S**2>=0.000
     240 -> 243       -0.22771
     241 -> 242        0.66567
 This state for optimization and/or second-order correction.
 Total Energy, E(TD-HF/TD-DFT) =  -2933.39123929
 Copying the excited state density for this state as the 1-particle RhoCI density.

 The electronic state is 1-A.
 Alpha  occ. eigenvalues --  -46.79913 -19.22506 -19.21353 -19.17206 -19.15622
 Alpha  occ. eigenvalues --  -19.15438 -14.37518 -14.35829 -14.35231 -14.35154
 Alpha  occ. eigenvalues --  -10.34722 -10.33851 -10.29913 -10.27736 -10.27102
 Alpha  occ. eigenvalues --  -10.25993 -10.25981 -10.25629 -10.25132 -10.25083
 Alpha  occ. eigenvalues --  -10.25073 -10.24888 -10.24840 -10.24681 -10.24125
 Alpha  occ. eigenvalues --  -10.24083 -10.24038 -10.23931 -10.23617 -10.23393
 Alpha  occ. eigenvalues --  -10.22842 -10.22793 -10.22720 -10.22718 -10.22708
 Alpha  occ. eigenvalues --  -10.22656 -10.22652 -10.22622 -10.22479 -10.22452
 Alpha  occ. eigenvalues --  -10.22418 -10.22139 -10.22035 -10.21902 -10.21776
 Alpha  occ. eigenvalues --  -10.21760 -10.21623 -10.21500 -10.21384 -10.21177
 Alpha  occ. eigenvalues --  -10.21128 -10.21038 -10.20969 -10.20952 -10.20936
 Alpha  occ. eigenvalues --  -10.20832 -10.20682 -10.20408 -10.20319 -10.20267
 Alpha  occ. eigenvalues --  -10.19563 -10.19534 -10.19110 -10.19061 -10.18544
 Alpha  occ. eigenvalues --   -3.08605  -1.83531  -1.83081  -1.83023  -1.12939
 Alpha  occ. eigenvalues --   -1.11779  -1.05904  -1.04180  -1.02644  -0.99631
 Alpha  occ. eigenvalues --   -0.98923  -0.98599  -0.97042  -0.87298  -0.86576
 Alpha  occ. eigenvalues --   -0.85977  -0.85458  -0.84573  -0.84499  -0.83827
 Alpha  occ. eigenvalues --   -0.83745  -0.83447  -0.82566  -0.82252  -0.81455
 Alpha  occ. eigenvalues --   -0.80427  -0.79911  -0.78982  -0.78446  -0.77578
 Alpha  occ. eigenvalues --   -0.76828  -0.76403  -0.75924  -0.75372  -0.74049
 Alpha  occ. eigenvalues --   -0.73773  -0.72333  -0.71854  -0.71392  -0.70639
 Alpha  occ. eigenvalues --   -0.70576  -0.70069  -0.69366  -0.69076  -0.68676
 Alpha  occ. eigenvalues --   -0.67119  -0.66726  -0.65388  -0.64273  -0.64073
 Alpha  occ. eigenvalues --   -0.62499  -0.62169  -0.61239  -0.60435  -0.60189
 Alpha  occ. eigenvalues --   -0.59779  -0.59392  -0.58725  -0.58307  -0.58034
 Alpha  occ. eigenvalues --   -0.57247  -0.57168  -0.56473  -0.56068  -0.55398
 Alpha  occ. eigenvalues --   -0.54945  -0.54156  -0.53871  -0.53611  -0.53400
 Alpha  occ. eigenvalues --   -0.52244  -0.52190  -0.51187  -0.51137  -0.50173
 Alpha  occ. eigenvalues --   -0.50085  -0.50025  -0.49941  -0.49537  -0.49514
 Alpha  occ. eigenvalues --   -0.49138  -0.48695  -0.48346  -0.48153  -0.47993
 Alpha  occ. eigenvalues --   -0.47879  -0.47686  -0.47491  -0.47144  -0.46968
 Alpha  occ. eigenvalues --   -0.46788  -0.46531  -0.46468  -0.46224  -0.46021
 Alpha  occ. eigenvalues --   -0.45853  -0.45803  -0.45298  -0.45240  -0.45097
 Alpha  occ. eigenvalues --   -0.44396  -0.44311  -0.44172  -0.44027  -0.43754
 Alpha  occ. eigenvalues --   -0.43615  -0.43449  -0.43143  -0.42931  -0.42882
 Alpha  occ. eigenvalues --   -0.42694  -0.42134  -0.41761  -0.41722  -0.41514
 Alpha  occ. eigenvalues --   -0.41297  -0.41041  -0.40973  -0.40777  -0.40604
 Alpha  occ. eigenvalues --   -0.40537  -0.40223  -0.40084  -0.40059  -0.39931
 Alpha  occ. eigenvalues --   -0.39794  -0.39417  -0.39318  -0.39232  -0.38907
 Alpha  occ. eigenvalues --   -0.38737  -0.38380  -0.38371  -0.38141  -0.37993
 Alpha  occ. eigenvalues --   -0.37918  -0.37858  -0.37739  -0.37675  -0.37428
 Alpha  occ. eigenvalues --   -0.37041  -0.36840  -0.36608  -0.36484  -0.36130
 Alpha  occ. eigenvalues --   -0.35964  -0.35909  -0.35274  -0.35041  -0.34902
 Alpha  occ. eigenvalues --   -0.34795  -0.34327  -0.33909  -0.33839  -0.33766
 Alpha  occ. eigenvalues --   -0.33178  -0.32724  -0.32690  -0.32193  -0.32029
 Alpha  occ. eigenvalues --   -0.31852  -0.30918  -0.30766  -0.30452  -0.30397
 Alpha  occ. eigenvalues --   -0.30146  -0.29191  -0.28741  -0.28324  -0.27628
 Alpha  occ. eigenvalues --   -0.27318  -0.26676  -0.26564  -0.25037  -0.21614
 Alpha  occ. eigenvalues --   -0.19505
 Alpha virt. eigenvalues --   -0.06949  -0.03599  -0.00096   0.02210   0.03021
 Alpha virt. eigenvalues --    0.03797   0.04427   0.04711   0.05031   0.05965
 Alpha virt. eigenvalues --    0.06514   0.08961   0.09571   0.09843   0.10117

 Mulliken charges:
               1
     1  Mg   0.820801
     2  C    0.054978
     3  C   -0.182652
     4  C   -0.213130
     5  C   -0.140731
     6  N   -0.626135
     7  C    0.297572
     8  C   -0.162724
     9  C   -0.145290
    10  C    0.307042
    11  C   -0.304969
    12  C   -0.091026
    13  C   -0.264661
    14  C    0.591125
    15  O   -0.492219
    16  O   -0.469355
    17  N   -0.717114
    18  C    0.305774
    19  C    0.044856
    20  C   -0.013843
    21  C    0.301667
    22  C   -0.381782
    23  C   -0.054737
    24  C   -0.253504
    25  N   -0.668854
    26  C    0.309948
    27  C    0.079063
    28  C    0.008951
    29  C    0.280006
    30  C   -0.365946
    31  C   -0.259896
    32  C   -0.300459
    33  N   -0.710181
    34  C    0.241034
    35  C   -0.033423
    36  C    0.094952
    37  C    0.297839
    38  C   -0.339678
    39  C    0.311608
    40  O   -0.460159
    41  C   -0.326903
    42  C    0.634590
    43  O   -0.453496
    44  O   -0.452009
    45  C   -0.082356
    46  C    0.036639
    47  C   -0.139461
    48  C    0.127310
    49  C   -0.368884
    50  C   -0.221655
    51  C   -0.148314
    52  C   -0.198563
    53  C   -0.052779
    54  C   -0.282789
    55  C   -0.177211
    56  C   -0.164982
    57  C   -0.136070
    58  C   -0.082895
    59  C   -0.292393
    60  C   -0.196094
    61  C   -0.173143
    62  C   -0.171124
    63  C   -0.050199
    64  C   -0.299789
    65  C   -0.311689
    66  H    0.076440
    67  H    0.058656
    68  H    0.076017
    69  H    0.110568
    70  H    0.088268
    71  H    0.113231
    72  H    0.105191
    73  H    0.122085
    74  H    0.102088
    75  H    0.102751
    76  H    0.130784
    77  H    0.124084
    78  H    0.122463
    79  H    0.140367
    80  H    0.120035
    81  H    0.095912
    82  H    0.095582
    83  H    0.091916
    84  H    0.136421
    85  H    0.100570
    86  H    0.117875
    87  H    0.112524
    88  H    0.103964
    89  H    0.104739
    90  H    0.132583
    91  H    0.072989
    92  H    0.134479
    93  H    0.146500
    94  H    0.132631
    95  H    0.165969
    96  H    0.094737
    97  H    0.109582
    98  H    0.124278
    99  H    0.137172
   100  H    0.102279
   101  H    0.105194
   102  H    0.107839
   103  H    0.115777
   104  H    0.104640
   105  H    0.070335
   106  H    0.104463
   107  H    0.093517
   108  H    0.109160
   109  H    0.081127
   110  H    0.098522
   111  H    0.091639
   112  H    0.076299
   113  H    0.088110
   114  H    0.087675
   115  H    0.091017
   116  H    0.078171
   117  H    0.095581
   118  H    0.037344
   119  H    0.089719
   120  H    0.072287
   121  H    0.060013
   122  H    0.111143
   123  H    0.113254
   124  H    0.087851
   125  H    0.087374
   126  H    0.087063
   127  H    0.095999
   128  H    0.082062
   129  H    0.099006
   130  H    0.084781
   131  H    0.096152
   132  H    0.110861
   133  H    0.087413
   134  H    0.103448
   135  H    0.097187
   136  H    0.074552
   137  H    0.107208
 Sum of Mulliken charges =  -0.00000

 Dipole moment (field-independent basis, Debye):
    X=              0.7527    Y=              5.5641    Z=              0.9597  Tot=              5.6962
 Quadrupole moment (field-independent basis, Debye-Ang):
   XX=           -323.0033   YY=           -395.5273   ZZ=           -399.1747
   XY=            -12.4663   XZ=             18.6549   YZ=              0.1742

 Normal termination of Gaussian 16 at Wed Sep 11 09:34:41 2019.
