 Gaussian 09, Revision D.01,
 Gaussian 09:  ES64L-G09RevD.01 24-Apr-2013

 -------------------------------------
 # td=(NStates=1) CAM-B3LYP/6-31G(d,p)
 -------------------------------------

 --
 TD
 --
 Symbolic Z-matrix:
 Charge =  0 Multiplicity = 1

                         Standard orientation:
 ---------------------------------------------------------------------
 Center     Atomic      Atomic             Coordinates (Angstroms)
 Number     Number       Type             X           Y           Z
 ---------------------------------------------------------------------
      1         12           0       -7.146543    0.629424    0.087605
      2          6           0       -4.775354   -1.938219    0.423529
      3          6           0       -4.889507    2.837828    1.089841
      4          6           0       -9.488119    3.057874   -0.336551
      5          6           0       -9.468173   -1.728735   -1.004571
      6          7           0       -5.070101    0.399651    0.609598
      7          6           0       -4.233699   -0.657607    0.720045
      8          6           0       -2.853792   -0.391971    1.191576
      9          6           0       -3.011694    1.148794    1.557458
     10          6           0       -4.411733    1.515790    1.035893
     11          6           0       -2.871943    1.311149    3.207249
     12          6           0       -1.860010   -0.473830   -0.103818
     13          6           0       -0.447754   -0.325691    0.355303
     14          6           0        0.502631   -0.576333   -0.688089
     15          8           0        0.200218   -0.991249   -1.844761
     16          8           0        1.789476   -0.365034   -0.285755
     17          7           0       -7.211348    2.566307    0.263174
     18          6           0       -6.183843    3.270345    0.743675
     19          6           0       -6.486397    4.761876    0.731624
     20          6           0       -7.738793    4.847070    0.293679
     21          6           0       -8.222707    3.511561   -0.098650
     22          6           0       -5.543789    5.895446    1.116937
     23          6           0       -8.684818    5.935000    0.112931
     24          6           0       -8.747983    7.087793    0.785663
     25          7           0       -9.145525    0.632550   -0.539915
     26          6           0       -9.840014    1.730145   -0.606821
     27          6           0      -11.177892    1.346501   -1.000485
     28          6           0      -11.275165    0.061770   -1.244184
     29          6           0       -9.977609   -0.450248   -0.838133
     30          6           0      -12.286545    2.365264   -1.100266
     31          6           0      -12.387353   -0.821022   -1.618635
     32          6           0      -12.336387   -1.389967   -3.033761
     33          7           0       -7.197797   -1.463311   -0.262951
     34          6           0       -8.271544   -2.228282   -0.603980
     35          6           0       -7.754201   -3.626803   -0.527310
     36          6           0       -6.398667   -3.540681   -0.059324
     37          6           0       -6.099606   -2.169425    0.047703
     38          6           0       -8.536115   -4.902738   -0.673543
     39          6           0       -5.353725   -4.308472    0.291256
     40          8           0       -5.149512   -5.564379    0.339898
     41          6           0       -4.150339   -3.404511    0.626379
     42          6           0       -3.511623   -3.588274    1.934278
     43          8           0       -3.790914   -3.037411    2.963404
     44          8           0       -2.537390   -4.530815    1.863621
     45          6           0       -2.006871   -4.956255    3.117296
     46          6           0        2.821327   -0.462936   -1.321709
     47          6           0        4.161493   -0.412780   -0.738951
     48          6           0        5.174131    0.374437   -1.148306
     49          6           0        5.102992    1.214475   -2.354989
     50          6           0        6.457865    0.451015   -0.369783
     51          6           0        7.619501   -0.215467   -1.070588
     52          6           0        8.898397   -0.116209   -0.179254
     53          6           0       10.232561   -0.610215   -0.821467
     54          6           0       10.054808   -2.120116   -1.191531
     55          6           0       11.447195   -0.325358    0.061093
     56          6           0       12.751598   -0.560519   -0.612468
     57          6           0       13.938302   -0.144449    0.256712
     58          6           0       15.252206   -0.259934   -0.400670
     59          6           0       15.683762   -1.635194   -0.806484
     60          6           0       16.429156    0.416641    0.466701
     61          6           0       17.887355    0.537675   -0.060983
     62          6           0       18.763572    1.320983    0.763582
     63          6           0       20.286995    1.369421    0.271497
     64          6           0       20.282798    2.111267   -1.117955
     65          6           0       21.192457    1.936661    1.321494
     66          1           0       -4.044086    3.582992    1.122944
     67          1           0      -10.348743    3.607618   -0.197446
     68          1           0      -10.116777   -2.613937   -1.160775
     69          1           0       -2.529959   -1.007751    2.056193
     70          1           0       -2.187720    1.546393    1.188201
     71          1           0       -1.791742    1.304157    3.360471
     72          1           0       -2.992292    2.383701    3.381838
     73          1           0       -3.556124    0.541639    3.763563
     74          1           0       -1.994746   -1.356228   -0.587878
     75          1           0       -2.082733    0.214406   -0.883664
     76          1           0       -0.089948    0.789543    0.675358
     77          1           0       -0.275599   -1.040756    1.286502
     78          1           0       -5.866015    6.843891    0.852703
     79          1           0       -5.332383    5.895607    2.263893
     80          1           0       -4.595180    5.629867    0.796785
     81          1           0       -9.675341    5.801767   -0.583815
     82          1           0       -9.553796    7.854703    0.651215
     83          1           0       -7.971971    7.314254    1.475215
     84          1           0      -11.956424    3.313791   -1.598484
     85          1           0      -13.167652    1.721283   -1.574113
     86          1           0      -12.719289    2.642454    0.024658
     87          1           0      -12.424527   -1.742060   -0.887250
     88          1           0      -13.150294   -0.237408   -1.618450
     89          1           0      -13.113831   -2.118953   -3.217919
     90          1           0      -12.636354   -0.643931   -3.687206
     91          1           0      -11.413782   -1.898211   -3.261060
     92          1           0       -9.158458   -4.767110   -1.671835
     93          1           0       -7.956316   -5.741031   -0.744438
     94          1           0       -9.231686   -5.103915    0.226787
     95          1           0       -3.353599   -3.446260   -0.195026
     96          1           0       -1.123975   -4.267995    3.483929
     97          1           0       -2.798748   -5.142068    3.825682
     98          1           0       -1.393964   -5.938708    2.851309
     99          1           0        2.560445   -1.405915   -1.912502
    100          1           0        2.677044    0.376714   -2.027203
    101          1           0        4.308909   -1.039145    0.163272
    102          1           0        4.119807    1.139508   -2.883317
    103          1           0        5.330785    2.225542   -1.878015
    104          1           0        5.972773    0.921026   -3.029762
    105          1           0        6.545028    1.604458   -0.261721
    106          1           0        6.073932    0.115236    0.745480
    107          1           0        7.476244   -1.239804   -1.302707
    108          1           0        7.961501    0.228717   -2.012760
    109          1           0        9.076643    0.807284    0.268207
    110          1           0        8.581461   -0.666208    0.810020
    111          1           0       10.382340    0.061466   -1.707186
    112          1           0        9.217185   -2.244987   -1.884258
    113          1           0       10.902330   -2.485922   -1.765365
    114          1           0       10.099997   -2.610738   -0.320958
    115          1           0       11.366132    0.802563    0.256057
    116          1           0       11.418483   -1.038669    0.879664
    117          1           0       12.802511   -1.630896   -0.723780
    118          1           0       13.027224    0.004573   -1.624993
    119          1           0       13.866863    0.966902    0.478919
    120          1           0       14.046424   -0.723823    1.280581
    121          1           0       15.204792    0.415636   -1.194760
    122          1           0       15.773804   -2.241922    0.097163
    123          1           0       15.033546   -2.240643   -1.404158
    124          1           0       16.512360   -1.743828   -1.578106
    125          1           0       16.098509    1.488985    0.719600
    126          1           0       16.241948   -0.116167    1.213402
    127          1           0       18.117931   -0.543639   -0.062737
    128          1           0       17.529923    0.909826   -1.025192
    129          1           0       18.411193    2.362626    0.946224
    130          1           0       18.838381    1.212044    1.971467
    131          1           0       20.299226    0.322933    0.124084
    132          1           0       19.760818    3.068929   -0.728529
    133          1           0       21.417047    2.302876   -1.381724
    134          1           0       19.800003    1.667438   -1.932525
    135          1           0       20.792868    1.370436    2.346676
    136          1           0       22.140081    1.592059    0.983350
    137          1           0       20.910425    3.047158    1.367510
 ---------------------------------------------------------------------

 SCF Done:  E(RCAM-B3LYP) =  -2932.69879084     A.U. after   18 cycles

 Excitation energies and oscillator strengths:

 Excited State   1:      Singlet-A      2.0823 eV  595.43 nm  f=0.2615  <S**2>=0.000
     240 -> 243       -0.24860
     241 -> 242        0.64560
 This state for optimization and/or second-order correction.
 Total Energy, E(TD-HF/TD-KS) =  -2932.62226844
 Copying the excited state density for this state as the 1-particle RhoCI density.

 The electronic state is 1-A.
 Alpha  occ. eigenvalues --  -46.84879 -19.26122 -19.25507 -19.20538 -19.20477
 Alpha  occ. eigenvalues --  -19.17838 -14.42307 -14.40613 -14.39210 -14.38531
 Alpha  occ. eigenvalues --  -10.39233 -10.38523 -10.33016 -10.31987 -10.31866
 Alpha  occ. eigenvalues --  -10.31785 -10.31495 -10.30673 -10.30307 -10.29350
 Alpha  occ. eigenvalues --  -10.28854 -10.28549 -10.28498 -10.28314 -10.28156
 Alpha  occ. eigenvalues --  -10.28145 -10.28134 -10.28068 -10.28065 -10.28061
 Alpha  occ. eigenvalues --  -10.27967 -10.27563 -10.27468 -10.27275 -10.27176
 Alpha  occ. eigenvalues --  -10.27027 -10.26901 -10.26750 -10.26747 -10.26555
 Alpha  occ. eigenvalues --  -10.26510 -10.26434 -10.26364 -10.26186 -10.26183
 Alpha  occ. eigenvalues --  -10.26180 -10.26098 -10.25747 -10.25727 -10.25531
 Alpha  occ. eigenvalues --  -10.25529 -10.25433 -10.25422 -10.25387 -10.25261
 Alpha  occ. eigenvalues --  -10.25137 -10.25046 -10.25034 -10.24921 -10.24846
 Alpha  occ. eigenvalues --  -10.24489 -10.23971 -10.23900 -10.23845 -10.23413
 Alpha  occ. eigenvalues --   -3.13884  -1.88591  -1.88114  -1.88066  -1.18004
 Alpha  occ. eigenvalues --   -1.16563  -1.09071  -1.06922  -1.06469  -1.04996
 Alpha  occ. eigenvalues --   -1.04456  -1.03620  -1.02790  -0.92365  -0.92081
 Alpha  occ. eigenvalues --   -0.91519  -0.90515  -0.90137  -0.90130  -0.89915
 Alpha  occ. eigenvalues --   -0.88797  -0.88706  -0.87401  -0.86578  -0.86200
 Alpha  occ. eigenvalues --   -0.85418  -0.84528  -0.84139  -0.83743  -0.83580
 Alpha  occ. eigenvalues --   -0.82142  -0.81603  -0.80932  -0.80451  -0.78922
 Alpha  occ. eigenvalues --   -0.77915  -0.77501  -0.76388  -0.76116  -0.75554
 Alpha  occ. eigenvalues --   -0.75359  -0.74810  -0.74554  -0.73815  -0.72143
 Alpha  occ. eigenvalues --   -0.71801  -0.71402  -0.71134  -0.69200  -0.68912
 Alpha  occ. eigenvalues --   -0.67678  -0.67214  -0.66152  -0.65278  -0.65014
 Alpha  occ. eigenvalues --   -0.64235  -0.62908  -0.62747  -0.62534  -0.62337
 Alpha  occ. eigenvalues --   -0.61735  -0.61033  -0.60520  -0.59359  -0.59119
 Alpha  occ. eigenvalues --   -0.58737  -0.58490  -0.57915  -0.56969  -0.56540
 Alpha  occ. eigenvalues --   -0.56421  -0.55852  -0.55598  -0.55121  -0.54874
 Alpha  occ. eigenvalues --   -0.54662  -0.54217  -0.54023  -0.53445  -0.53349
 Alpha  occ. eigenvalues --   -0.53075  -0.52704  -0.52469  -0.52270  -0.52185
 Alpha  occ. eigenvalues --   -0.52019  -0.51564  -0.51436  -0.51065  -0.50933
 Alpha  occ. eigenvalues --   -0.50533  -0.50278  -0.49913  -0.49854  -0.49701
 Alpha  occ. eigenvalues --   -0.49666  -0.49463  -0.49160  -0.48875  -0.48613
 Alpha  occ. eigenvalues --   -0.48332  -0.48145  -0.48021  -0.47617  -0.47327
 Alpha  occ. eigenvalues --   -0.47255  -0.46661  -0.46515  -0.46228  -0.46032
 Alpha  occ. eigenvalues --   -0.45792  -0.45531  -0.45415  -0.45310  -0.45249
 Alpha  occ. eigenvalues --   -0.44996  -0.44840  -0.44563  -0.44503  -0.44285
 Alpha  occ. eigenvalues --   -0.44102  -0.43842  -0.43784  -0.43689  -0.43277
 Alpha  occ. eigenvalues --   -0.43020  -0.42966  -0.42617  -0.42504  -0.42336
 Alpha  occ. eigenvalues --   -0.42124  -0.41838  -0.41705  -0.41245  -0.41053
 Alpha  occ. eigenvalues --   -0.40869  -0.40561  -0.40481  -0.40332  -0.40302
 Alpha  occ. eigenvalues --   -0.40211  -0.40117  -0.39977  -0.39731  -0.39388
 Alpha  occ. eigenvalues --   -0.38887  -0.38776  -0.38528  -0.38373  -0.38167
 Alpha  occ. eigenvalues --   -0.37671  -0.37463  -0.37093  -0.36824  -0.36808
 Alpha  occ. eigenvalues --   -0.36382  -0.36319  -0.35923  -0.35738  -0.35448
 Alpha  occ. eigenvalues --   -0.35308  -0.35083  -0.34252  -0.33470  -0.33390
 Alpha  occ. eigenvalues --   -0.32933  -0.32678  -0.32528  -0.30629  -0.29336
 Alpha  occ. eigenvalues --   -0.29010  -0.28670  -0.28593  -0.28021  -0.23429
 Alpha  occ. eigenvalues --   -0.21042
 Alpha virt. eigenvalues --   -0.06294  -0.03169   0.00800   0.03953   0.04651
 Alpha virt. eigenvalues --    0.05477   0.06246   0.06266   0.06528   0.06883
 Alpha virt. eigenvalues --    0.08168   0.10420   0.11091   0.11379   0.11610

 Mulliken charges:
               1
     1  Mg   0.830061
     2  C   -0.011413
     3  C   -0.213473
     4  C   -0.145115
     5  C   -0.137731
     6  N   -0.630380
     7  C    0.317767
     8  C   -0.176647
     9  C   -0.142864
    10  C    0.344926
    11  C   -0.320877
    12  C   -0.177287
    13  C   -0.263606
    14  C    0.632785
    15  O   -0.509569
    16  O   -0.500173
    17  N   -0.723582
    18  C    0.345579
    19  C    0.005074
    20  C    0.042418
    21  C    0.242931
    22  C   -0.360805
    23  C   -0.083668
    24  C   -0.246075
    25  N   -0.684784
    26  C    0.356092
    27  C   -0.021495
    28  C    0.082909
    29  C    0.212951
    30  C   -0.369434
    31  C   -0.217960
    32  C   -0.319496
    33  N   -0.744898
    34  C    0.276984
    35  C   -0.009321
    36  C    0.097062
    37  C    0.343894
    38  C   -0.363496
    39  C    0.284997
    40  O   -0.522431
    41  C   -0.284054
    42  C    0.629734
    43  O   -0.477245
    44  O   -0.448464
    45  C   -0.075690
    46  C    0.021460
    47  C   -0.128212
    48  C    0.103137
    49  C   -0.343463
    50  C   -0.215524
    51  C   -0.175635
    52  C   -0.172218
    53  C   -0.072738
    54  C   -0.316928
    55  C   -0.165274
    56  C   -0.163021
    57  C   -0.163491
    58  C   -0.082385
    59  C   -0.319165
    60  C   -0.187285
    61  C   -0.168809
    62  C   -0.178532
    63  C   -0.071106
    64  C   -0.292933
    65  C   -0.288767
    66  H    0.087740
    67  H    0.101097
    68  H    0.091127
    69  H    0.135250
    70  H    0.101894
    71  H    0.109491
    72  H    0.111202
    73  H    0.135729
    74  H    0.140383
    75  H    0.127021
    76  H    0.120727
    77  H    0.139110
    78  H    0.130955
    79  H    0.113162
    80  H    0.128127
    81  H    0.085393
    82  H    0.108524
    83  H    0.098512
    84  H    0.120861
    85  H    0.093765
    86  H    0.094865
    87  H    0.102522
    88  H    0.093832
    89  H    0.101716
    90  H    0.114265
    91  H    0.116122
    92  H    0.097838
    93  H    0.157644
    94  H    0.124245
    95  H    0.161949
    96  H    0.100981
    97  H    0.145451
    98  H    0.112248
    99  H    0.132925
   100  H    0.108235
   101  H    0.085638
   102  H    0.110487
   103  H    0.108498
   104  H    0.120325
   105  H    0.090629
   106  H    0.092895
   107  H    0.120035
   108  H    0.101289
   109  H    0.093689
   110  H    0.064900
   111  H    0.075181
   112  H    0.104892
   113  H    0.099115
   114  H    0.116071
   115  H    0.083372
   116  H    0.097405
   117  H    0.101338
   118  H    0.075293
   119  H    0.086022
   120  H    0.063890
   121  H    0.083701
   122  H    0.098614
   123  H    0.102664
   124  H    0.099075
   125  H    0.063468
   126  H    0.096800
   127  H    0.104178
   128  H    0.108186
   129  H    0.076932
   130  H    0.062442
   131  H    0.093254
   132  H    0.090085
   133  H    0.079200
   134  H    0.118856
   135  H    0.082189
   136  H    0.118617
   137  H    0.102630
 Sum of Mulliken charges =   0.00000

 Dipole moment (field-independent basis, Debye):
    X=              1.8808    Y=              6.3037    Z=              0.5066  Tot=              6.5978
 Quadrupole moment (field-independent basis, Debye-Ang):
   XX=           -353.1933   YY=           -399.3116   ZZ=           -399.8542
   XY=            -36.2402   XZ=             -0.7666   YZ=              1.1886

 Normal termination of Gaussian 09 at Wed Jul  3 14:13:33 2019.
