 Gaussian 16, Revision A.03,
 Gaussian 16:  ES64L-G16RevA.03 25-Dec-2016

 ----------------------------------------------------------------------
 # td=(NStates=1) iop(3/107=0140000000,3/108=0140000000) CAM-B3LYP/6-31
 G(d,p)
 ----------------------------------------------------------------------

 --
 TD
 --
 Symbolic Z-matrix:
 Charge =  0 Multiplicity = 1

                         Standard orientation:
 ---------------------------------------------------------------------
 Center     Atomic      Atomic             Coordinates (Angstroms)
 Number     Number       Type             X           Y           Z
 ---------------------------------------------------------------------
      1         12           0       -7.155792    0.621574    0.135919
      2          6           0       -4.848204   -2.007256    0.478016
      3          6           0       -4.839676    2.845781    1.291459
      4          6           0       -9.456813    3.122803   -0.487673
      5          6           0       -9.572695   -1.751485   -0.851536
      6          7           0       -5.133892    0.428694    0.725648
      7          6           0       -4.349650   -0.770609    0.812312
      8          6           0       -2.895303   -0.362113    1.154071
      9          6           0       -3.083624    1.100369    1.644979
     10          6           0       -4.444816    1.519670    1.209234
     11          6           0       -3.040279    1.220802    3.154715
     12          6           0       -1.930054   -0.620241    0.058953
     13          6           0       -0.380146   -0.421891    0.487974
     14          6           0        0.559599   -0.594739   -0.539158
     15          8           0        0.331338   -1.029253   -1.735262
     16          8           0        1.822900   -0.443090   -0.151834
     17          7           0       -7.057303    2.641631    0.244981
     18          6           0       -6.028919    3.366075    0.713301
     19          6           0       -6.400852    4.750806    0.710320
     20          6           0       -7.709741    4.870713    0.225817
     21          6           0       -8.147800    3.448759   -0.027888
     22          6           0       -5.476051    5.883874    1.145528
     23          6           0       -8.558430    6.077840    0.049223
     24          6           0       -8.606527    7.208515    0.811812
     25          7           0       -9.145061    0.659889   -0.618292
     26          6           0       -9.954983    1.827235   -0.734666
     27          6           0      -11.285423    1.518700   -1.096435
     28          6           0      -11.259259    0.117308   -1.205102
     29          6           0      -10.062214   -0.333941   -0.838825
     30          6           0      -12.361480    2.431268   -1.319876
     31          6           0      -12.355081   -0.726492   -1.703067
     32          6           0      -12.155885   -1.330916   -3.234858
     33          7           0       -7.232524   -1.349230   -0.151253
     34          6           0       -8.328412   -2.209068   -0.515740
     35          6           0       -7.813191   -3.598131   -0.532695
     36          6           0       -6.520923   -3.564188   -0.105088
     37          6           0       -6.226868   -2.248422    0.032580
     38          6           0       -8.581673   -4.942919   -0.879705
     39          6           0       -5.251723   -4.309473    0.217981
     40          8           0       -5.114234   -5.481767    0.163535
     41          6           0       -4.119961   -3.289113    0.570452
     42          6           0       -3.535659   -3.698601    1.949759
     43          8           0       -3.722053   -3.073684    3.033771
     44          8           0       -2.757796   -4.668718    1.757786
     45          6           0       -2.102987   -5.240643    2.972181
     46          6           0        2.868489   -0.729402   -1.171765
     47          6           0        4.205749   -0.433448   -0.532928
     48          6           0        5.251552    0.312687   -0.989033
     49          6           0        5.112587    1.107364   -2.224933
     50          6           0        6.470226    0.416377   -0.212514
     51          6           0        7.657691   -0.090310   -0.966121
     52          6           0        8.970027    0.006782   -0.231876
     53          6           0       10.233305   -0.621150   -0.937691
     54          6           0       10.199547   -2.128858   -1.291304
     55          6           0       11.366562   -0.301114    0.042182
     56          6           0       12.803551   -0.495355   -0.683290
     57          6           0       13.924661   -0.090983    0.244150
     58          6           0       15.318380   -0.153952   -0.355102
     59          6           0       15.707192   -1.625758   -0.862548
     60          6           0       16.407692    0.358404    0.534939
     61          6           0       17.795610    0.470144   -0.117860
     62          6           0       18.772100    1.289611    0.737715
     63          6           0       20.215149    1.433258    0.160239
     64          6           0       20.217725    2.191210   -1.131348
     65          6           0       21.147908    2.036097    1.150560
     66          1           0       -3.949775    3.636603    1.583959
     67          1           0      -10.264287    3.739183   -0.670411
     68          1           0      -10.515022   -2.384463   -0.950471
     69          1           0       -2.751327   -0.953283    2.011131
     70          1           0       -2.473250    1.829637    1.330581
     71          1           0       -2.129606    0.714749    3.618867
     72          1           0       -2.993833    2.276546    3.434007
     73          1           0       -3.908986    0.738407    3.607980
     74          1           0       -2.166571   -1.642417   -0.094507
     75          1           0       -2.200208   -0.195201   -0.799553
     76          1           0       -0.232685    0.421490    0.985783
     77          1           0       -0.183106   -1.271882    1.248740
     78          1           0       -5.943215    6.808318    0.631157
     79          1           0       -5.384188    6.261260    2.010080
     80          1           0       -4.409389    5.855286    0.816719
     81          1           0       -9.412038    5.808939   -0.614894
     82          1           0       -9.217609    8.062652    0.619353
     83          1           0       -7.907871    7.419741    1.655387
     84          1           0      -12.300084    3.093305   -1.900216
     85          1           0      -13.372450    2.002382   -1.568357
     86          1           0      -12.491657    3.019456   -0.419396
     87          1           0      -12.297861   -1.632103   -1.034351
     88          1           0      -13.370034   -0.104290   -1.611262
     89          1           0      -13.071955   -1.886875   -3.250290
     90          1           0      -11.826071   -0.448739   -3.956517
     91          1           0      -11.188780   -2.010153   -3.348719
     92          1           0       -9.028270   -4.732234   -1.870042
     93          1           0       -7.932545   -5.918018   -0.916525
     94          1           0       -9.464899   -5.049306   -0.202316
     95          1           0       -3.425030   -3.572492   -0.118341
     96          1           0       -1.476353   -4.532787    3.477261
     97          1           0       -2.772716   -5.605512    3.771234
     98          1           0       -1.509662   -5.955096    2.499548
     99          1           0        2.776160   -1.804067   -1.373729
    100          1           0        2.655743   -0.161747   -2.114908
    101          1           0        4.246395   -1.303240    0.496241
    102          1           0        4.056541    1.260993   -2.524204
    103          1           0        5.627058    1.943706   -1.914344
    104          1           0        5.555137    0.438707   -3.003298
    105          1           0        6.671417    1.471558    0.090681
    106          1           0        6.306064   -0.043049    0.685426
    107          1           0        7.564555   -1.260490   -1.191890
    108          1           0        7.744011    0.475504   -1.819096
    109          1           0        9.356554    0.909522   -0.014953
    110          1           0        8.994536   -0.643402    0.622636
    111          1           0       10.323295    0.152184   -1.753422
    112          1           0        9.329737   -2.450242   -1.866519
    113          1           0       11.119334   -2.552506   -1.851156
    114          1           0        9.962097   -2.764234   -0.625261
    115          1           0       11.394090    0.952269    0.315024
    116          1           0       11.194625   -0.928895    0.930410
    117          1           0       13.154843   -1.444893   -1.068410
    118          1           0       12.881186    0.269024   -1.563803
    119          1           0       13.819055    1.140632    0.640687
    120          1           0       13.883969   -0.409332    1.253295
    121          1           0       15.234625    0.436343   -1.479062
    122          1           0       15.752876   -2.299823    0.125505
    123          1           0       14.968889   -1.956292   -1.623216
    124          1           0       16.749540   -1.566448   -1.298562
    125          1           0       16.111943    1.324051    0.734083
    126          1           0       16.470563   -0.295401    1.402065
    127          1           0       18.099028   -0.617343   -0.076630
    128          1           0       17.675177    0.801096   -1.018071
    129          1           0       18.449127    2.362367    1.141803
    130          1           0       18.796924    0.728338    1.694601
    131          1           0       20.409289    0.335285   -0.065091
    132          1           0       19.727386    3.147193   -1.055623
    133          1           0       21.187018    2.699825   -1.476027
    134          1           0       19.530952    1.522988   -1.977562
    135          1           0       21.293088    1.296183    1.999244
    136          1           0       22.191714    2.129744    0.873960
    137          1           0       20.556481    2.905825    1.512026
 ---------------------------------------------------------------------

 SCF Done:  E(RCAM-B3LYP) =  -2933.43536625     A.U. after   16 cycles

 Excitation energies and oscillator strengths:

 Excited State   1:      Singlet-A      2.0831 eV  595.19 nm  f=0.1962  <S**2>=0.000
     240 -> 242       -0.13630
     240 -> 243        0.23032
     241 -> 242        0.63955
     241 -> 243        0.11781
 This state for optimization and/or second-order correction.
 Total Energy, E(TD-HF/TD-DFT) =  -2933.35881360
 Copying the excited state density for this state as the 1-particle RhoCI density.

 The electronic state is 1-A.
 Alpha  occ. eigenvalues --  -46.79029 -19.24620 -19.21653 -19.16908 -19.15917
 Alpha  occ. eigenvalues --  -19.14598 -14.36564 -14.35365 -14.35117 -14.33649
 Alpha  occ. eigenvalues --  -10.34900 -10.33631 -10.31047 -10.28018 -10.27744
 Alpha  occ. eigenvalues --  -10.26165 -10.25571 -10.25539 -10.25499 -10.24942
 Alpha  occ. eigenvalues --  -10.24913 -10.24584 -10.24107 -10.23452 -10.23412
 Alpha  occ. eigenvalues --  -10.23412 -10.23367 -10.23099 -10.23086 -10.23038
 Alpha  occ. eigenvalues --  -10.23006 -10.23002 -10.22924 -10.22885 -10.22810
 Alpha  occ. eigenvalues --  -10.22615 -10.22470 -10.22354 -10.22315 -10.22227
 Alpha  occ. eigenvalues --  -10.22128 -10.22037 -10.21983 -10.21962 -10.21731
 Alpha  occ. eigenvalues --  -10.21593 -10.21575 -10.21543 -10.21505 -10.21446
 Alpha  occ. eigenvalues --  -10.21423 -10.21154 -10.20907 -10.20861 -10.20738
 Alpha  occ. eigenvalues --  -10.20721 -10.20572 -10.20318 -10.20211 -10.20105
 Alpha  occ. eigenvalues --  -10.19902 -10.19736 -10.19555 -10.19528 -10.19403
 Alpha  occ. eigenvalues --   -3.07613  -1.82560  -1.82065  -1.82037  -1.16222
 Alpha  occ. eigenvalues --   -1.11762  -1.08878  -1.02136  -0.99337  -0.98303
 Alpha  occ. eigenvalues --   -0.97857  -0.96540  -0.95955  -0.87722  -0.87660
 Alpha  occ. eigenvalues --   -0.85660  -0.85195  -0.84746  -0.83471  -0.83450
 Alpha  occ. eigenvalues --   -0.83210  -0.82565  -0.82463  -0.81714  -0.81160
 Alpha  occ. eigenvalues --   -0.80415  -0.80154  -0.79273  -0.78662  -0.77744
 Alpha  occ. eigenvalues --   -0.77284  -0.76731  -0.75347  -0.74984  -0.73799
 Alpha  occ. eigenvalues --   -0.73597  -0.72957  -0.72780  -0.72418  -0.70943
 Alpha  occ. eigenvalues --   -0.70655  -0.70569  -0.69817  -0.68496  -0.67836
 Alpha  occ. eigenvalues --   -0.67216  -0.66844  -0.65198  -0.64399  -0.64026
 Alpha  occ. eigenvalues --   -0.62872  -0.62771  -0.61513  -0.60682  -0.60587
 Alpha  occ. eigenvalues --   -0.59878  -0.59144  -0.58590  -0.58232  -0.58208
 Alpha  occ. eigenvalues --   -0.57139  -0.56525  -0.55662  -0.55419  -0.54556
 Alpha  occ. eigenvalues --   -0.54527  -0.54059  -0.53800  -0.53689  -0.53088
 Alpha  occ. eigenvalues --   -0.52913  -0.52429  -0.52008  -0.51379  -0.51006
 Alpha  occ. eigenvalues --   -0.50915  -0.50535  -0.50340  -0.49875  -0.49674
 Alpha  occ. eigenvalues --   -0.49536  -0.48658  -0.48418  -0.47981  -0.47865
 Alpha  occ. eigenvalues --   -0.47725  -0.47637  -0.47294  -0.47163  -0.46867
 Alpha  occ. eigenvalues --   -0.46641  -0.46596  -0.46220  -0.45745  -0.45499
 Alpha  occ. eigenvalues --   -0.45453  -0.45134  -0.45049  -0.45004  -0.44704
 Alpha  occ. eigenvalues --   -0.44625  -0.44352  -0.44199  -0.43915  -0.43698
 Alpha  occ. eigenvalues --   -0.43099  -0.42963  -0.42733  -0.42580  -0.42335
 Alpha  occ. eigenvalues --   -0.42272  -0.42113  -0.42093  -0.42006  -0.41777
 Alpha  occ. eigenvalues --   -0.41618  -0.41411  -0.41323  -0.41129  -0.40925
 Alpha  occ. eigenvalues --   -0.40680  -0.40595  -0.40303  -0.40218  -0.39926
 Alpha  occ. eigenvalues --   -0.39680  -0.39551  -0.39248  -0.39183  -0.38757
 Alpha  occ. eigenvalues --   -0.38589  -0.38462  -0.38438  -0.37898  -0.37769
 Alpha  occ. eigenvalues --   -0.37721  -0.37643  -0.37541  -0.37173  -0.36837
 Alpha  occ. eigenvalues --   -0.36800  -0.36399  -0.35914  -0.35748  -0.35726
 Alpha  occ. eigenvalues --   -0.35641  -0.35492  -0.35310  -0.35111  -0.34639
 Alpha  occ. eigenvalues --   -0.34403  -0.33935  -0.33722  -0.33665  -0.33532
 Alpha  occ. eigenvalues --   -0.33295  -0.32970  -0.32857  -0.32415  -0.31932
 Alpha  occ. eigenvalues --   -0.31812  -0.31382  -0.30905  -0.30514  -0.29915
 Alpha  occ. eigenvalues --   -0.29767  -0.29361  -0.28502  -0.28242  -0.27330
 Alpha  occ. eigenvalues --   -0.27146  -0.26569  -0.24717  -0.23987  -0.21750
 Alpha  occ. eigenvalues --   -0.19720
 Alpha virt. eigenvalues --   -0.06512  -0.04278   0.00728   0.02325   0.03245
 Alpha virt. eigenvalues --    0.03672   0.04092   0.05096   0.05388   0.06227
 Alpha virt. eigenvalues --    0.07112   0.08418   0.09165   0.09874   0.09918

 Mulliken charges:
               1
     1  Mg   0.805238
     2  C    0.071965
     3  C   -0.193138
     4  C   -0.126098
     5  C   -0.174366
     6  N   -0.653266
     7  C    0.242619
     8  C   -0.145149
     9  C   -0.146022
    10  C    0.375729
    11  C   -0.312373
    12  C   -0.146215
    13  C   -0.263000
    14  C    0.608129
    15  O   -0.532997
    16  O   -0.466714
    17  N   -0.725737
    18  C    0.338556
    19  C   -0.005446
    20  C    0.014623
    21  C    0.298227
    22  C   -0.384561
    23  C   -0.076091
    24  C   -0.243055
    25  N   -0.676121
    26  C    0.230740
    27  C    0.057327
    28  C    0.048930
    29  C    0.271656
    30  C   -0.372929
    31  C   -0.266810
    32  C   -0.302172
    33  N   -0.721981
    34  C    0.288865
    35  C   -0.056526
    36  C    0.088462
    37  C    0.300738
    38  C   -0.372867
    39  C    0.348147
    40  O   -0.428763
    41  C   -0.315246
    42  C    0.610013
    43  O   -0.521027
    44  O   -0.390830
    45  C   -0.106291
    46  C    0.014599
    47  C   -0.115062
    48  C    0.108899
    49  C   -0.348685
    50  C   -0.220010
    51  C   -0.163227
    52  C   -0.168741
    53  C   -0.064436
    54  C   -0.322167
    55  C   -0.162875
    56  C   -0.174974
    57  C   -0.144866
    58  C   -0.046181
    59  C   -0.311882
    60  C   -0.168397
    61  C   -0.177383
    62  C   -0.167794
    63  C   -0.041368
    64  C   -0.289795
    65  C   -0.305865
    66  H    0.074802
    67  H    0.066677
    68  H    0.084064
    69  H    0.124982
    70  H    0.095611
    71  H    0.092530
    72  H    0.105874
    73  H    0.129210
    74  H    0.111878
    75  H    0.129545
    76  H    0.143629
    77  H    0.140122
    78  H    0.099055
    79  H    0.135199
    80  H    0.103217
    81  H    0.086554
    82  H    0.109359
    83  H    0.102459
    84  H    0.131273
    85  H    0.104436
    86  H    0.117846
    87  H    0.098315
    88  H    0.084753
    89  H    0.123701
    90  H    0.107736
    91  H    0.096900
    92  H    0.124941
    93  H    0.139635
    94  H    0.126864
    95  H    0.167947
    96  H    0.144004
    97  H    0.151950
    98  H    0.140216
    99  H    0.133696
   100  H    0.121968
   101  H    0.039569
   102  H    0.117319
   103  H    0.120541
   104  H    0.132576
   105  H    0.094634
   106  H    0.111024
   107  H    0.078525
   108  H    0.101909
   109  H    0.092951
   110  H    0.084566
   111  H    0.078871
   112  H    0.095285
   113  H    0.101117
   114  H    0.117553
   115  H    0.063212
   116  H    0.097516
   117  H    0.103743
   118  H    0.089061
   119  H    0.024069
   120  H    0.099869
   121  H    0.036650
   122  H    0.077814
   123  H    0.101617
   124  H    0.104222
   125  H    0.101194
   126  H    0.090850
   127  H    0.093338
   128  H    0.104431
   129  H    0.062741
   130  H    0.086407
   131  H    0.078141
   132  H    0.101385
   133  H    0.093212
   134  H    0.069521
   135  H    0.091399
   136  H    0.107594
   137  H    0.100662
 Sum of Mulliken charges =  -0.00000

 Dipole moment (field-independent basis, Debye):
    X=              2.5472    Y=              1.3650    Z=              1.4785  Tot=              3.2462
 Quadrupole moment (field-independent basis, Debye-Ang):
   XX=           -352.9289   YY=           -379.5898   ZZ=           -401.0248
   XY=            -15.7789   XZ=             12.6489   YZ=             -5.6761

 Normal termination of Gaussian 16 at Sat Sep  7 01:34:11 2019.
