 Gaussian 16, Revision A.03,
 Gaussian 16:  ES64L-G16RevA.03 25-Dec-2016

 ----------------------------------------------------------------------
 # td=(NStates=1) iop(3/107=0140000000,3/108=0140000000) CAM-B3LYP/6-31
 G(d,p)
 ----------------------------------------------------------------------

 --
 TD
 --
 Symbolic Z-matrix:
 Charge =  0 Multiplicity = 1

                         Standard orientation:
 ---------------------------------------------------------------------
 Center     Atomic      Atomic             Coordinates (Angstroms)
 Number     Number       Type             X           Y           Z
 ---------------------------------------------------------------------
      1         12           0       -7.181963    0.590696    0.139181
      2          6           0       -4.906625   -1.873269    0.557338
      3          6           0       -4.854415    2.870426    1.255089
      4          6           0       -9.325762    3.183051   -0.384473
      5          6           0       -9.537736   -1.687427   -0.956282
      6          7           0       -5.182765    0.438467    0.779290
      7          6           0       -4.364298   -0.675243    0.845961
      8          6           0       -2.912894   -0.408252    1.159193
      9          6           0       -2.995096    1.085137    1.639527
     10          6           0       -4.451911    1.514909    1.212614
     11          6           0       -2.760307    1.410210    3.193481
     12          6           0       -1.778591   -0.662155    0.105550
     13          6           0       -0.408737   -0.684510    0.586433
     14          6           0        0.531999   -0.827858   -0.542516
     15          8           0        0.304599   -1.039621   -1.762973
     16          8           0        1.766673   -0.394215   -0.169637
     17          7           0       -7.126098    2.671963    0.410399
     18          6           0       -6.143850    3.464519    0.861974
     19          6           0       -6.436972    4.851860    0.836541
     20          6           0       -7.705758    4.941759    0.339789
     21          6           0       -8.117709    3.459590    0.105605
     22          6           0       -5.469809    5.850632    1.214212
     23          6           0       -8.491976    6.058476    0.144378
     24          6           0       -8.470555    7.274357    0.730167
     25          7           0       -9.135141    0.685057   -0.431750
     26          6           0       -9.871819    1.924766   -0.695855
     27          6           0      -11.153599    1.509577   -1.202335
     28          6           0      -11.163933    0.109946   -1.284681
     29          6           0       -9.882126   -0.308312   -0.866323
     30          6           0      -12.172245    2.394058   -1.756350
     31          6           0      -12.217410   -0.756632   -1.825124
     32          6           0      -12.138248   -1.304601   -3.263376
     33          7           0       -7.282026   -1.424675   -0.157947
     34          6           0       -8.239487   -2.273604   -0.577199
     35          6           0       -7.802093   -3.631770   -0.620978
     36          6           0       -6.489798   -3.574140   -0.166008
     37          6           0       -6.182386   -2.204500    0.091680
     38          6           0       -8.534668   -4.910197   -0.918488
     39          6           0       -5.244253   -4.391735    0.198927
     40          8           0       -5.143830   -5.546436    0.255473
     41          6           0       -4.120003   -3.260798    0.589815
     42          6           0       -3.535250   -3.705066    1.985422
     43          8           0       -3.754611   -2.977879    3.041287
     44          8           0       -2.915069   -4.787501    1.982597
     45          6           0       -2.299605   -5.116792    3.210597
     46          6           0        2.753561   -0.711211   -1.280604
     47          6           0        4.082591   -0.489981   -0.567447
     48          6           0        5.064102    0.338922   -1.015849
     49          6           0        5.012673    1.044001   -2.234778
     50          6           0        6.390313    0.462415   -0.267877
     51          6           0        7.552551   -0.242369   -1.058426
     52          6           0        8.853193   -0.198854   -0.187526
     53          6           0       10.161306   -0.750897   -0.905459
     54          6           0       10.046324   -2.216760   -1.312521
     55          6           0       11.345491   -0.274721    0.002157
     56          6           0       12.702237   -0.596991   -0.573123
     57          6           0       13.899098   -0.065252    0.281515
     58          6           0       15.175081   -0.064149   -0.522233
     59          6           0       15.674920   -1.585186   -0.800836
     60          6           0       16.364753    0.448107    0.383208
     61          6           0       17.810673    0.700030   -0.260271
     62          6           0       18.839693    1.165670    0.566530
     63          6           0       20.267992    1.287202    0.127485
     64          6           0       20.397150    2.365482   -1.055418
     65          6           0       21.145656    1.834844    1.330147
     66          1           0       -4.240559    3.613866    1.644510
     67          1           0      -10.151763    3.998569   -0.802945
     68          1           0      -10.030410   -2.406421   -1.520620
     69          1           0       -2.637011   -1.092501    2.013631
     70          1           0       -2.294659    1.703264    1.041460
     71          1           0       -1.641912    1.096497    3.614549
     72          1           0       -2.971511    2.426387    3.498587
     73          1           0       -3.374354    0.820257    3.697151
     74          1           0       -1.941682   -1.593472   -0.296823
     75          1           0       -1.815910    0.052400   -0.693384
     76          1           0       -0.000994    0.324175    0.887464
     77          1           0       -0.199251   -1.147099    1.524277
     78          1           0       -5.662757    6.864282    0.734955
     79          1           0       -5.635540    5.995875    2.331222
     80          1           0       -4.339845    5.660105    0.996861
     81          1           0       -9.265610    6.047530   -0.482407
     82          1           0       -9.247234    7.965015    0.481939
     83          1           0       -7.618064    7.384699    1.284437
     84          1           0      -11.747346    3.043058   -2.742466
     85          1           0      -13.001876    1.794928   -2.141597
     86          1           0      -12.518427    3.048313   -1.010474
     87          1           0      -12.396099   -1.472714   -0.913145
     88          1           0      -13.246361   -0.268136   -1.848662
     89          1           0      -12.959107   -1.924547   -3.657286
     90          1           0      -11.965592   -0.587095   -3.918499
     91          1           0      -11.327581   -2.025280   -3.279901
     92          1           0       -9.110794   -4.658401   -1.878717
     93          1           0       -7.793657   -5.653776   -1.132230
     94          1           0       -9.317355   -5.319005   -0.081190
     95          1           0       -3.293553   -3.339721   -0.077649
     96          1           0       -1.741680   -4.138066    3.705132
     97          1           0       -3.183569   -5.508740    3.908338
     98          1           0       -1.508148   -5.865872    2.773501
     99          1           0        2.508194   -1.675933   -1.617231
    100          1           0        2.539798   -0.010972   -2.013766
    101          1           0        4.163180   -1.040328    0.330186
    102          1           0        3.970708    1.204913   -2.545361
    103          1           0        5.253344    2.061847   -2.177695
    104          1           0        5.724601    0.649193   -3.092674
    105          1           0        6.847144    1.520190    0.163712
    106          1           0        6.346120   -0.055763    0.750105
    107          1           0        7.333010   -1.265901   -1.397978
    108          1           0        7.611349    0.305642   -2.032793
    109          1           0        9.078159    0.971022    0.060091
    110          1           0        8.651162   -0.709165    0.806292
    111          1           0       10.296420   -0.182989   -1.795378
    112          1           0        9.342482   -2.497411   -1.945170
    113          1           0       10.850902   -2.545620   -1.762403
    114          1           0        9.846897   -2.741152   -0.169351
    115          1           0       11.286264    0.748078    0.160182
    116          1           0       11.027843   -0.720434    1.046319
    117          1           0       12.772174   -1.609009   -0.775413
    118          1           0       12.779481   -0.051120   -1.595329
    119          1           0       13.634666    0.929434    0.341061
    120          1           0       14.145498   -0.577506    1.310207
    121          1           0       15.276456    0.425486   -1.370147
    122          1           0       15.996340   -2.039042    0.116057
    123          1           0       14.718050   -2.146615   -1.297501
    124          1           0       16.486754   -1.456599   -1.634092
    125          1           0       16.017584    1.418848    0.800291
    126          1           0       16.389708   -0.040501    1.395485
    127          1           0       18.056344   -0.296532   -0.619930
    128          1           0       17.567310    1.303773   -1.183414
    129          1           0       18.414264    2.184093    0.734520
    130          1           0       19.144079    0.685985    1.558952
    131          1           0       20.593856    0.255324   -0.005951
    132          1           0       19.983972    3.179476   -0.850932
    133          1           0       21.434639    2.554481   -1.389719
    134          1           0       19.989724    2.101727   -2.159165
    135          1           0       21.022445    1.266206    2.248730
    136          1           0       22.173913    1.948920    1.037679
    137          1           0       20.760461    2.810459    1.549518
 ---------------------------------------------------------------------

 SCF Done:  E(RCAM-B3LYP) =  -2933.49912410     A.U. after   16 cycles

 Excitation energies and oscillator strengths:

 Excited State   1:      Singlet-A      2.0462 eV  605.93 nm  f=0.2424  <S**2>=0.000
     240 -> 243       -0.25139
     241 -> 242        0.65398
 This state for optimization and/or second-order correction.
 Total Energy, E(TD-HF/TD-DFT) =  -2933.42392838
 Copying the excited state density for this state as the 1-particle RhoCI density.

 The electronic state is 1-A.
 Alpha  occ. eigenvalues --  -46.80024 -19.24748 -19.21244 -19.17248 -19.16348
 Alpha  occ. eigenvalues --  -19.14936 -14.37461 -14.35375 -14.34429 -14.34246
 Alpha  occ. eigenvalues --  -10.34617 -10.34509 -10.31127 -10.30390 -10.26543
 Alpha  occ. eigenvalues --  -10.26331 -10.25472 -10.25102 -10.24668 -10.24422
 Alpha  occ. eigenvalues --  -10.24388 -10.24231 -10.23824 -10.23694 -10.23653
 Alpha  occ. eigenvalues --  -10.23372 -10.23174 -10.23171 -10.23130 -10.23072
 Alpha  occ. eigenvalues --  -10.23054 -10.22979 -10.22744 -10.22726 -10.22615
 Alpha  occ. eigenvalues --  -10.22573 -10.22288 -10.22268 -10.22152 -10.21903
 Alpha  occ. eigenvalues --  -10.21832 -10.21756 -10.21617 -10.21611 -10.21492
 Alpha  occ. eigenvalues --  -10.21338 -10.21330 -10.21299 -10.21141 -10.21133
 Alpha  occ. eigenvalues --  -10.21000 -10.20915 -10.20785 -10.20766 -10.20731
 Alpha  occ. eigenvalues --  -10.20696 -10.20687 -10.20582 -10.20576 -10.20487
 Alpha  occ. eigenvalues --  -10.19995 -10.19964 -10.19941 -10.19909 -10.19811
 Alpha  occ. eigenvalues --   -3.08538  -1.83487  -1.83002  -1.82944  -1.17942
 Alpha  occ. eigenvalues --   -1.11423  -1.09949  -1.01545  -1.00559  -1.00074
 Alpha  occ. eigenvalues --   -0.98691  -0.97500  -0.96629  -0.86504  -0.85954
 Alpha  occ. eigenvalues --   -0.85658  -0.85590  -0.85495  -0.84670  -0.83666
 Alpha  occ. eigenvalues --   -0.83057  -0.82938  -0.81844  -0.81311  -0.80847
 Alpha  occ. eigenvalues --   -0.79902  -0.79380  -0.79180  -0.78390  -0.78083
 Alpha  occ. eigenvalues --   -0.76817  -0.76350  -0.75789  -0.75249  -0.73199
 Alpha  occ. eigenvalues --   -0.73026  -0.72738  -0.71808  -0.71510  -0.71218
 Alpha  occ. eigenvalues --   -0.70657  -0.70307  -0.68963  -0.68711  -0.67818
 Alpha  occ. eigenvalues --   -0.67099  -0.66591  -0.65239  -0.64789  -0.64144
 Alpha  occ. eigenvalues --   -0.62626  -0.62383  -0.60864  -0.60464  -0.60262
 Alpha  occ. eigenvalues --   -0.59627  -0.59381  -0.58968  -0.58853  -0.58317
 Alpha  occ. eigenvalues --   -0.58269  -0.57027  -0.56724  -0.55997  -0.54927
 Alpha  occ. eigenvalues --   -0.54647  -0.54447  -0.53624  -0.53295  -0.52933
 Alpha  occ. eigenvalues --   -0.52587  -0.52105  -0.51573  -0.51173  -0.51091
 Alpha  occ. eigenvalues --   -0.50710  -0.50416  -0.50277  -0.49778  -0.49218
 Alpha  occ. eigenvalues --   -0.49051  -0.48530  -0.48374  -0.48052  -0.47969
 Alpha  occ. eigenvalues --   -0.47564  -0.47292  -0.47229  -0.46937  -0.46624
 Alpha  occ. eigenvalues --   -0.46445  -0.46253  -0.46019  -0.45936  -0.45769
 Alpha  occ. eigenvalues --   -0.45431  -0.45371  -0.45352  -0.45073  -0.44980
 Alpha  occ. eigenvalues --   -0.44619  -0.44039  -0.43724  -0.43693  -0.43511
 Alpha  occ. eigenvalues --   -0.43135  -0.42823  -0.42696  -0.42596  -0.42583
 Alpha  occ. eigenvalues --   -0.42363  -0.42058  -0.41937  -0.41795  -0.41679
 Alpha  occ. eigenvalues --   -0.41408  -0.41224  -0.41141  -0.41085  -0.40990
 Alpha  occ. eigenvalues --   -0.40726  -0.40279  -0.40152  -0.40047  -0.40012
 Alpha  occ. eigenvalues --   -0.39830  -0.39702  -0.39434  -0.39253  -0.38941
 Alpha  occ. eigenvalues --   -0.38848  -0.38715  -0.38317  -0.38187  -0.37866
 Alpha  occ. eigenvalues --   -0.37724  -0.37453  -0.37435  -0.37415  -0.37268
 Alpha  occ. eigenvalues --   -0.36999  -0.36724  -0.36645  -0.36408  -0.36070
 Alpha  occ. eigenvalues --   -0.36024  -0.35698  -0.35380  -0.35292  -0.34990
 Alpha  occ. eigenvalues --   -0.34581  -0.34115  -0.34065  -0.33804  -0.33418
 Alpha  occ. eigenvalues --   -0.33213  -0.32903  -0.32643  -0.32410  -0.32248
 Alpha  occ. eigenvalues --   -0.32090  -0.31869  -0.30539  -0.30266  -0.30110
 Alpha  occ. eigenvalues --   -0.29971  -0.29623  -0.28569  -0.28160  -0.26779
 Alpha  occ. eigenvalues --   -0.26635  -0.26465  -0.25095  -0.24700  -0.21005
 Alpha  occ. eigenvalues --   -0.19740
 Alpha virt. eigenvalues --   -0.06707  -0.03728   0.00638   0.02448   0.03029
 Alpha virt. eigenvalues --    0.03249   0.04094   0.05116   0.05654   0.05853
 Alpha virt. eigenvalues --    0.06717   0.09374   0.09564   0.10119   0.10202

 Mulliken charges:
               1
     1  Mg   0.812289
     2  C    0.067751
     3  C   -0.198802
     4  C   -0.187231
     5  C   -0.153362
     6  N   -0.646534
     7  C    0.319135
     8  C   -0.149395
     9  C   -0.149156
    10  C    0.341387
    11  C   -0.306701
    12  C   -0.161791
    13  C   -0.287551
    14  C    0.617624
    15  O   -0.507094
    16  O   -0.491494
    17  N   -0.692148
    18  C    0.275741
    19  C    0.082985
    20  C    0.030458
    21  C    0.361443
    22  C   -0.405075
    23  C   -0.107190
    24  C   -0.216076
    25  N   -0.714217
    26  C    0.256242
    27  C    0.019305
    28  C    0.052685
    29  C    0.357085
    30  C   -0.371295
    31  C   -0.268573
    32  C   -0.311925
    33  N   -0.709973
    34  C    0.257319
    35  C   -0.011507
    36  C    0.007643
    37  C    0.266217
    38  C   -0.360700
    39  C    0.374402
    40  O   -0.405564
    41  C   -0.337708
    42  C    0.574704
    43  O   -0.530650
    44  O   -0.344097
    45  C   -0.091801
    46  C    0.009285
    47  C   -0.118127
    48  C    0.145670
    49  C   -0.378169
    50  C   -0.226977
    51  C   -0.175817
    52  C   -0.168081
    53  C   -0.066869
    54  C   -0.281119
    55  C   -0.162733
    56  C   -0.193033
    57  C   -0.148976
    58  C   -0.053185
    59  C   -0.299146
    60  C   -0.194744
    61  C   -0.178225
    62  C   -0.126278
    63  C   -0.068526
    64  C   -0.310246
    65  C   -0.322926
    66  H    0.059051
    67  H    0.087342
    68  H    0.081407
    69  H    0.125655
    70  H    0.104723
    71  H    0.071695
    72  H    0.115334
    73  H    0.144896
    74  H    0.123140
    75  H    0.120649
    76  H    0.147326
    77  H    0.140582
    78  H    0.118210
    79  H    0.128210
    80  H    0.116661
    81  H    0.072044
    82  H    0.102816
    83  H    0.078070
    84  H    0.089488
    85  H    0.111875
    86  H    0.126776
    87  H    0.100141
    88  H    0.093954
    89  H    0.105797
    90  H    0.127399
    91  H    0.105239
    92  H    0.104451
    93  H    0.145387
    94  H    0.115247
    95  H    0.149697
    96  H    0.128171
    97  H    0.143078
    98  H    0.122328
    99  H    0.139163
   100  H    0.133289
   101  H    0.090987
   102  H    0.105220
   103  H    0.127023
   104  H    0.112319
   105  H    0.079998
   106  H    0.087485
   107  H    0.102729
   108  H    0.090430
   109  H    0.064641
   110  H    0.089106
   111  H    0.083762
   112  H    0.114245
   113  H    0.110857
   114  H    0.057887
   115  H    0.098689
   116  H    0.068175
   117  H    0.110120
   118  H    0.077246
   119  H    0.100919
   120  H    0.085017
   121  H    0.088502
   122  H    0.113021
   123  H    0.067369
   124  H    0.093207
   125  H    0.066044
   126  H    0.078399
   127  H    0.085799
   128  H    0.090239
   129  H    0.074255
   130  H    0.075874
   131  H    0.089896
   132  H    0.120355
   133  H    0.095761
   134  H    0.071500
   135  H    0.100087
   136  H    0.106836
   137  H    0.108129
 Sum of Mulliken charges =  -0.00000

 Dipole moment (field-independent basis, Debye):
    X=              2.7791    Y=              3.0669    Z=             -0.5486  Tot=              4.1750
 Quadrupole moment (field-independent basis, Debye-Ang):
   XX=           -361.6518   YY=           -387.2469   ZZ=           -394.2610
   XY=            -10.4493   XZ=             13.6667   YZ=             -4.1609

 Normal termination of Gaussian 16 at Fri Sep 13 13:24:04 2019.
