 Gaussian 16, Revision A.03,
 Gaussian 16:  ES64L-G16RevA.03 25-Dec-2016

 ----------------------------------------------------------------------
 # td=(NStates=1) iop(3/107=0140000000,3/108=0140000000) CAM-B3LYP/6-31
 G(d,p)
 ----------------------------------------------------------------------

 --
 TD
 --
 Symbolic Z-matrix:
 Charge =  0 Multiplicity = 1

                         Standard orientation:
 ---------------------------------------------------------------------
 Center     Atomic      Atomic             Coordinates (Angstroms)
 Number     Number       Type             X           Y           Z
 ---------------------------------------------------------------------
      1         12           0       -7.303048    0.663119    0.140278
      2          6           0       -4.910628   -1.973378    0.453064
      3          6           0       -4.823320    2.818238    1.199362
      4          6           0       -9.459503    3.102990   -0.405534
      5          6           0       -9.532795   -1.741390   -0.774130
      6          7           0       -5.128522    0.429715    0.724913
      7          6           0       -4.406060   -0.674427    0.725928
      8          6           0       -2.928310   -0.417077    1.245117
      9          6           0       -2.969307    1.086571    1.641985
     10          6           0       -4.411405    1.495331    1.152121
     11          6           0       -2.739338    1.331480    3.204230
     12          6           0       -1.945828   -0.653836    0.061977
     13          6           0       -0.493348   -0.422211    0.489465
     14          6           0        0.527282   -0.602952   -0.683044
     15          8           0        0.259158   -1.036463   -1.774124
     16          8           0        1.813473   -0.224214   -0.234438
     17          7           0       -7.145901    2.614583    0.274267
     18          6           0       -6.095187    3.358319    0.717260
     19          6           0       -6.442758    4.812193    0.748500
     20          6           0       -7.742492    4.910480    0.313363
     21          6           0       -8.096835    3.523560    0.081401
     22          6           0       -5.415496    5.880349    1.248841
     23          6           0       -8.509562    6.053389    0.054010
     24          6           0       -8.473564    7.158268    0.773182
     25          7           0       -9.056263    0.693178   -0.462708
     26          6           0       -9.827932    1.774582   -0.605450
     27          6           0      -11.207114    1.447212   -1.197840
     28          6           0      -11.197460    0.130861   -1.322792
     29          6           0       -9.848771   -0.398733   -0.919206
     30          6           0      -12.384797    2.396578   -1.256988
     31          6           0      -12.266406   -0.791154   -1.801702
     32          6           0      -12.094770   -1.116086   -3.237085
     33          7           0       -7.289637   -1.417294   -0.079867
     34          6           0       -8.328419   -2.212751   -0.338650
     35          6           0       -7.918842   -3.659632   -0.374826
     36          6           0       -6.533340   -3.605824   -0.022971
     37          6           0       -6.179094   -2.183890    0.171444
     38          6           0       -8.739479   -4.784528   -0.612352
     39          6           0       -5.367397   -4.408963    0.105793
     40          8           0       -5.096727   -5.650542    0.064122
     41          6           0       -4.161685   -3.368238    0.561908
     42          6           0       -3.525346   -3.696141    1.806258
     43          8           0       -3.715991   -3.132579    2.883652
     44          8           0       -2.739137   -4.794842    1.746282
     45          6           0       -2.232976   -5.319108    2.936600
     46          6           0        2.878515   -0.696580   -1.238566
     47          6           0        4.088676   -0.397893   -0.581192
     48          6           0        5.103467    0.378034   -1.085287
     49          6           0        5.071400    1.330995   -2.151193
     50          6           0        6.387302    0.446588   -0.244500
     51          6           0        7.647757   -0.044704   -0.986330
     52          6           0        8.919430   -0.138115   -0.203157
     53          6           0       10.157780   -0.602749   -0.834479
     54          6           0       10.071997   -1.898997   -1.412264
     55          6           0       11.428872   -0.254688   -0.006168
     56          6           0       12.718228   -0.434133   -0.816285
     57          6           0       13.951203   -0.194065    0.101860
     58          6           0       15.296921   -0.214152   -0.492671
     59          6           0       15.712666   -1.726082   -0.892443
     60          6           0       16.367921    0.396654    0.430487
     61          6           0       17.755982    0.578180   -0.190194
     62          6           0       18.750468    1.311261    0.741919
     63          6           0       20.288087    1.368362    0.322968
     64          6           0       20.463166    2.050393   -0.967297
     65          6           0       21.174567    1.828153    1.409928
     66          1           0       -3.972931    3.581522    1.215652
     67          1           0      -10.175428    3.817303   -0.682570
     68          1           0      -10.254724   -2.645932   -1.135110
     69          1           0       -2.649485   -1.254690    1.791522
     70          1           0       -2.177006    1.636195    1.213404
     71          1           0       -1.783445    0.848356    3.601837
     72          1           0       -3.157246    2.344466    3.547542
     73          1           0       -3.323610    0.615849    3.737321
     74          1           0       -2.156010   -1.748183   -0.164932
     75          1           0       -2.222570    0.070867   -0.820494
     76          1           0       -0.357035    0.610699    0.984371
     77          1           0        0.024727   -1.181047    1.158175
     78          1           0       -5.860948    6.974014    0.866577
     79          1           0       -5.406082    6.046770    2.415521
     80          1           0       -4.390331    5.743207    0.797507
     81          1           0       -9.331504    6.015066   -0.870408
     82          1           0       -9.123385    7.997265    0.486206
     83          1           0       -7.633378    7.398768    1.360388
     84          1           0      -12.249821    3.363446   -1.809035
     85          1           0      -13.370260    1.972970   -1.591843
     86          1           0      -12.624653    2.815911   -0.309925
     87          1           0      -12.132679   -1.614991   -1.299195
     88          1           0      -13.265398   -0.511915   -1.684682
     89          1           0      -12.820858   -1.840767   -3.443643
     90          1           0      -12.081067   -0.445167   -3.912258
     91          1           0      -11.063478   -1.586003   -3.598828
     92          1           0       -9.010571   -4.750867   -1.718246
     93          1           0       -8.263888   -5.743309   -0.355423
     94          1           0       -9.645355   -4.709594   -0.054711
     95          1           0       -3.260209   -3.670049   -0.096712
     96          1           0       -1.230109   -4.610170    3.363304
     97          1           0       -2.958292   -5.505887    3.659232
     98          1           0       -1.594523   -6.164228    2.634302
     99          1           0        2.599520   -1.820732   -1.492065
    100          1           0        2.720912   -0.196846   -2.214363
    101          1           0        4.357037   -0.975065    0.502129
    102          1           0        4.070149    1.477446   -2.590670
    103          1           0        5.534204    2.311339   -1.889601
    104          1           0        5.739688    1.134510   -2.945453
    105          1           0        6.644138    1.443059   -0.155842
    106          1           0        6.218700   -0.018138    0.730802
    107          1           0        7.525013   -1.057569   -1.421857
    108          1           0        7.780574    0.504003   -1.931001
    109          1           0        9.100403    0.849113    0.265809
    110          1           0        8.842870   -0.649929    0.611236
    111          1           0       10.205030   -0.004553   -1.703755
    112          1           0        8.986585   -2.257152   -1.704220
    113          1           0       10.890944   -2.368261   -2.124402
    114          1           0       10.210313   -2.561983   -0.562335
    115          1           0       11.234940    0.807951    0.319192
    116          1           0       11.294314   -0.659347    0.796216
    117          1           0       12.932369   -1.493080   -1.023188
    118          1           0       12.517932    0.226867   -1.537911
    119          1           0       13.827031    1.015625    0.479341
    120          1           0       13.968963   -0.757198    1.080555
    121          1           0       15.326299    0.427126   -1.406421
    122          1           0       15.828140   -2.386186   -0.023792
    123          1           0       14.816029   -2.124773   -1.469741
    124          1           0       16.697413   -1.919495   -1.432041
    125          1           0       16.144342    1.355180    0.869729
    126          1           0       16.616519   -0.290323    1.313840
    127          1           0       18.375942   -0.407433   -0.288560
    128          1           0       17.607567    0.932524   -1.049568
    129          1           0       18.675655    2.328845    1.070307
    130          1           0       18.758272    0.759406    1.748195
    131          1           0       20.367819    0.381758    0.146293
    132          1           0       20.061072    2.977730   -0.891869
    133          1           0       21.377133    2.000358   -1.398429
    134          1           0       19.755032    1.815043   -1.870172
    135          1           0       21.072358    1.100873    2.246784
    136          1           0       22.322593    1.823226    1.109689
    137          1           0       21.017644    2.897357    1.922544
 ---------------------------------------------------------------------

 SCF Done:  E(RCAM-B3LYP) =  -2933.44251905     A.U. after   16 cycles

 Excitation energies and oscillator strengths:

 Excited State   1:      Singlet-A      1.9314 eV  641.94 nm  f=0.3287  <S**2>=0.000
     240 -> 243        0.20883
     241 -> 242        0.67583
 This state for optimization and/or second-order correction.
 Total Energy, E(TD-HF/TD-DFT) =  -2933.37154169
 Copying the excited state density for this state as the 1-particle RhoCI density.

 The electronic state is 1-A.
 Alpha  occ. eigenvalues --  -46.79745 -19.21718 -19.20611 -19.17002 -19.16042
 Alpha  occ. eigenvalues --  -19.15413 -14.38187 -14.36145 -14.35965 -14.35581
 Alpha  occ. eigenvalues --  -10.34062 -10.33697 -10.31136 -10.27567 -10.27536
 Alpha  occ. eigenvalues --  -10.26551 -10.26278 -10.25988 -10.25608 -10.25587
 Alpha  occ. eigenvalues --  -10.25189 -10.25156 -10.24933 -10.24762 -10.24636
 Alpha  occ. eigenvalues --  -10.24628 -10.24025 -10.23510 -10.23450 -10.23361
 Alpha  occ. eigenvalues --  -10.23311 -10.23201 -10.23147 -10.23105 -10.22729
 Alpha  occ. eigenvalues --  -10.22654 -10.22555 -10.22454 -10.22452 -10.22371
 Alpha  occ. eigenvalues --  -10.22288 -10.22237 -10.22220 -10.22155 -10.22091
 Alpha  occ. eigenvalues --  -10.21913 -10.21838 -10.21479 -10.21420 -10.21347
 Alpha  occ. eigenvalues --  -10.21149 -10.21064 -10.20892 -10.20755 -10.20621
 Alpha  occ. eigenvalues --  -10.20618 -10.20555 -10.20242 -10.20052 -10.19926
 Alpha  occ. eigenvalues --  -10.19682 -10.19337 -10.19166 -10.18945 -10.18164
 Alpha  occ. eigenvalues --   -3.08796  -1.83679  -1.83324  -1.83205  -1.13108
 Alpha  occ. eigenvalues --   -1.10215  -1.03036  -1.02848  -1.02800  -1.00223
 Alpha  occ. eigenvalues --   -0.99546  -0.98904  -0.97657  -0.87742  -0.87665
 Alpha  occ. eigenvalues --   -0.86131  -0.85406  -0.85232  -0.85049  -0.84250
 Alpha  occ. eigenvalues --   -0.83931  -0.83856  -0.82504  -0.82001  -0.81082
 Alpha  occ. eigenvalues --   -0.80060  -0.79759  -0.79461  -0.78450  -0.78100
 Alpha  occ. eigenvalues --   -0.77335  -0.76747  -0.76065  -0.75915  -0.74007
 Alpha  occ. eigenvalues --   -0.73193  -0.72564  -0.72316  -0.71705  -0.71655
 Alpha  occ. eigenvalues --   -0.70637  -0.70259  -0.69656  -0.68139  -0.67886
 Alpha  occ. eigenvalues --   -0.67685  -0.66537  -0.66112  -0.65166  -0.64771
 Alpha  occ. eigenvalues --   -0.63117  -0.62807  -0.61795  -0.61064  -0.60446
 Alpha  occ. eigenvalues --   -0.60210  -0.59893  -0.59434  -0.58104  -0.58041
 Alpha  occ. eigenvalues --   -0.57133  -0.56800  -0.55931  -0.55631  -0.55245
 Alpha  occ. eigenvalues --   -0.54727  -0.54170  -0.54143  -0.52635  -0.52097
 Alpha  occ. eigenvalues --   -0.51833  -0.51697  -0.51565  -0.51252  -0.51224
 Alpha  occ. eigenvalues --   -0.51084  -0.50074  -0.49895  -0.49784  -0.49238
 Alpha  occ. eigenvalues --   -0.48995  -0.48856  -0.48697  -0.48199  -0.47891
 Alpha  occ. eigenvalues --   -0.47813  -0.47460  -0.47260  -0.47041  -0.46919
 Alpha  occ. eigenvalues --   -0.46878  -0.46402  -0.46309  -0.45969  -0.45842
 Alpha  occ. eigenvalues --   -0.45729  -0.45466  -0.45328  -0.45131  -0.44909
 Alpha  occ. eigenvalues --   -0.44721  -0.44410  -0.44262  -0.44137  -0.43859
 Alpha  occ. eigenvalues --   -0.43780  -0.43253  -0.43054  -0.42886  -0.42838
 Alpha  occ. eigenvalues --   -0.42535  -0.42404  -0.42228  -0.42077  -0.42021
 Alpha  occ. eigenvalues --   -0.41564  -0.41406  -0.41259  -0.41003  -0.40770
 Alpha  occ. eigenvalues --   -0.40585  -0.40510  -0.40316  -0.39889  -0.39818
 Alpha  occ. eigenvalues --   -0.39695  -0.39432  -0.39346  -0.39269  -0.39209
 Alpha  occ. eigenvalues --   -0.38959  -0.38817  -0.38455  -0.38247  -0.38201
 Alpha  occ. eigenvalues --   -0.38090  -0.37734  -0.37554  -0.37167  -0.37050
 Alpha  occ. eigenvalues --   -0.36926  -0.36685  -0.36597  -0.36216  -0.35954
 Alpha  occ. eigenvalues --   -0.35890  -0.35520  -0.35404  -0.35249  -0.34681
 Alpha  occ. eigenvalues --   -0.34498  -0.34409  -0.34165  -0.33879  -0.33797
 Alpha  occ. eigenvalues --   -0.33566  -0.33055  -0.32542  -0.32173  -0.32083
 Alpha  occ. eigenvalues --   -0.31795  -0.31479  -0.31405  -0.30741  -0.30368
 Alpha  occ. eigenvalues --   -0.29971  -0.29652  -0.29083  -0.28703  -0.27525
 Alpha  occ. eigenvalues --   -0.26909  -0.26544  -0.26314  -0.25705  -0.21986
 Alpha  occ. eigenvalues --   -0.19456
 Alpha virt. eigenvalues --   -0.07348  -0.03383  -0.01281   0.02175   0.02604
 Alpha virt. eigenvalues --    0.03168   0.04396   0.04861   0.05040   0.05550
 Alpha virt. eigenvalues --    0.06471   0.08866   0.09085   0.09504   0.09915

 Mulliken charges:
               1
     1  Mg   0.878637
     2  C    0.080141
     3  C   -0.191106
     4  C   -0.159323
     5  C   -0.192576
     6  N   -0.608465
     7  C    0.302429
     8  C   -0.134305
     9  C   -0.125751
    10  C    0.308001
    11  C   -0.331104
    12  C   -0.172637
    13  C   -0.257279
    14  C    0.596897
    15  O   -0.453541
    16  O   -0.500656
    17  N   -0.686257
    18  C    0.261273
    19  C    0.011053
    20  C    0.084025
    21  C    0.260125
    22  C   -0.370143
    23  C   -0.088928
    24  C   -0.235232
    25  N   -0.751564
    26  C    0.307244
    27  C    0.043108
    28  C    0.020887
    29  C    0.279051
    30  C   -0.399900
    31  C   -0.209875
    32  C   -0.308835
    33  N   -0.723887
    34  C    0.308255
    35  C    0.052725
    36  C    0.046583
    37  C    0.303826
    38  C   -0.404781
    39  C    0.324693
    40  O   -0.487918
    41  C   -0.330747
    42  C    0.628157
    43  O   -0.492393
    44  O   -0.427757
    45  C   -0.059239
    46  C   -0.017191
    47  C   -0.107891
    48  C    0.160779
    49  C   -0.388984
    50  C   -0.226083
    51  C   -0.190723
    52  C   -0.170393
    53  C   -0.054018
    54  C   -0.318460
    55  C   -0.169743
    56  C   -0.152111
    57  C   -0.167541
    58  C   -0.044266
    59  C   -0.330534
    60  C   -0.170688
    61  C   -0.153255
    62  C   -0.201155
    63  C   -0.045342
    64  C   -0.303956
    65  C   -0.306064
    66  H    0.086040
    67  H    0.070770
    68  H    0.087792
    69  H    0.118198
    70  H    0.109473
    71  H    0.106473
    72  H    0.108079
    73  H    0.132045
    74  H    0.103399
    75  H    0.104263
    76  H    0.128001
    77  H    0.134012
    78  H    0.087537
    79  H    0.123568
    80  H    0.122282
    81  H    0.079141
    82  H    0.096687
    83  H    0.095539
    84  H    0.114180
    85  H    0.113952
    86  H    0.139039
    87  H    0.111066
    88  H    0.106569
    89  H    0.102913
    90  H    0.126023
    91  H    0.078289
    92  H    0.130341
    93  H    0.152342
    94  H    0.136634
    95  H    0.153769
    96  H    0.061662
    97  H    0.143590
    98  H    0.127513
    99  H    0.122194
   100  H    0.126635
   101  H    0.071845
   102  H    0.116975
   103  H    0.120213
   104  H    0.132597
   105  H    0.108729
   106  H    0.096813
   107  H    0.089346
   108  H    0.086923
   109  H    0.073736
   110  H    0.097674
   111  H    0.079818
   112  H    0.093200
   113  H    0.095409
   114  H    0.090435
   115  H    0.078955
   116  H    0.091101
   117  H    0.103374
   118  H    0.108768
   119  H    0.039349
   120  H    0.093939
   121  H    0.082052
   122  H    0.104885
   123  H    0.092804
   124  H    0.103402
   125  H    0.098102
   126  H    0.076552
   127  H    0.076507
   128  H    0.100340
   129  H    0.087863
   130  H    0.071637
   131  H    0.097029
   132  H    0.107670
   133  H    0.107127
   134  H    0.072918
   135  H    0.103043
   136  H    0.087559
   137  H    0.086007
 Sum of Mulliken charges =  -0.00000

 Dipole moment (field-independent basis, Debye):
    X=             -0.4965    Y=              3.5597    Z=             -0.4925  Tot=              3.6277
 Quadrupole moment (field-independent basis, Debye-Ang):
   XX=           -322.1976   YY=           -395.6131   ZZ=           -399.7161
   XY=            -15.9858   XZ=             11.8252   YZ=             -5.4032

 Normal termination of Gaussian 16 at Tue Sep 10 12:44:08 2019.
