 Gaussian 09, Revision D.01,
 Gaussian 09:  ES64L-G09RevD.01 24-Apr-2013

 -------------------------------------
 # td=(NStates=1) CAM-B3LYP/6-31G(d,p)
 -------------------------------------

 --
 TD
 --
 Symbolic Z-matrix:
 Charge =  0 Multiplicity = 1

                         Standard orientation:
 ---------------------------------------------------------------------
 Center     Atomic      Atomic             Coordinates (Angstroms)
 Number     Number       Type             X           Y           Z
 ---------------------------------------------------------------------
      1         12           0       -7.058365    0.626465    0.109060
      2          6           0       -4.883645   -1.855330    0.624791
      3          6           0       -4.830096    2.884678    1.253917
      4          6           0       -9.297156    3.079998   -0.346694
      5          6           0       -9.513468   -1.704573   -1.039428
      6          7           0       -5.182903    0.461932    0.813385
      7          6           0       -4.269809   -0.628033    0.904725
      8          6           0       -2.900575   -0.369498    1.340190
      9          6           0       -3.007112    1.083332    1.630327
     10          6           0       -4.339434    1.595853    1.117315
     11          6           0       -2.820733    1.393682    3.111263
     12          6           0       -1.930692   -0.566792    0.190524
     13          6           0       -0.538498   -0.486271    0.508924
     14          6           0        0.388993   -0.673720   -0.725786
     15          8           0        0.087323   -1.053493   -1.791286
     16          8           0        1.742043   -0.529328   -0.327381
     17          7           0       -7.108237    2.673837    0.400143
     18          6           0       -6.063315    3.349988    0.758987
     19          6           0       -6.362367    4.791792    0.702537
     20          6           0       -7.629029    4.920453    0.421529
     21          6           0       -8.090821    3.541092    0.079007
     22          6           0       -5.370153    5.880909    1.030788
     23          6           0       -8.526237    6.073752    0.064590
     24          6           0       -8.417459    7.149082    0.781963
     25          7           0       -8.994813    0.662197   -0.583102
     26          6           0       -9.795836    1.825782   -0.610993
     27          6           0      -11.136461    1.428843   -1.058514
     28          6           0      -11.202505    0.110856   -1.349296
     29          6           0       -9.772097   -0.357382   -1.058809
     30          6           0      -12.274699    2.427805   -1.250920
     31          6           0      -12.287537   -0.807544   -1.744012
     32          6           0      -12.107792   -1.241641   -3.295095
     33          7           0       -7.152676   -1.369030   -0.332682
     34          6           0       -8.220380   -2.244247   -0.716087
     35          6           0       -7.756838   -3.642138   -0.461374
     36          6           0       -6.413868   -3.528520   -0.037448
     37          6           0       -6.160593   -2.126360    0.106866
     38          6           0       -8.541088   -4.857833   -0.922773
     39          6           0       -5.231677   -4.371557    0.292828
     40          8           0       -5.040589   -5.540541    0.443969
     41          6           0       -4.144818   -3.267771    0.667706
     42          6           0       -3.642516   -3.602629    2.095784
     43          8           0       -4.031201   -3.209951    3.147307
     44          8           0       -2.589644   -4.432946    1.831882
     45          6           0       -2.118858   -5.146644    3.037676
     46          6           0        2.743348   -0.752247   -1.421580
     47          6           0        4.016136   -0.523673   -0.693190
     48          6           0        5.058152    0.218750   -1.176070
     49          6           0        5.087775    1.050296   -2.443081
     50          6           0        6.320110    0.329208   -0.350662
     51          6           0        7.635202   -0.239875   -1.027960
     52          6           0        8.918979   -0.332521   -0.147022
     53          6           0       10.192157   -0.610896   -0.839959
     54          6           0       10.045368   -2.134531   -1.324932
     55          6           0       11.383313   -0.223513    0.061578
     56          6           0       12.756222   -0.428565   -0.653278
     57          6           0       13.906357   -0.135096    0.210896
     58          6           0       15.289027   -0.095934   -0.414797
     59          6           0       15.504222   -1.516005   -1.047049
     60          6           0       16.374920    0.391215    0.464864
     61          6           0       17.761062    0.506307   -0.037283
     62          6           0       18.712606    1.219668    0.859219
     63          6           0       20.148988    1.438972    0.264125
     64          6           0       20.189419    2.256886   -1.104717
     65          6           0       21.070856    2.036923    1.399829
     66          1           0       -4.048193    3.796799    1.520651
     67          1           0      -10.057248    3.666258   -0.524753
     68          1           0      -10.117733   -2.700179   -1.206286
     69          1           0       -2.732808   -1.086899    2.253067
     70          1           0       -2.188604    1.737064    1.087465
     71          1           0       -1.882842    0.810177    3.604727
     72          1           0       -2.899664    2.354596    3.469885
     73          1           0       -3.684346    0.811639    3.530369
     74          1           0       -2.025356   -1.734364   -0.207891
     75          1           0       -2.273173    0.261479   -0.521251
     76          1           0       -0.239458    0.472624    1.112438
     77          1           0       -0.022685   -1.365213    1.258613
     78          1           0       -6.140730    6.812895    0.658581
     79          1           0       -5.089291    5.929629    2.285283
     80          1           0       -4.421279    5.918355    0.351259
     81          1           0       -9.172171    5.934518   -0.766171
     82          1           0       -9.400120    7.813187    0.451842
     83          1           0       -7.829476    7.333239    1.727891
     84          1           0      -11.827087    3.417834   -1.779597
     85          1           0      -13.024211    1.740686   -1.962641
     86          1           0      -12.709401    2.641167   -0.158187
     87          1           0      -12.205549   -1.577979   -1.090243
     88          1           0      -13.156371   -0.334214   -1.760791
     89          1           0      -13.055011   -1.833930   -3.390476
     90          1           0      -12.007752   -0.276918   -3.814584
     91          1           0      -11.259276   -1.913768   -3.239772
     92          1           0       -8.948893   -4.843788   -1.737136
     93          1           0       -7.977978   -5.794108   -0.731538
     94          1           0       -9.734970   -4.957355   -0.424650
     95          1           0       -3.277812   -3.588645   -0.037350
     96          1           0       -1.517896   -4.513980    3.782624
     97          1           0       -2.886159   -5.673414    3.730909
     98          1           0       -1.528231   -6.005059    2.561535
     99          1           0        2.866504   -1.758086   -1.836892
    100          1           0        2.400234   -0.085923   -2.245361
    101          1           0        4.179945   -1.098200    0.409756
    102          1           0        4.021119    1.167438   -2.834451
    103          1           0        5.285940    2.133559   -2.180738
    104          1           0        5.603564    0.608913   -3.454944
    105          1           0        6.463904    1.281732    0.121938
    106          1           0        6.212021   -0.527377    0.416424
    107          1           0        7.343353   -1.302173   -1.213202
    108          1           0        7.830304    0.253432   -2.007989
    109          1           0        8.896063    0.641133    0.369966
    110          1           0        8.667295   -1.054916    0.721495
    111          1           0       10.332069    0.036989   -1.801561
    112          1           0        9.151741   -2.359639   -1.930819
    113          1           0       10.995152   -2.272981   -1.948521
    114          1           0       10.317472   -2.857806   -0.485161
    115          1           0       11.184620    0.971808    0.251709
    116          1           0       11.218518   -0.714534    1.002723
    117          1           0       12.761671   -1.474427   -1.118136
    118          1           0       12.715009    0.256104   -1.640133
    119          1           0       13.755554    1.029768    0.435932
    120          1           0       13.842516   -0.647171    1.324568
    121          1           0       15.399690    0.496535   -1.297398
    122          1           0       15.362972   -2.351522   -0.243397
    123          1           0       14.772458   -1.873923   -1.786921
    124          1           0       16.631534   -1.562833   -1.585409
    125          1           0       16.039451    1.494762    0.913830
    126          1           0       16.242329   -0.218186    1.397829
    127          1           0       18.255870   -0.449681   -0.238858
    128          1           0       17.484782    1.019730   -1.089105
    129          1           0       18.212407    2.109304    0.986610
    130          1           0       18.476074    0.661354    1.819187
    131          1           0       20.559530    0.316879    0.002956
    132          1           0       19.656861    3.067015   -0.807823
    133          1           0       21.351664    2.267142   -1.174536
    134          1           0       19.838084    1.638429   -1.973526
    135          1           0       21.133838    1.250427    2.186803
    136          1           0       22.072668    2.246180    0.987690
    137          1           0       20.804030    2.929648    1.579157
 ---------------------------------------------------------------------

 SCF Done:  E(RCAM-B3LYP) =  -2932.53187382     A.U. after   16 cycles

 Excitation energies and oscillator strengths:

 Excited State   1:      Singlet-A      1.9584 eV  633.09 nm  f=0.2924  <S**2>=0.000
     240 -> 243       -0.21091
     241 -> 242        0.67060
 This state for optimization and/or second-order correction.
 Total Energy, E(TD-HF/TD-KS) =  -2932.45990409
 Copying the excited state density for this state as the 1-particle RhoCI density.

 The electronic state is 1-A.
 Alpha  occ. eigenvalues --  -46.84075 -19.26477 -19.24768 -19.22056 -19.21584
 Alpha  occ. eigenvalues --  -19.20731 -14.42207 -14.39778 -14.39757 -14.39034
 Alpha  occ. eigenvalues --  -10.39293 -10.38851 -10.35195 -10.32491 -10.31987
 Alpha  occ. eigenvalues --  -10.31641 -10.30882 -10.29812 -10.29798 -10.29703
 Alpha  occ. eigenvalues --  -10.29383 -10.29221 -10.29209 -10.29149 -10.29099
 Alpha  occ. eigenvalues --  -10.29047 -10.28768 -10.28664 -10.28618 -10.28440
 Alpha  occ. eigenvalues --  -10.28415 -10.28013 -10.27892 -10.27752 -10.27649
 Alpha  occ. eigenvalues --  -10.27594 -10.27580 -10.27415 -10.27145 -10.26969
 Alpha  occ. eigenvalues --  -10.26863 -10.26812 -10.26718 -10.26667 -10.26503
 Alpha  occ. eigenvalues --  -10.26484 -10.26458 -10.26428 -10.26148 -10.26116
 Alpha  occ. eigenvalues --  -10.26029 -10.25945 -10.25789 -10.25785 -10.25667
 Alpha  occ. eigenvalues --  -10.25603 -10.25570 -10.25533 -10.25510 -10.25340
 Alpha  occ. eigenvalues --  -10.25181 -10.25106 -10.24802 -10.24307 -10.23600
 Alpha  occ. eigenvalues --   -3.13224  -1.87922  -1.87466  -1.87415  -1.17644
 Alpha  occ. eigenvalues --   -1.17553  -1.12321  -1.10014  -1.08718  -1.06238
 Alpha  occ. eigenvalues --   -1.03166  -1.02236  -1.01377  -0.91831  -0.91244
 Alpha  occ. eigenvalues --   -0.90945  -0.90538  -0.90195  -0.89404  -0.89182
 Alpha  occ. eigenvalues --   -0.88540  -0.87983  -0.87437  -0.86617  -0.86016
 Alpha  occ. eigenvalues --   -0.84908  -0.84657  -0.83627  -0.83048  -0.82843
 Alpha  occ. eigenvalues --   -0.81438  -0.80758  -0.80393  -0.79181  -0.78453
 Alpha  occ. eigenvalues --   -0.77207  -0.76428  -0.75789  -0.75094  -0.74976
 Alpha  occ. eigenvalues --   -0.74930  -0.74081  -0.74027  -0.72703  -0.72140
 Alpha  occ. eigenvalues --   -0.71359  -0.70404  -0.69836  -0.68472  -0.67477
 Alpha  occ. eigenvalues --   -0.66787  -0.65872  -0.65467  -0.64709  -0.63319
 Alpha  occ. eigenvalues --   -0.63205  -0.62728  -0.62128  -0.61899  -0.61652
 Alpha  occ. eigenvalues --   -0.61411  -0.61093  -0.59848  -0.59594  -0.58669
 Alpha  occ. eigenvalues --   -0.58345  -0.57822  -0.57384  -0.56657  -0.56060
 Alpha  occ. eigenvalues --   -0.55875  -0.55480  -0.55260  -0.54862  -0.54567
 Alpha  occ. eigenvalues --   -0.54132  -0.53836  -0.53647  -0.53338  -0.52987
 Alpha  occ. eigenvalues --   -0.52898  -0.52323  -0.52150  -0.51826  -0.51573
 Alpha  occ. eigenvalues --   -0.51422  -0.51086  -0.50693  -0.50389  -0.50331
 Alpha  occ. eigenvalues --   -0.50243  -0.50025  -0.49844  -0.49676  -0.49592
 Alpha  occ. eigenvalues --   -0.49416  -0.48827  -0.48729  -0.48447  -0.48158
 Alpha  occ. eigenvalues --   -0.48102  -0.47779  -0.47246  -0.47042  -0.46856
 Alpha  occ. eigenvalues --   -0.46817  -0.46760  -0.46626  -0.45728  -0.45506
 Alpha  occ. eigenvalues --   -0.45439  -0.45376  -0.45138  -0.45052  -0.44946
 Alpha  occ. eigenvalues --   -0.44813  -0.44639  -0.44410  -0.44188  -0.43857
 Alpha  occ. eigenvalues --   -0.43608  -0.43541  -0.43373  -0.43140  -0.43025
 Alpha  occ. eigenvalues --   -0.42969  -0.42782  -0.42483  -0.42325  -0.42027
 Alpha  occ. eigenvalues --   -0.41873  -0.41655  -0.41569  -0.41214  -0.40969
 Alpha  occ. eigenvalues --   -0.40962  -0.40918  -0.40234  -0.40162  -0.40038
 Alpha  occ. eigenvalues --   -0.39912  -0.39469  -0.39246  -0.38897  -0.38250
 Alpha  occ. eigenvalues --   -0.38037  -0.38016  -0.37889  -0.37783  -0.37594
 Alpha  occ. eigenvalues --   -0.37459  -0.36960  -0.36943  -0.36651  -0.36644
 Alpha  occ. eigenvalues --   -0.36421  -0.36320  -0.35929  -0.35803  -0.35622
 Alpha  occ. eigenvalues --   -0.35420  -0.35231  -0.34843  -0.33918  -0.33781
 Alpha  occ. eigenvalues --   -0.33580  -0.33430  -0.31961  -0.30991  -0.29798
 Alpha  occ. eigenvalues --   -0.29577  -0.29318  -0.29038  -0.28183  -0.23436
 Alpha  occ. eigenvalues --   -0.20780
 Alpha virt. eigenvalues --   -0.06546  -0.02266   0.01734   0.03967   0.05491
 Alpha virt. eigenvalues --    0.06156   0.06295   0.06416   0.06825   0.07226
 Alpha virt. eigenvalues --    0.07937   0.09847   0.10404   0.10860   0.11076

 Mulliken charges:
               1
     1  Mg   0.804534
     2  C    0.018799
     3  C   -0.215012
     4  C   -0.157459
     5  C   -0.140480
     6  N   -0.636898
     7  C    0.316812
     8  C   -0.142287
     9  C   -0.159256
    10  C    0.327888
    11  C   -0.296523
    12  C   -0.142586
    13  C   -0.261075
    14  C    0.609825
    15  O   -0.427060
    16  O   -0.523716
    17  N   -0.688445
    18  C    0.358935
    19  C    0.007820
    20  C    0.031815
    21  C    0.275757
    22  C   -0.359672
    23  C   -0.047886
    24  C   -0.246234
    25  N   -0.663989
    26  C    0.285008
    27  C   -0.013380
    28  C    0.044349
    29  C    0.258057
    30  C   -0.344130
    31  C   -0.239240
    32  C   -0.311820
    33  N   -0.715060
    34  C    0.190515
    35  C    0.010132
    36  C   -0.014232
    37  C    0.345813
    38  C   -0.347970
    39  C    0.383391
    40  O   -0.440357
    41  C   -0.345405
    42  C    0.644176
    43  O   -0.457476
    44  O   -0.459530
    45  C   -0.099035
    46  C    0.016971
    47  C   -0.131903
    48  C    0.125572
    49  C   -0.360656
    50  C   -0.229632
    51  C   -0.189503
    52  C   -0.160411
    53  C   -0.049301
    54  C   -0.321974
    55  C   -0.166614
    56  C   -0.168773
    57  C   -0.155702
    58  C   -0.047176
    59  C   -0.308337
    60  C   -0.156587
    61  C   -0.162621
    62  C   -0.164218
    63  C   -0.086652
    64  C   -0.301354
    65  C   -0.297799
    66  H    0.080565
    67  H    0.043585
    68  H    0.100623
    69  H    0.136289
    70  H    0.094335
    71  H    0.090204
    72  H    0.122165
    73  H    0.119179
    74  H    0.109757
    75  H    0.120358
    76  H    0.123557
    77  H    0.123369
    78  H    0.091652
    79  H    0.096391
    80  H    0.120235
    81  H    0.119314
    82  H    0.077387
    83  H    0.135687
    84  H    0.104366
    85  H    0.091547
    86  H    0.117718
    87  H    0.123500
    88  H    0.105952
    89  H    0.105086
    90  H    0.121115
    91  H    0.118997
    92  H    0.143305
    93  H    0.143917
    94  H    0.059669
    95  H    0.157344
    96  H    0.120411
    97  H    0.131570
    98  H    0.125399
    99  H    0.133450
   100  H    0.130024
   101  H    0.096305
   102  H    0.095824
   103  H    0.119393
   104  H    0.112241
   105  H    0.105600
   106  H    0.084036
   107  H    0.091594
   108  H    0.088825
   109  H    0.079273
   110  H    0.079481
   111  H    0.074483
   112  H    0.120245
   113  H    0.086869
   114  H    0.098687
   115  H    0.074013
   116  H    0.099116
   117  H    0.090192
   118  H    0.081464
   119  H    0.074117
   120  H    0.080130
   121  H    0.092273
   122  H    0.081917
   123  H    0.110816
   124  H    0.070278
   125  H    0.056234
   126  H    0.077338
   127  H    0.097533
   128  H    0.059278
   129  H    0.092946
   130  H    0.090256
   131  H    0.051386
   132  H    0.119898
   133  H    0.100147
   134  H    0.114918
   135  H    0.111645
   136  H    0.086403
   137  H    0.116075
 Sum of Mulliken charges =   0.00000

 Dipole moment (field-independent basis, Debye):
    X=              0.3967    Y=              4.4041    Z=             -0.0930  Tot=              4.4229
 Quadrupole moment (field-independent basis, Debye-Ang):
   XX=           -350.1289   YY=           -394.4195   ZZ=           -399.5061
   XY=            -18.3208   XZ=             13.5600   YZ=              0.4551

 Normal termination of Gaussian 09 at Fri Jul  5 01:54:20 2019.
