 Gaussian 09, Revision D.01,
 Gaussian 09:  ES64L-G09RevD.01 24-Apr-2013

 -------------------------------------
 # td=(NStates=1) CAM-B3LYP/6-31G(d,p)
 -------------------------------------

 --
 TD
 --
 Symbolic Z-matrix:
 Charge =  0 Multiplicity = 1

                         Standard orientation:
 ---------------------------------------------------------------------
 Center     Atomic      Atomic             Coordinates (Angstroms)
 Number     Number       Type             X           Y           Z
 ---------------------------------------------------------------------
      1         12           0       -7.127728    0.570995    0.034913
      2          6           0       -4.934764   -1.929575    0.469228
      3          6           0       -4.816856    2.830333    1.177861
      4          6           0       -9.399008    3.117446   -0.520234
      5          6           0       -9.547495   -1.692276   -0.862005
      6          7           0       -5.083428    0.432267    0.698696
      7          6           0       -4.327248   -0.752220    0.777937
      8          6           0       -2.918249   -0.373914    1.145440
      9          6           0       -2.973363    1.006891    1.591795
     10          6           0       -4.429416    1.538152    1.028873
     11          6           0       -2.940246    1.235007    3.094111
     12          6           0       -1.926107   -0.640481    0.087765
     13          6           0       -0.514484   -0.518385    0.567628
     14          6           0        0.398858   -0.743238   -0.445008
     15          8           0        0.198076   -1.144628   -1.631075
     16          8           0        1.677291   -0.535940    0.004459
     17          7           0       -7.076655    2.614607    0.285967
     18          6           0       -6.055083    3.315624    0.744114
     19          6           0       -6.441346    4.693389    0.886943
     20          6           0       -7.719519    4.835348    0.319679
     21          6           0       -8.176805    3.514555   -0.023225
     22          6           0       -5.461440    5.812872    1.283583
     23          6           0       -8.515155    6.002150    0.122294
     24          6           0       -8.408011    7.118790    0.799045
     25          7           0       -9.106459    0.745622   -0.585175
     26          6           0       -9.894328    1.857345   -0.760475
     27          6           0      -11.121113    1.471984   -1.217238
     28          6           0      -11.267276    0.125690   -1.334167
     29          6           0       -9.865398   -0.351033   -0.935853
     30          6           0      -12.284921    2.537870   -1.388618
     31          6           0      -12.496069   -0.551677   -1.805955
     32          6           0      -12.327517   -0.987229   -3.313695
     33          7           0       -7.314620   -1.339915   -0.183972
     34          6           0       -8.309833   -2.182276   -0.500814
     35          6           0       -7.953069   -3.626739   -0.536070
     36          6           0       -6.547472   -3.479103   -0.049099
     37          6           0       -6.282259   -2.177407    0.173747
     38          6           0       -8.674393   -4.885710   -0.724601
     39          6           0       -5.443535   -4.407151    0.270322
     40          8           0       -5.338618   -5.568237    0.250671
     41          6           0       -4.268361   -3.328928    0.558654
     42          6           0       -3.573723   -3.634858    1.831350
     43          8           0       -3.761682   -3.180739    2.965827
     44          8           0       -2.635287   -4.712731    1.670122
     45          6           0       -2.153324   -5.187398    2.870303
     46          6           0        2.827910   -0.555304   -0.869156
     47          6           0        4.207656   -0.404894   -0.289877
     48          6           0        5.175477    0.422990   -0.760986
     49          6           0        5.059210    1.244627   -2.050478
     50          6           0        6.594704    0.425723   -0.136109
     51          6           0        7.747086   -0.217221   -0.934286
     52          6           0        9.040378   -0.090592   -0.169547
     53          6           0       10.226096   -0.646600   -0.858796
     54          6           0       10.028358   -2.135148   -1.256919
     55          6           0       11.530784   -0.349366   -0.072654
     56          6           0       12.799791   -0.409798   -0.914213
     57          6           0       14.038439   -0.140560   -0.016435
     58          6           0       15.396065   -0.299648   -0.653217
     59          6           0       15.774732   -1.692843   -1.041720
     60          6           0       16.515606    0.316222    0.385526
     61          6           0       17.909730    0.517955   -0.213021
     62          6           0       18.786578    1.280908    0.777362
     63          6           0       20.211176    1.415806    0.249026
     64          6           0       20.377577    2.137978   -1.006031
     65          6           0       21.132784    2.154160    1.272694
     66          1           0       -4.204675    3.484629    1.549006
     67          1           0      -10.123270    4.054581   -0.600502
     68          1           0      -10.234327   -2.394999   -0.835453
     69          1           0       -2.680324   -1.066168    2.143251
     70          1           0       -2.194345    1.567070    1.033839
     71          1           0       -1.972584    1.135465    3.606387
     72          1           0       -3.225977    2.379449    3.449075
     73          1           0       -3.714724    0.666385    3.879901
     74          1           0       -2.059876   -1.752958   -0.378894
     75          1           0       -2.400044   -0.071481   -0.723779
     76          1           0       -0.125371    0.277164    1.232691
     77          1           0       -0.436322   -1.213852    1.410500
     78          1           0       -5.747380    6.898035    0.896749
     79          1           0       -5.286765    5.896924    2.280598
     80          1           0       -4.352599    5.624720    0.831851
     81          1           0       -9.482066    5.925046   -0.502926
     82          1           0       -8.972050    7.963238    0.487050
     83          1           0       -7.725988    7.108653    1.625726
     84          1           0      -11.924991    3.258504   -2.099046
     85          1           0      -13.038155    1.976160   -1.594816
     86          1           0      -12.557434    3.080622   -0.418200
     87          1           0      -12.590786   -1.512508   -1.543559
     88          1           0      -13.426935   -0.110844   -1.703461
     89          1           0      -13.262351   -1.643631   -3.667664
     90          1           0      -12.033195   -0.082422   -3.815852
     91          1           0      -11.483169   -1.797497   -3.493236
     92          1           0       -8.815318   -5.042146   -1.952485
     93          1           0       -7.927470   -5.651715   -0.471144
     94          1           0       -9.661423   -4.896931   -0.424003
     95          1           0       -3.511711   -3.417208   -0.263394
     96          1           0       -1.536223   -4.508532    3.403892
     97          1           0       -2.963803   -5.502938    3.675095
     98          1           0       -1.570009   -6.131344    2.556618
     99          1           0        2.748755   -1.608172   -1.434446
    100          1           0        2.554627    0.195903   -1.679305
    101          1           0        4.237010   -0.877398    0.788931
    102          1           0        3.868416    1.574880   -2.093370
    103          1           0        5.733908    2.094832   -1.895468
    104          1           0        5.556791    0.483088   -2.933989
    105          1           0        6.932545    1.559749    0.105079
    106          1           0        6.465716    0.105071    0.833648
    107          1           0        7.577969   -1.384804   -1.201741
    108          1           0        7.851149    0.462332   -1.820487
    109          1           0        9.174507    0.968611    0.096114
    110          1           0        8.956225   -0.537763    0.913562
    111          1           0       10.214832   -0.040925   -1.685687
    112          1           0        9.104195   -2.010643   -2.012048
    113          1           0       10.813075   -2.609053   -1.750490
    114          1           0        9.738655   -2.726241   -0.357442
    115          1           0       11.484232    0.662233    0.437867
    116          1           0       11.691524   -1.182762    0.666947
    117          1           0       12.757398   -1.485050   -1.417674
    118          1           0       12.672825    0.327123   -1.654144
    119          1           0       13.893281    0.943131    0.371500
    120          1           0       13.824208   -0.856115    0.844573
    121          1           0       15.564940    0.279683   -1.652584
    122          1           0       15.860155   -2.313685   -0.052340
    123          1           0       15.024750   -2.087582   -1.708798
    124          1           0       16.752786   -1.777342   -1.690819
    125          1           0       16.083267    1.189245    0.687461
    126          1           0       16.395589   -0.401517    1.247923
    127          1           0       18.382407   -0.518565   -0.515526
    128          1           0       17.703625    1.076974   -1.032797
    129          1           0       18.356311    2.286157    0.870139
    130          1           0       18.797372    1.095502    1.816263
    131          1           0       20.544212    0.458950    0.106337
    132          1           0       19.897907    3.125315   -0.950025
    133          1           0       21.346430    2.287019   -1.484890
    134          1           0       19.988582    1.491031   -1.756595
    135          1           0       21.346214    1.711578    2.342165
    136          1           0       22.191309    2.224197    0.936618
    137          1           0       20.765733    3.204263    1.185451
 ---------------------------------------------------------------------

 SCF Done:  E(RCAM-B3LYP) =  -2932.67495159     A.U. after   17 cycles

 Excitation energies and oscillator strengths:

 Excited State   1:      Singlet-A      2.1147 eV  586.30 nm  f=0.2786  <S**2>=0.000
     240 -> 243       -0.23966
     241 -> 242        0.65882
 This state for optimization and/or second-order correction.
 Total Energy, E(TD-HF/TD-KS) =  -2932.59723845
 Copying the excited state density for this state as the 1-particle RhoCI density.

 The electronic state is 1-A.
 Alpha  occ. eigenvalues --  -46.83813 -19.25290 -19.25110 -19.22003 -19.21444
 Alpha  occ. eigenvalues --  -19.20169 -14.41255 -14.39634 -14.39490 -14.39129
 Alpha  occ. eigenvalues --  -10.39532 -10.39092 -10.35991 -10.32797 -10.30835
 Alpha  occ. eigenvalues --  -10.30606 -10.30322 -10.29905 -10.29644 -10.29558
 Alpha  occ. eigenvalues --  -10.29422 -10.28977 -10.28878 -10.28856 -10.28824
 Alpha  occ. eigenvalues --  -10.28472 -10.28191 -10.28109 -10.28095 -10.27839
 Alpha  occ. eigenvalues --  -10.27811 -10.27785 -10.27526 -10.27517 -10.27506
 Alpha  occ. eigenvalues --  -10.27458 -10.27367 -10.27327 -10.27290 -10.27151
 Alpha  occ. eigenvalues --  -10.27131 -10.27116 -10.26983 -10.26722 -10.26456
 Alpha  occ. eigenvalues --  -10.26292 -10.26249 -10.25603 -10.25481 -10.25432
 Alpha  occ. eigenvalues --  -10.25428 -10.25425 -10.25393 -10.25324 -10.25222
 Alpha  occ. eigenvalues --  -10.25202 -10.25113 -10.25039 -10.24980 -10.24839
 Alpha  occ. eigenvalues --  -10.24363 -10.24278 -10.24182 -10.24088 -10.23317
 Alpha  occ. eigenvalues --   -3.12971  -1.87671  -1.87200  -1.87174  -1.16249
 Alpha  occ. eigenvalues --   -1.16167  -1.14943  -1.08128  -1.06319  -1.04939
 Alpha  occ. eigenvalues --   -1.03677  -1.03354  -1.02328  -0.93344  -0.92459
 Alpha  occ. eigenvalues --   -0.91543  -0.90538  -0.90218  -0.89675  -0.89371
 Alpha  occ. eigenvalues --   -0.88640  -0.88566  -0.87784  -0.87435  -0.87170
 Alpha  occ. eigenvalues --   -0.85230  -0.84724  -0.84112  -0.83259  -0.83183
 Alpha  occ. eigenvalues --   -0.81941  -0.81414  -0.81185  -0.80068  -0.78692
 Alpha  occ. eigenvalues --   -0.78139  -0.76926  -0.75572  -0.75505  -0.75441
 Alpha  occ. eigenvalues --   -0.75136  -0.74721  -0.74167  -0.73417  -0.72730
 Alpha  occ. eigenvalues --   -0.71438  -0.70735  -0.69827  -0.68983  -0.68530
 Alpha  occ. eigenvalues --   -0.67528  -0.66872  -0.65772  -0.64687  -0.64324
 Alpha  occ. eigenvalues --   -0.64103  -0.63987  -0.63470  -0.63164  -0.62215
 Alpha  occ. eigenvalues --   -0.61579  -0.61271  -0.60660  -0.59776  -0.59404
 Alpha  occ. eigenvalues --   -0.58640  -0.58432  -0.58053  -0.57660  -0.57129
 Alpha  occ. eigenvalues --   -0.56683  -0.56211  -0.55477  -0.54980  -0.54847
 Alpha  occ. eigenvalues --   -0.54653  -0.54090  -0.53913  -0.53703  -0.53029
 Alpha  occ. eigenvalues --   -0.52913  -0.52776  -0.52441  -0.52001  -0.51727
 Alpha  occ. eigenvalues --   -0.51529  -0.51489  -0.51333  -0.50952  -0.50880
 Alpha  occ. eigenvalues --   -0.50498  -0.50124  -0.49734  -0.49597  -0.49496
 Alpha  occ. eigenvalues --   -0.49417  -0.49118  -0.48973  -0.48568  -0.48532
 Alpha  occ. eigenvalues --   -0.48278  -0.48057  -0.47795  -0.47610  -0.47446
 Alpha  occ. eigenvalues --   -0.47230  -0.47191  -0.46952  -0.46479  -0.46078
 Alpha  occ. eigenvalues --   -0.45964  -0.45791  -0.45675  -0.45224  -0.45093
 Alpha  occ. eigenvalues --   -0.44833  -0.44717  -0.44652  -0.44574  -0.44002
 Alpha  occ. eigenvalues --   -0.43975  -0.43916  -0.43720  -0.43461  -0.43272
 Alpha  occ. eigenvalues --   -0.43122  -0.43075  -0.42760  -0.42602  -0.42337
 Alpha  occ. eigenvalues --   -0.41871  -0.41792  -0.41657  -0.41396  -0.41282
 Alpha  occ. eigenvalues --   -0.41203  -0.40543  -0.40247  -0.40185  -0.40091
 Alpha  occ. eigenvalues --   -0.39712  -0.39607  -0.39463  -0.39191  -0.39038
 Alpha  occ. eigenvalues --   -0.38957  -0.38515  -0.38359  -0.38041  -0.37715
 Alpha  occ. eigenvalues --   -0.37576  -0.37220  -0.37045  -0.36898  -0.36850
 Alpha  occ. eigenvalues --   -0.36625  -0.36352  -0.36260  -0.36154  -0.35483
 Alpha  occ. eigenvalues --   -0.35277  -0.34747  -0.34541  -0.33830  -0.33223
 Alpha  occ. eigenvalues --   -0.32942  -0.32629  -0.32542  -0.31470  -0.30595
 Alpha  occ. eigenvalues --   -0.29380  -0.28994  -0.28561  -0.27256  -0.23361
 Alpha  occ. eigenvalues --   -0.21961
 Alpha virt. eigenvalues --   -0.07117  -0.02891   0.01233   0.04201   0.04494
 Alpha virt. eigenvalues --    0.04939   0.05309   0.06092   0.06662   0.07462
 Alpha virt. eigenvalues --    0.08413   0.10106   0.10672   0.10897   0.11628

 Mulliken charges:
               1
     1  Mg   0.816560
     2  C    0.008067
     3  C   -0.131760
     4  C   -0.198150
     5  C   -0.122826
     6  N   -0.645540
     7  C    0.308235
     8  C   -0.169424
     9  C   -0.122190
    10  C    0.331843
    11  C   -0.308607
    12  C   -0.167402
    13  C   -0.285799
    14  C    0.650260
    15  O   -0.514420
    16  O   -0.516045
    17  N   -0.728255
    18  C    0.355230
    19  C   -0.007891
    20  C    0.032759
    21  C    0.288675
    22  C   -0.379117
    23  C   -0.075950
    24  C   -0.242697
    25  N   -0.694259
    26  C    0.359536
    27  C   -0.039419
    28  C    0.033639
    29  C    0.265831
    30  C   -0.329605
    31  C   -0.244572
    32  C   -0.317179
    33  N   -0.727146
    34  C    0.239468
    35  C    0.076719
    36  C   -0.096452
    37  C    0.350781
    38  C   -0.384811
    39  C    0.395931
    40  O   -0.411228
    41  C   -0.328945
    42  C    0.622408
    43  O   -0.477074
    44  O   -0.463967
    45  C   -0.066676
    46  C    0.037314
    47  C   -0.122703
    48  C    0.085568
    49  C   -0.329298
    50  C   -0.216571
    51  C   -0.167083
    52  C   -0.169120
    53  C   -0.046384
    54  C   -0.311381
    55  C   -0.178904
    56  C   -0.176730
    57  C   -0.161464
    58  C   -0.069232
    59  C   -0.290010
    60  C   -0.178990
    61  C   -0.170910
    62  C   -0.167170
    63  C   -0.060674
    64  C   -0.309827
    65  C   -0.312586
    66  H    0.056341
    67  H    0.090865
    68  H    0.079694
    69  H    0.109029
    70  H    0.107574
    71  H    0.110963
    72  H    0.081780
    73  H    0.112667
    74  H    0.111549
    75  H    0.124269
    76  H    0.154269
    77  H    0.168641
    78  H    0.112163
    79  H    0.137277
    80  H    0.097904
    81  H    0.086687
    82  H    0.104488
    83  H    0.107631
    84  H    0.121785
    85  H    0.108297
    86  H    0.107625
    87  H    0.119156
    88  H    0.124356
    89  H    0.088849
    90  H    0.121680
    91  H    0.096138
    92  H    0.099857
    93  H    0.164960
    94  H    0.139445
    95  H    0.167322
    96  H    0.115816
    97  H    0.103153
    98  H    0.106551
    99  H    0.114958
   100  H    0.108274
   101  H    0.092296
   102  H    0.102704
   103  H    0.119999
   104  H    0.109540
   105  H    0.068413
   106  H    0.109422
   107  H    0.099530
   108  H    0.095034
   109  H    0.088874
   110  H    0.069346
   111  H    0.090406
   112  H    0.087600
   113  H    0.112512
   114  H    0.104851
   115  H    0.079542
   116  H    0.082594
   117  H    0.075028
   118  H    0.097388
   119  H    0.083481
   120  H    0.086770
   121  H    0.065635
   122  H    0.083037
   123  H    0.104638
   124  H    0.088923
   125  H    0.094601
   126  H    0.080428
   127  H    0.081619
   128  H    0.115659
   129  H    0.079766
   130  H    0.103331
   131  H    0.092783
   132  H    0.096493
   133  H    0.103101
   134  H    0.100828
   135  H    0.081474
   136  H    0.094056
   137  H    0.093904
 Sum of Mulliken charges =   0.00000

 Dipole moment (field-independent basis, Debye):
    X=             -0.2549    Y=              4.7798    Z=              0.1138  Tot=              4.7880
 Quadrupole moment (field-independent basis, Debye-Ang):
   XX=           -331.1285   YY=           -394.8110   ZZ=           -402.3155
   XY=            -12.6679   XZ=              4.8049   YZ=              3.4963

 Normal termination of Gaussian 09 at Sat Jul  6 18:28:38 2019.
