 Gaussian 09, Revision D.01,
 Gaussian 09:  ES64L-G09RevD.01 24-Apr-2013

 -------------------------------------
 # td=(NStates=1) CAM-B3LYP/6-31G(d,p)
 -------------------------------------

 --
 TD
 --
 Symbolic Z-matrix:
 Charge =  0 Multiplicity = 1

                         Standard orientation:
 ---------------------------------------------------------------------
 Center     Atomic      Atomic             Coordinates (Angstroms)
 Number     Number       Type             X           Y           Z
 ---------------------------------------------------------------------
      1         12           0       -7.161412    0.582737    0.035724
      2          6           0       -4.778721   -1.965638    0.518294
      3          6           0       -4.881989    2.788428    1.375874
      4          6           0       -9.343199    3.098742   -0.574854
      5          6           0       -9.536926   -1.753125   -0.841885
      6          7           0       -5.161270    0.421974    0.786609
      7          6           0       -4.347378   -0.747244    0.784676
      8          6           0       -2.972544   -0.396940    1.255447
      9          6           0       -3.052045    0.962958    1.622137
     10          6           0       -4.456799    1.426523    1.271134
     11          6           0       -2.941628    1.295685    3.190973
     12          6           0       -1.877884   -0.642901    0.163411
     13          6           0       -0.482450   -0.322832    0.655560
     14          6           0        0.518517   -0.580308   -0.461016
     15          8           0        0.218700   -1.040606   -1.575837
     16          8           0        1.721376   -0.280199   -0.222074
     17          7           0       -7.081439    2.583122    0.332064
     18          6           0       -6.092516    3.237215    0.902467
     19          6           0       -6.433647    4.651489    0.916699
     20          6           0       -7.687655    4.826185    0.330239
     21          6           0       -8.133137    3.495190   -0.003956
     22          6           0       -5.546572    5.822425    1.240726
     23          6           0       -8.494995    6.046264    0.106583
     24          6           0       -8.376716    7.241504    0.754827
     25          7           0       -9.094198    0.590703   -0.540128
     26          6           0       -9.815980    1.804388   -0.805718
     27          6           0      -11.235588    1.486467   -1.219750
     28          6           0      -11.312628    0.076654   -1.195307
     29          6           0      -10.004867   -0.430451   -0.883427
     30          6           0      -12.318526    2.495398   -1.491263
     31          6           0      -12.408045   -0.766476   -1.814906
     32          6           0      -12.354103   -0.873839   -3.284877
     33          7           0       -7.256947   -1.452751   -0.132211
     34          6           0       -8.270122   -2.341354   -0.549610
     35          6           0       -7.774080   -3.611517   -0.574114
     36          6           0       -6.424317   -3.650192   -0.140519
     37          6           0       -6.195972   -2.206076    0.040841
     38          6           0       -8.621934   -4.822025   -0.870089
     39          6           0       -5.307361   -4.361691    0.139524
     40          8           0       -5.179373   -5.553558    0.158329
     41          6           0       -4.111556   -3.365308    0.618174
     42          6           0       -3.513354   -3.546056    1.920482
     43          8           0       -4.011362   -3.112108    2.988637
     44          8           0       -2.564096   -4.485117    1.875786
     45          6           0       -2.176122   -5.107481    3.031307
     46          6           0        2.755810   -0.691191   -1.242137
     47          6           0        4.077576   -0.444936   -0.586332
     48          6           0        5.080055    0.295152   -1.097639
     49          6           0        5.001691    1.315247   -2.184401
     50          6           0        6.409715    0.382265   -0.252017
     51          6           0        7.634178   -0.231694   -0.994715
     52          6           0        8.977561   -0.203429   -0.321279
     53          6           0       10.234250   -0.701625   -1.073923
     54          6           0       10.170761   -2.147752   -1.412692
     55          6           0       11.420530   -0.379353   -0.055364
     56          6           0       12.767044   -0.524205   -0.663041
     57          6           0       13.979586   -0.001046    0.250465
     58          6           0       15.411279   -0.267574   -0.358702
     59          6           0       15.715877   -1.790190   -0.599539
     60          6           0       16.441563    0.500378    0.426206
     61          6           0       17.765788    0.560962   -0.083341
     62          6           0       18.800089    1.317918    0.652091
     63          6           0       20.307433    1.371035    0.124689
     64          6           0       20.455807    2.276170   -1.159024
     65          6           0       21.154881    2.023406    1.240134
     66          1           0       -4.211060    3.430192    1.645971
     67          1           0      -10.098173    3.789711   -0.635188
     68          1           0      -10.145929   -2.547248   -0.981337
     69          1           0       -3.061881   -0.854418    2.195965
     70          1           0       -2.200135    1.606583    1.307983
     71          1           0       -2.012632    1.069056    3.579361
     72          1           0       -3.141565    2.371988    3.384023
     73          1           0       -3.725564    0.756758    3.834637
     74          1           0       -1.714016   -1.579565   -0.300016
     75          1           0       -2.047966    0.040984   -0.800312
     76          1           0       -0.333266    0.608734    1.134513
     77          1           0       -0.290204   -1.127356    1.497886
     78          1           0       -5.715451    6.705073    0.706319
     79          1           0       -5.806316    6.187296    2.279529
     80          1           0       -4.400885    5.470225    1.235253
     81          1           0       -9.233334    6.026384   -0.482786
     82          1           0       -8.827486    8.040232    0.491431
     83          1           0       -7.625522    7.356727    1.624468
     84          1           0      -12.069434    3.173559   -2.453359
     85          1           0      -13.199759    1.897418   -1.732147
     86          1           0      -12.226985    3.046846   -0.507536
     87          1           0      -12.675051   -1.737680   -1.336637
     88          1           0      -13.333275   -0.383410   -1.571615
     89          1           0      -13.269709   -1.323072   -3.670221
     90          1           0      -12.241484    0.095331   -3.890282
     91          1           0      -11.496332   -1.411663   -3.481884
     92          1           0       -8.928306   -4.759397   -2.095518
     93          1           0       -7.910845   -5.596987   -0.847762
     94          1           0       -9.345443   -4.927443   -0.231358
     95          1           0       -3.463777   -3.450888   -0.360066
     96          1           0       -1.577091   -4.295838    3.522021
     97          1           0       -2.970528   -5.428094    3.654202
     98          1           0       -1.612281   -6.029117    2.860982
     99          1           0        2.654837   -1.834835   -1.344901
    100          1           0        2.399937   -0.066035   -2.023201
    101          1           0        4.320082   -1.060535    0.246260
    102          1           0        3.981737    1.168247   -2.694719
    103          1           0        5.241235    2.501564   -1.925848
    104          1           0        6.008888    1.117591   -2.918520
    105          1           0        6.583735    1.444889   -0.129553
    106          1           0        6.450804   -0.116618    0.637218
    107          1           0        7.221502   -1.282833   -1.310509
    108          1           0        7.721729    0.185219   -1.991566
    109          1           0        9.265698    0.770774   -0.067386
    110          1           0        8.919949   -0.817350    0.635270
    111          1           0       10.332199    0.058290   -1.891291
    112          1           0        9.289139   -2.389398   -2.174831
    113          1           0       10.911507   -2.396240   -1.877542
    114          1           0        9.978527   -2.758128   -0.413785
    115          1           0       11.350926    0.853063    0.156272
    116          1           0       11.300142   -0.764344    1.055341
    117          1           0       13.025304   -1.603618   -0.896528
    118          1           0       12.807906    0.263840   -1.640849
    119          1           0       13.931351    0.886512    0.551394
    120          1           0       14.082479   -0.672161    1.163058
    121          1           0       15.500423    0.261304   -1.388128
    122          1           0       15.860413   -2.321521    0.463221
    123          1           0       14.852631   -2.389548   -1.095857
    124          1           0       16.572138   -1.897738   -1.084113
    125          1           0       16.044213    1.456455    0.660516
    126          1           0       16.558964   -0.085455    1.339681
    127          1           0       18.117836   -0.573125   -0.497822
    128          1           0       17.807204    0.961894   -1.050283
    129          1           0       18.341773    2.259884    0.586731
    130          1           0       18.903351    0.825073    1.689665
    131          1           0       20.654864    0.249980   -0.298430
    132          1           0       19.954494    3.287877   -1.011444
    133          1           0       21.541594    2.402732   -1.257389
    134          1           0       20.035399    1.695431   -1.948707
    135          1           0       21.003873    1.320028    1.972786
    136          1           0       22.324522    2.127041    0.897712
    137          1           0       20.878527    2.947811    1.524692
 ---------------------------------------------------------------------

 SCF Done:  E(RCAM-B3LYP) =  -2932.60227209     A.U. after   16 cycles

 Excitation energies and oscillator strengths:

 Excited State   1:      Singlet-A      2.0605 eV  601.73 nm  f=0.2783  <S**2>=0.000
     240 -> 243       -0.18749
     241 -> 242        0.67195
 This state for optimization and/or second-order correction.
 Total Energy, E(TD-HF/TD-KS) =  -2932.52655107
 Copying the excited state density for this state as the 1-particle RhoCI density.

 The electronic state is 1-A.
 Alpha  occ. eigenvalues --  -46.83734 -19.26108 -19.26042 -19.20028 -19.18630
 Alpha  occ. eigenvalues --  -19.18552 -14.41348 -14.39665 -14.39042 -14.38746
 Alpha  occ. eigenvalues --  -10.39037 -10.38121 -10.33572 -10.33208 -10.31315
 Alpha  occ. eigenvalues --  -10.30349 -10.30318 -10.30170 -10.29908 -10.29738
 Alpha  occ. eigenvalues --  -10.29058 -10.28952 -10.28696 -10.28597 -10.28314
 Alpha  occ. eigenvalues --  -10.27949 -10.27890 -10.27716 -10.27554 -10.27521
 Alpha  occ. eigenvalues --  -10.27505 -10.27462 -10.27461 -10.27437 -10.27311
 Alpha  occ. eigenvalues --  -10.27225 -10.27142 -10.27074 -10.26972 -10.26953
 Alpha  occ. eigenvalues --  -10.26712 -10.26697 -10.26558 -10.26540 -10.26248
 Alpha  occ. eigenvalues --  -10.26227 -10.26049 -10.25789 -10.25744 -10.25711
 Alpha  occ. eigenvalues --  -10.25691 -10.25596 -10.25350 -10.25298 -10.24823
 Alpha  occ. eigenvalues --  -10.24769 -10.24700 -10.24587 -10.24564 -10.24457
 Alpha  occ. eigenvalues --  -10.24445 -10.24245 -10.24223 -10.23957 -10.23726
 Alpha  occ. eigenvalues --   -3.12817  -1.87524  -1.87071  -1.86982  -1.19800
 Alpha  occ. eigenvalues --   -1.18882  -1.10752  -1.07467  -1.06420  -1.04637
 Alpha  occ. eigenvalues --   -1.03447  -1.03153  -1.00316  -0.91588  -0.91532
 Alpha  occ. eigenvalues --   -0.91299  -0.90702  -0.90031  -0.89532  -0.89006
 Alpha  occ. eigenvalues --   -0.88284  -0.87909  -0.87352  -0.87008  -0.86488
 Alpha  occ. eigenvalues --   -0.85293  -0.84626  -0.84158  -0.84051  -0.83556
 Alpha  occ. eigenvalues --   -0.81968  -0.81762  -0.81490  -0.80587  -0.78403
 Alpha  occ. eigenvalues --   -0.77985  -0.77207  -0.76763  -0.76102  -0.76049
 Alpha  occ. eigenvalues --   -0.75844  -0.75184  -0.74807  -0.74259  -0.72915
 Alpha  occ. eigenvalues --   -0.71046  -0.70473  -0.69904  -0.69286  -0.68827
 Alpha  occ. eigenvalues --   -0.68303  -0.66392  -0.65474  -0.64943  -0.64669
 Alpha  occ. eigenvalues --   -0.63709  -0.62813  -0.62515  -0.62286  -0.62127
 Alpha  occ. eigenvalues --   -0.61489  -0.61440  -0.60867  -0.60681  -0.59941
 Alpha  occ. eigenvalues --   -0.59329  -0.58295  -0.57425  -0.57159  -0.57111
 Alpha  occ. eigenvalues --   -0.56752  -0.56003  -0.55869  -0.55862  -0.55361
 Alpha  occ. eigenvalues --   -0.54868  -0.54729  -0.54155  -0.53734  -0.53626
 Alpha  occ. eigenvalues --   -0.53291  -0.52842  -0.52712  -0.52542  -0.52021
 Alpha  occ. eigenvalues --   -0.51588  -0.51320  -0.51190  -0.50804  -0.50565
 Alpha  occ. eigenvalues --   -0.50267  -0.50175  -0.50060  -0.49759  -0.49641
 Alpha  occ. eigenvalues --   -0.49519  -0.49142  -0.48990  -0.48726  -0.48446
 Alpha  occ. eigenvalues --   -0.48252  -0.47938  -0.47879  -0.47687  -0.47575
 Alpha  occ. eigenvalues --   -0.47468  -0.47078  -0.46876  -0.46633  -0.46369
 Alpha  occ. eigenvalues --   -0.45819  -0.45630  -0.45425  -0.45223  -0.45064
 Alpha  occ. eigenvalues --   -0.44778  -0.44659  -0.44528  -0.44294  -0.44217
 Alpha  occ. eigenvalues --   -0.44072  -0.43828  -0.43727  -0.43263  -0.43019
 Alpha  occ. eigenvalues --   -0.42978  -0.42856  -0.42481  -0.42418  -0.42283
 Alpha  occ. eigenvalues --   -0.42185  -0.41774  -0.41578  -0.41445  -0.41234
 Alpha  occ. eigenvalues --   -0.41138  -0.41076  -0.40489  -0.40372  -0.40065
 Alpha  occ. eigenvalues --   -0.39842  -0.39767  -0.39523  -0.39364  -0.39144
 Alpha  occ. eigenvalues --   -0.38730  -0.38302  -0.38263  -0.38073  -0.37331
 Alpha  occ. eigenvalues --   -0.37200  -0.37060  -0.36825  -0.36462  -0.36210
 Alpha  occ. eigenvalues --   -0.36156  -0.36096  -0.35889  -0.35385  -0.35233
 Alpha  occ. eigenvalues --   -0.35224  -0.34892  -0.34838  -0.34072  -0.33262
 Alpha  occ. eigenvalues --   -0.33067  -0.32554  -0.31630  -0.30482  -0.30244
 Alpha  occ. eigenvalues --   -0.29173  -0.28864  -0.27995  -0.27381  -0.23500
 Alpha  occ. eigenvalues --   -0.21298
 Alpha virt. eigenvalues --   -0.06735  -0.02361   0.02242   0.03735   0.04317
 Alpha virt. eigenvalues --    0.04494   0.06108   0.06942   0.07422   0.07671
 Alpha virt. eigenvalues --    0.09330   0.10862   0.11073   0.11413   0.11679

 Mulliken charges:
               1
     1  Mg   0.814642
     2  C    0.064060
     3  C   -0.158242
     4  C   -0.189656
     5  C   -0.160910
     6  N   -0.641402
     7  C    0.231540
     8  C   -0.123530
     9  C   -0.181935
    10  C    0.381040
    11  C   -0.337845
    12  C   -0.170307
    13  C   -0.270953
    14  C    0.596274
    15  O   -0.525936
    16  O   -0.452665
    17  N   -0.755301
    18  C    0.401518
    19  C   -0.025360
    20  C    0.031379
    21  C    0.290057
    22  C   -0.374961
    23  C   -0.043204
    24  C   -0.226525
    25  N   -0.681309
    26  C    0.293792
    27  C   -0.007778
    28  C    0.028167
    29  C    0.301653
    30  C   -0.352365
    31  C   -0.247938
    32  C   -0.292590
    33  N   -0.711382
    34  C    0.272646
    35  C   -0.038927
    36  C    0.113489
    37  C    0.275200
    38  C   -0.349361
    39  C    0.278759
    40  O   -0.465558
    41  C   -0.293816
    42  C    0.637140
    43  O   -0.506604
    44  O   -0.428018
    45  C   -0.081251
    46  C    0.004243
    47  C   -0.123503
    48  C    0.128831
    49  C   -0.342617
    50  C   -0.211592
    51  C   -0.190549
    52  C   -0.152400
    53  C   -0.070738
    54  C   -0.265692
    55  C   -0.162388
    56  C   -0.160514
    57  C   -0.157213
    58  C   -0.068493
    59  C   -0.303120
    60  C   -0.148019
    61  C   -0.183115
    62  C   -0.152698
    63  C   -0.071273
    64  C   -0.302010
    65  C   -0.288674
    66  H    0.050537
    67  H    0.077076
    68  H    0.077257
    69  H    0.154684
    70  H    0.110916
    71  H    0.114981
    72  H    0.110346
    73  H    0.117543
    74  H    0.139182
    75  H    0.107425
    76  H    0.129328
    77  H    0.121454
    78  H    0.138863
    79  H    0.118994
    80  H    0.096563
    81  H    0.074876
    82  H    0.101712
    83  H    0.088683
    84  H    0.110414
    85  H    0.125175
    86  H    0.131853
    87  H    0.102043
    88  H    0.106094
    89  H    0.102248
    90  H    0.096538
    91  H    0.121854
    92  H    0.084750
    93  H    0.148821
    94  H    0.135711
    95  H    0.157946
    96  H    0.107879
    97  H    0.135841
    98  H    0.122729
    99  H    0.140916
   100  H    0.145205
   101  H    0.100939
   102  H    0.107709
   103  H    0.112702
   104  H    0.094559
   105  H    0.100222
   106  H    0.106450
   107  H    0.078235
   108  H    0.083589
   109  H    0.094655
   110  H    0.073200
   111  H    0.087802
   112  H    0.082342
   113  H    0.114198
   114  H    0.088678
   115  H    0.052329
   116  H    0.087238
   117  H    0.094072
   118  H    0.066043
   119  H    0.091063
   120  H    0.079251
   121  H    0.061535
   122  H    0.075257
   123  H    0.095274
   124  H    0.121179
   125  H    0.090298
   126  H    0.088248
   127  H    0.041272
   128  H    0.093270
   129  H    0.099153
   130  H    0.075418
   131  H    0.063619
   132  H    0.089875
   133  H    0.100991
   134  H    0.106359
   135  H    0.111531
   136  H    0.071262
   137  H    0.119555
 Sum of Mulliken charges =   0.00000

 Dipole moment (field-independent basis, Debye):
    X=              2.4431    Y=              6.0107    Z=             -0.1197  Tot=              6.4894
 Quadrupole moment (field-independent basis, Debye-Ang):
   XX=           -335.6324   YY=           -391.6140   ZZ=           -399.4165
   XY=            -26.3970   XZ=             16.1107   YZ=             -1.4442

 Normal termination of Gaussian 09 at Fri Jul  5 23:45:04 2019.
