 Gaussian 16, Revision A.03,
 Gaussian 16:  ES64L-G16RevA.03 25-Dec-2016

 ----------------------------------------------------------------------
 # td=(NStates=1) iop(3/107=0140000000,3/108=0140000000) CAM-B3LYP/6-31
 G(d,p)
 ----------------------------------------------------------------------

 --
 TD
 --
 Symbolic Z-matrix:
 Charge =  0 Multiplicity = 1

                         Standard orientation:
 ---------------------------------------------------------------------
 Center     Atomic      Atomic             Coordinates (Angstroms)
 Number     Number       Type             X           Y           Z
 ---------------------------------------------------------------------
      1         12           0       -7.209840    0.556866    0.158260
      2          6           0       -4.743989   -2.061444    0.408388
      3          6           0       -4.794831    2.823902    1.218557
      4          6           0       -9.383619    3.193100   -0.496594
      5          6           0       -9.599195   -1.713096   -0.909420
      6          7           0       -5.137258    0.313150    0.837861
      7          6           0       -4.324801   -0.800583    0.868218
      8          6           0       -2.888709   -0.426823    1.241875
      9          6           0       -2.951349    1.050417    1.645993
     10          6           0       -4.354001    1.468524    1.288404
     11          6           0       -2.893880    1.225419    3.208612
     12          6           0       -1.954332   -0.640388    0.135551
     13          6           0       -0.493963   -0.549221    0.541166
     14          6           0        0.541901   -0.538596   -0.656688
     15          8           0        0.225352   -0.896211   -1.760979
     16          8           0        1.755577   -0.446857   -0.201927
     17          7           0       -7.123649    2.573499    0.345753
     18          6           0       -6.071362    3.332619    0.822754
     19          6           0       -6.358948    4.699751    0.888374
     20          6           0       -7.720938    4.843135    0.542990
     21          6           0       -8.162524    3.417588    0.073179
     22          6           0       -5.571404    5.802490    1.412384
     23          6           0       -8.506750    6.036255    0.213473
     24          6           0       -8.334781    7.232943    0.807298
     25          7           0       -9.153807    0.698407   -0.486561
     26          6           0       -9.849863    1.893638   -0.777407
     27          6           0      -11.125306    1.562723   -1.403429
     28          6           0      -11.265205    0.179555   -1.402904
     29          6           0       -9.991772   -0.309731   -0.905421
     30          6           0      -12.277950    2.592727   -1.636060
     31          6           0      -12.345795   -0.686705   -1.916506
     32          6           0      -12.057426   -1.280450   -3.334638
     33          7           0       -7.160374   -1.320367   -0.331707
     34          6           0       -8.262527   -2.236433   -0.572611
     35          6           0       -7.850572   -3.584864   -0.508055
     36          6           0       -6.570935   -3.532021   -0.090793
     37          6           0       -6.150293   -2.178722    0.095724
     38          6           0       -8.578471   -4.870729   -0.792883
     39          6           0       -5.327793   -4.377712    0.247280
     40          8           0       -5.232376   -5.555534    0.119605
     41          6           0       -4.139383   -3.395177    0.525563
     42          6           0       -3.561395   -3.700106    1.891316
     43          8           0       -3.706162   -3.055352    2.958948
     44          8           0       -2.887080   -4.821476    1.832032
     45          6           0       -2.314618   -5.312170    3.011362
     46          6           0        2.781356   -0.644202   -1.250445
     47          6           0        4.074265   -0.322589   -0.651259
     48          6           0        5.144520    0.409997   -1.028297
     49          6           0        5.103402    1.318158   -2.179031
     50          6           0        6.381507    0.447225   -0.142055
     51          6           0        7.685862   -0.035797   -0.867800
     52          6           0        8.893063   -0.040168   -0.030546
     53          6           0       10.130992   -0.512756   -0.793672
     54          6           0        9.956642   -1.979088   -1.129516
     55          6           0       11.340408   -0.249451   -0.006540
     56          6           0       12.685700   -0.449197   -0.699796
     57          6           0       13.896421   -0.151862    0.191621
     58          6           0       15.307373   -0.245824   -0.481580
     59          6           0       15.698391   -1.768859   -0.813866
     60          6           0       16.419361    0.404054    0.413796
     61          6           0       17.799998    0.579346   -0.273345
     62          6           0       18.781367    1.305059    0.631070
     63          6           0       20.260948    1.305034    0.111223
     64          6           0       20.458550    2.108815   -1.149782
     65          6           0       21.227916    1.718579    1.287067
     66          1           0       -4.071544    3.594606    1.587119
     67          1           0      -10.204235    3.830283   -0.378854
     68          1           0      -10.236775   -2.552940   -0.970306
     69          1           0       -2.630253   -0.949306    1.964818
     70          1           0       -2.156980    1.763096    1.301673
     71          1           0       -2.003536    0.635916    3.568388
     72          1           0       -2.849072    2.233536    3.624836
     73          1           0       -3.779095    0.562147    3.632969
     74          1           0       -2.160836   -1.553179   -0.428431
     75          1           0       -2.177542    0.113115   -0.611979
     76          1           0       -0.168836    0.428867    1.064791
     77          1           0       -0.285043   -1.328208    1.249564
     78          1           0       -5.534452    6.792217    0.767218
     79          1           0       -5.903688    6.053035    2.448067
     80          1           0       -4.412309    5.544028    1.473297
     81          1           0       -9.431225    5.744471   -0.188377
     82          1           0       -9.317441    7.856939    0.551936
     83          1           0       -7.683066    7.516910    1.639476
     84          1           0      -11.929649    3.251836   -2.432662
     85          1           0      -13.428366    2.221616   -1.777136
     86          1           0      -12.410304    3.260021   -0.658477
     87          1           0      -12.486236   -1.481274   -1.087136
     88          1           0      -13.292924   -0.206481   -1.943284
     89          1           0      -12.949862   -1.850984   -3.567369
     90          1           0      -12.017954   -0.531886   -4.143803
     91          1           0      -11.147095   -1.818582   -3.377469
     92          1           0       -9.000088   -4.807248   -1.884022
     93          1           0       -7.835957   -5.651965   -0.487953
     94          1           0       -9.388608   -5.063727   -0.283123
     95          1           0       -3.466686   -3.334562   -0.304556
     96          1           0       -1.327130   -4.773962    3.387805
     97          1           0       -3.089078   -5.477490    3.706866
     98          1           0       -2.067303   -6.341928    2.819176
     99          1           0        2.684015   -1.733449   -1.411597
    100          1           0        2.864173   -0.046385   -2.225392
    101          1           0        4.248864   -0.886605    0.350928
    102          1           0        3.954320    1.385778   -2.510812
    103          1           0        5.364277    2.397299   -1.980296
    104          1           0        5.788965    0.992641   -3.165356
    105          1           0        6.774836    1.377051    0.236563
    106          1           0        6.623071   -0.235861    0.753183
    107          1           0        7.520013   -0.952928   -1.528608
    108          1           0        7.757836    0.806450   -1.609919
    109          1           0        8.961991    0.994518    0.285951
    110          1           0        8.700777   -0.636324    0.836826
    111          1           0       10.178992    0.051050   -1.793699
    112          1           0        9.341399   -2.134168   -1.928670
    113          1           0       11.008686   -2.353347   -1.552649
    114          1           0        9.743742   -2.434242   -0.296608
    115          1           0       11.332182    0.940194    0.190679
    116          1           0       11.404895   -0.742529    0.847791
    117          1           0       12.975232   -1.562595   -1.076921
    118          1           0       12.770637    0.173479   -1.666904
    119          1           0       13.841159    0.911635    0.745278
    120          1           0       13.858874   -0.758617    1.193955
    121          1           0       15.413157    0.106791   -1.494083
    122          1           0       15.711303   -2.322831    0.068378
    123          1           0       15.063692   -2.055644   -1.603659
    124          1           0       16.688178   -1.495692   -1.182220
    125          1           0       16.104987    1.379202    0.578432
    126          1           0       16.568336   -0.321223    1.178727
    127          1           0       18.393981   -0.356749   -0.383077
    128          1           0       17.741979    1.222355   -1.203164
    129          1           0       18.520068    2.426482    0.484278
    130          1           0       18.694223    0.861471    1.600763
    131          1           0       20.595621    0.225579   -0.065755
    132          1           0       20.056741    3.400024   -1.077927
    133          1           0       21.633015    2.230843   -1.374041
    134          1           0       20.184842    1.544435   -2.031935
    135          1           0       20.901225    1.108469    2.128917
    136          1           0       22.254869    1.532944    1.064050
    137          1           0       21.171632    2.812109    1.383740
 ---------------------------------------------------------------------

 SCF Done:  E(RCAM-B3LYP) =  -2933.53894954     A.U. after   16 cycles

 Excitation energies and oscillator strengths:

 Excited State   1:      Singlet-A      1.9437 eV  637.86 nm  f=0.2197  <S**2>=0.000
     240 -> 242       -0.12028
     240 -> 243        0.24652
     241 -> 242        0.64412
 This state for optimization and/or second-order correction.
 Total Energy, E(TD-HF/TD-DFT) =  -2933.46751816
 Copying the excited state density for this state as the 1-particle RhoCI density.

 The electronic state is 1-A.
 Alpha  occ. eigenvalues --  -46.78762 -19.23391 -19.23263 -19.16983 -19.16584
 Alpha  occ. eigenvalues --  -19.16094 -14.37390 -14.35418 -14.34861 -14.34819
 Alpha  occ. eigenvalues --  -10.35222 -10.34187 -10.31154 -10.28713 -10.27316
 Alpha  occ. eigenvalues --  -10.26869 -10.26044 -10.25470 -10.25104 -10.24857
 Alpha  occ. eigenvalues --  -10.24694 -10.24594 -10.24462 -10.24362 -10.24266
 Alpha  occ. eigenvalues --  -10.24185 -10.23679 -10.23483 -10.23356 -10.23336
 Alpha  occ. eigenvalues --  -10.23313 -10.23277 -10.22728 -10.22682 -10.22516
 Alpha  occ. eigenvalues --  -10.22423 -10.22416 -10.22355 -10.22339 -10.22311
 Alpha  occ. eigenvalues --  -10.22301 -10.22219 -10.22195 -10.22087 -10.22034
 Alpha  occ. eigenvalues --  -10.21951 -10.21870 -10.21644 -10.21561 -10.21362
 Alpha  occ. eigenvalues --  -10.21256 -10.21223 -10.21141 -10.21086 -10.20854
 Alpha  occ. eigenvalues --  -10.20741 -10.20638 -10.20565 -10.20440 -10.20411
 Alpha  occ. eigenvalues --  -10.20332 -10.20112 -10.19797 -10.18863 -10.18794
 Alpha  occ. eigenvalues --   -3.07499  -1.82420  -1.81954  -1.81941  -1.15180
 Alpha  occ. eigenvalues --   -1.14927  -1.08284  -1.04782  -1.03031  -0.97716
 Alpha  occ. eigenvalues --   -0.96778  -0.96107  -0.95316  -0.87409  -0.87286
 Alpha  occ. eigenvalues --   -0.86003  -0.85453  -0.84693  -0.83948  -0.83406
 Alpha  occ. eigenvalues --   -0.82787  -0.82404  -0.82273  -0.81588  -0.81182
 Alpha  occ. eigenvalues --   -0.80215  -0.79425  -0.78889  -0.78101  -0.77483
 Alpha  occ. eigenvalues --   -0.76894  -0.76567  -0.75882  -0.74797  -0.73270
 Alpha  occ. eigenvalues --   -0.72323  -0.71725  -0.71710  -0.71164  -0.70777
 Alpha  occ. eigenvalues --   -0.70586  -0.70068  -0.69943  -0.68695  -0.67990
 Alpha  occ. eigenvalues --   -0.66739  -0.65607  -0.65184  -0.63945  -0.63391
 Alpha  occ. eigenvalues --   -0.62035  -0.61354  -0.61075  -0.60686  -0.60106
 Alpha  occ. eigenvalues --   -0.59987  -0.59721  -0.59163  -0.57996  -0.57628
 Alpha  occ. eigenvalues --   -0.56797  -0.56301  -0.55902  -0.55603  -0.55266
 Alpha  occ. eigenvalues --   -0.54800  -0.54438  -0.53830  -0.53554  -0.52831
 Alpha  occ. eigenvalues --   -0.52557  -0.51964  -0.51871  -0.51628  -0.51080
 Alpha  occ. eigenvalues --   -0.50768  -0.50591  -0.50401  -0.50210  -0.49502
 Alpha  occ. eigenvalues --   -0.49350  -0.49271  -0.48782  -0.48139  -0.48048
 Alpha  occ. eigenvalues --   -0.47783  -0.47510  -0.47143  -0.47025  -0.46608
 Alpha  occ. eigenvalues --   -0.46337  -0.46221  -0.46147  -0.45951  -0.45517
 Alpha  occ. eigenvalues --   -0.45435  -0.45330  -0.45031  -0.44900  -0.44530
 Alpha  occ. eigenvalues --   -0.44346  -0.44143  -0.44106  -0.44005  -0.43503
 Alpha  occ. eigenvalues --   -0.43125  -0.43052  -0.42907  -0.42814  -0.42424
 Alpha  occ. eigenvalues --   -0.42081  -0.42057  -0.41878  -0.41825  -0.41579
 Alpha  occ. eigenvalues --   -0.41478  -0.41288  -0.41120  -0.40774  -0.40733
 Alpha  occ. eigenvalues --   -0.40663  -0.40518  -0.40324  -0.39821  -0.39456
 Alpha  occ. eigenvalues --   -0.39376  -0.39348  -0.39232  -0.39012  -0.38960
 Alpha  occ. eigenvalues --   -0.38637  -0.38501  -0.37988  -0.37804  -0.37630
 Alpha  occ. eigenvalues --   -0.37414  -0.37375  -0.37082  -0.36999  -0.36810
 Alpha  occ. eigenvalues --   -0.36522  -0.36269  -0.36073  -0.36036  -0.35902
 Alpha  occ. eigenvalues --   -0.35526  -0.35504  -0.35476  -0.35435  -0.35010
 Alpha  occ. eigenvalues --   -0.34927  -0.34057  -0.33812  -0.33659  -0.33618
 Alpha  occ. eigenvalues --   -0.33318  -0.33094  -0.33048  -0.32536  -0.32334
 Alpha  occ. eigenvalues --   -0.32290  -0.31981  -0.31358  -0.30590  -0.30550
 Alpha  occ. eigenvalues --   -0.30409  -0.29659  -0.28973  -0.27850  -0.27338
 Alpha  occ. eigenvalues --   -0.27015  -0.26737  -0.25214  -0.24510  -0.21106
 Alpha  occ. eigenvalues --   -0.19489
 Alpha virt. eigenvalues --   -0.06869  -0.04138   0.00284   0.01894   0.02264
 Alpha virt. eigenvalues --    0.03551   0.04497   0.05101   0.05200   0.06208
 Alpha virt. eigenvalues --    0.06818   0.09084   0.09361   0.09772   0.09910

 Mulliken charges:
               1
     1  Mg   0.824589
     2  C   -0.017161
     3  C   -0.197893
     4  C   -0.154583
     5  C   -0.159774
     6  N   -0.619189
     7  C    0.309730
     8  C   -0.082766
     9  C   -0.160727
    10  C    0.323373
    11  C   -0.318956
    12  C   -0.170469
    13  C   -0.269224
    14  C    0.583839
    15  O   -0.462276
    16  O   -0.435441
    17  N   -0.725595
    18  C    0.344644
    19  C    0.060467
    20  C   -0.024056
    21  C    0.308707
    22  C   -0.395629
    23  C   -0.062480
    24  C   -0.236606
    25  N   -0.671474
    26  C    0.255581
    27  C   -0.005905
    28  C    0.059953
    29  C    0.281040
    30  C   -0.370485
    31  C   -0.242015
    32  C   -0.312639
    33  N   -0.712301
    34  C    0.204396
    35  C    0.040104
    36  C   -0.019951
    37  C    0.300468
    38  C   -0.374300
    39  C    0.373417
    40  O   -0.425666
    41  C   -0.277122
    42  C    0.599273
    43  O   -0.498081
    44  O   -0.396100
    45  C   -0.088277
    46  C    0.011679
    47  C   -0.138936
    48  C    0.174497
    49  C   -0.376053
    50  C   -0.236431
    51  C   -0.198135
    52  C   -0.164570
    53  C   -0.060371
    54  C   -0.297190
    55  C   -0.137924
    56  C   -0.173535
    57  C   -0.155860
    58  C   -0.087353
    59  C   -0.322582
    60  C   -0.153413
    61  C   -0.197437
    62  C   -0.157452
    63  C   -0.056999
    64  C   -0.286916
    65  C   -0.306076
    66  H    0.073622
    67  H    0.096816
    68  H    0.085813
    69  H    0.100778
    70  H    0.105841
    71  H    0.100119
    72  H    0.114647
    73  H    0.116617
    74  H    0.109196
    75  H    0.116499
    76  H    0.109450
    77  H    0.134168
    78  H    0.117230
    79  H    0.131544
    80  H    0.090793
    81  H    0.093688
    82  H    0.081540
    83  H    0.116131
    84  H    0.129891
    85  H    0.102563
    86  H    0.102014
    87  H    0.095130
    88  H    0.102860
    89  H    0.104641
    90  H    0.111942
    91  H    0.120102
    92  H    0.110440
    93  H    0.143716
    94  H    0.137478
    95  H    0.177938
    96  H    0.114058
    97  H    0.138157
    98  H    0.126911
    99  H    0.138348
   100  H    0.118616
   101  H    0.081198
   102  H    0.097369
   103  H    0.126735
   104  H    0.104675
   105  H    0.105491
   106  H    0.090249
   107  H    0.087808
   108  H    0.083318
   109  H    0.090171
   110  H    0.090181
   111  H    0.071075
   112  H    0.115251
   113  H    0.076571
   114  H    0.110277
   115  H    0.072136
   116  H    0.097746
   117  H    0.073973
   118  H    0.084334
   119  H    0.056306
   120  H    0.072021
   121  H    0.084867
   122  H    0.104419
   123  H    0.107813
   124  H    0.105037
   125  H    0.102996
   126  H    0.095678
   127  H    0.089937
   128  H    0.089629
   129  H    0.075969
   130  H    0.089292
   131  H    0.074682
   132  H    0.057017
   133  H    0.081822
   134  H    0.119608
   135  H    0.099523
   136  H    0.102880
   137  H    0.101271
 Sum of Mulliken charges =  -0.00000

 Dipole moment (field-independent basis, Debye):
    X=              2.9907    Y=              2.5375    Z=              1.4281  Tot=              4.1741
 Quadrupole moment (field-independent basis, Debye-Ang):
   XX=           -339.8355   YY=           -390.9825   ZZ=           -399.1017
   XY=            -14.6455   XZ=              0.8140   YZ=             -3.7779

 Normal termination of Gaussian 16 at Sat Sep  7 20:46:08 2019.
