 Gaussian 09, Revision D.01,
 Gaussian 09:  ES64L-G09RevD.01 24-Apr-2013

 -------------------------------------
 # td=(NStates=1) CAM-B3LYP/6-31G(d,p)
 -------------------------------------

 --
 TD
 --
 Symbolic Z-matrix:
 Charge =  0 Multiplicity = 1

                         Standard orientation:
 ---------------------------------------------------------------------
 Center     Atomic      Atomic             Coordinates (Angstroms)
 Number     Number       Type             X           Y           Z
 ---------------------------------------------------------------------
      1         12           0       -7.109576    0.603843   -0.000791
      2          6           0       -4.866981   -1.977861    0.509106
      3          6           0       -4.897303    2.794652    1.250533
      4          6           0       -9.335241    3.112035   -0.397195
      5          6           0       -9.529558   -1.767375   -0.971110
      6          7           0       -5.111965    0.357249    0.636736
      7          6           0       -4.388520   -0.752346    0.841866
      8          6           0       -2.957665   -0.416089    1.162081
      9          6           0       -3.033104    1.024389    1.709658
     10          6           0       -4.405337    1.498205    1.170691
     11          6           0       -2.880316    1.213475    3.162879
     12          6           0       -1.869138   -0.732653    0.106898
     13          6           0       -0.439066   -0.554410    0.544740
     14          6           0        0.470848   -0.646170   -0.523358
     15          8           0        0.265514   -0.836259   -1.703277
     16          8           0        1.775333   -0.418502   -0.097788
     17          7           0       -7.051117    2.640474    0.301219
     18          6           0       -6.065409    3.352131    0.693426
     19          6           0       -6.405176    4.762137    0.838923
     20          6           0       -7.692453    4.832627    0.480571
     21          6           0       -8.103665    3.484341    0.027209
     22          6           0       -5.519093    5.895914    1.343009
     23          6           0       -8.590604    5.993490    0.226000
     24          6           0       -8.488528    7.196846    0.846723
     25          7           0       -9.119878    0.661628   -0.493587
     26          6           0       -9.807600    1.772277   -0.643529
     27          6           0      -11.155806    1.534429   -1.247686
     28          6           0      -11.238198    0.131724   -1.423780
     29          6           0       -9.929025   -0.331642   -0.977052
     30          6           0      -12.170020    2.507032   -1.477535
     31          6           0      -12.404178   -0.684735   -1.799528
     32          6           0      -12.415875   -0.955973   -3.324965
     33          7           0       -7.245863   -1.437957   -0.197028
     34          6           0       -8.277493   -2.239603   -0.548144
     35          6           0       -7.878279   -3.605938   -0.522495
     36          6           0       -6.483602   -3.571614   -0.134175
     37          6           0       -6.152064   -2.180800    0.060823
     38          6           0       -8.654970   -4.943837   -0.727313
     39          6           0       -5.353682   -4.402045    0.235830
     40          8           0       -5.284178   -5.646107    0.279871
     41          6           0       -4.285829   -3.352023    0.552364
     42          6           0       -3.573391   -3.733471    1.873181
     43          8           0       -3.831627   -3.301144    2.960009
     44          8           0       -2.573794   -4.631569    1.678458
     45          6           0       -1.890731   -5.151953    2.939045
     46          6           0        2.769863   -0.599513   -1.208125
     47          6           0        4.089313   -0.346895   -0.501659
     48          6           0        5.114362    0.443037   -0.841529
     49          6           0        4.998366    1.221744   -2.166589
     50          6           0        6.468674    0.421068   -0.116082
     51          6           0        7.679103    0.017893   -0.916464
     52          6           0        8.913093    0.004178   -0.047170
     53          6           0       10.178998   -0.497029   -0.839887
     54          6           0       10.090762   -1.890807   -1.353811
     55          6           0       11.431418   -0.319489    0.072758
     56          6           0       12.800412   -0.560371   -0.620620
     57          6           0       14.010442   -0.172549    0.233567
     58          6           0       15.279670   -0.275516   -0.561723
     59          6           0       15.733239   -1.686706   -0.902410
     60          6           0       16.429604    0.317997    0.369751
     61          6           0       17.767507    0.483363   -0.278923
     62          6           0       18.802712    1.238044    0.723671
     63          6           0       20.225809    1.317375    0.091582
     64          6           0       20.347730    2.164204   -1.114463
     65          6           0       21.129580    1.942797    1.264416
     66          1           0       -4.183000    3.252423    1.808637
     67          1           0      -10.122538    3.880363   -0.342871
     68          1           0      -10.226372   -2.464810   -1.278479
     69          1           0       -2.602308   -1.048477    2.006228
     70          1           0       -2.323894    1.687251    1.114963
     71          1           0       -2.033071    0.798106    3.726783
     72          1           0       -2.971188    2.308927    3.583814
     73          1           0       -3.618147    0.511734    3.774879
     74          1           0       -1.946246   -1.639818   -0.558362
     75          1           0       -1.947901   -0.040930   -0.747300
     76          1           0       -0.112273    0.338534    1.135256
     77          1           0       -0.336528   -1.435470    1.197448
     78          1           0       -5.817310    6.895387    0.815678
     79          1           0       -5.395741    5.903526    2.396288
     80          1           0       -4.408633    5.747436    1.046357
     81          1           0       -9.374806    5.874496   -0.586265
     82          1           0       -9.259856    7.992931    0.406114
     83          1           0       -8.036349    7.520247    1.800752
     84          1           0      -12.044782    3.260495   -2.100694
     85          1           0      -13.145858    2.013315   -1.794179
     86          1           0      -12.265752    3.047229   -0.484725
     87          1           0      -12.138523   -1.750949   -1.028001
     88          1           0      -13.308988   -0.201777   -1.562630
     89          1           0      -13.247794   -1.769422   -3.732040
     90          1           0      -12.604982    0.099614   -3.842263
     91          1           0      -11.499250   -1.473229   -3.886208
     92          1           0       -8.858763   -5.108626   -1.851431
     93          1           0       -8.129552   -5.774820   -0.414915
     94          1           0       -9.512075   -5.217364    0.019467
     95          1           0       -3.339210   -3.627468   -0.196305
     96          1           0       -1.372559   -4.482647    3.502859
     97          1           0       -2.890919   -5.601595    3.519589
     98          1           0       -1.194520   -5.977200    2.568364
     99          1           0        2.695145   -1.535270   -1.682392
    100          1           0        2.605158    0.195395   -1.864121
    101          1           0        4.374257   -0.988757    0.332499
    102          1           0        3.932859    1.466409   -2.517797
    103          1           0        5.520679    2.208494   -2.047042
    104          1           0        5.416057    0.761862   -3.237136
    105          1           0        6.595374    1.551446    0.362340
    106          1           0        6.287316   -0.146117    0.929392
    107          1           0        7.460267   -1.102668   -1.413790
    108          1           0        7.836275    0.880124   -1.672787
    109          1           0        9.004679    0.999042    0.247895
    110          1           0        8.993292   -0.683035    0.738381
    111          1           0       10.277576    0.422713   -1.619375
    112          1           0        9.230642   -2.132154   -1.979029
    113          1           0       10.930322   -2.198157   -1.891299
    114          1           0        9.975698   -2.642933   -0.566015
    115          1           0       11.382252    0.725469    0.282903
    116          1           0       11.246216   -0.872184    0.930755
    117          1           0       12.997387   -1.534422   -1.004845
    118          1           0       12.870359    0.178642   -1.442656
    119          1           0       13.921102    0.751737    0.497344
    120          1           0       13.810761   -0.906419    1.255220
    121          1           0       15.219950    0.293561   -1.447467
    122          1           0       15.697637   -2.244737    0.009338
    123          1           0       14.971122   -2.245660   -1.633934
    124          1           0       16.564725   -1.774356   -1.699678
    125          1           0       15.942812    1.365619    0.638077
    126          1           0       16.361203   -0.358417    1.206685
    127          1           0       18.091880   -0.654915   -0.624663
    128          1           0       17.636542    1.060375   -1.190152
    129          1           0       18.415307    2.358198    1.010856
    130          1           0       18.855156    0.864461    1.709303
    131          1           0       20.609531    0.277383   -0.110836
    132          1           0       19.871733    3.058043   -1.051150
    133          1           0       21.426596    2.483176   -1.459259
    134          1           0       20.007902    1.615542   -2.034393
    135          1           0       21.103544    1.542602    2.096833
    136          1           0       21.992453    2.197377    0.942123
    137          1           0       20.782996    3.149950    1.459103
 ---------------------------------------------------------------------

 SCF Done:  E(RCAM-B3LYP) =  -2932.64798380     A.U. after   15 cycles

 Excitation energies and oscillator strengths:

 Excited State   1:      Singlet-A      2.0983 eV  590.89 nm  f=0.2490  <S**2>=0.000
     240 -> 242       -0.12866
     240 -> 243        0.24242
     241 -> 242        0.63885
 This state for optimization and/or second-order correction.
 Total Energy, E(TD-HF/TD-KS) =  -2932.57087447
 Copying the excited state density for this state as the 1-particle RhoCI density.

 The electronic state is 1-A.
 Alpha  occ. eigenvalues --  -46.85053 -19.25474 -19.24798 -19.20863 -19.20123
 Alpha  occ. eigenvalues --  -19.19302 -14.41303 -14.40297 -14.40025 -14.38741
 Alpha  occ. eigenvalues --  -10.38496 -10.38447 -10.34284 -10.32676 -10.31481
 Alpha  occ. eigenvalues --  -10.30996 -10.30502 -10.30487 -10.29286 -10.29253
 Alpha  occ. eigenvalues --  -10.29173 -10.29058 -10.28796 -10.28794 -10.28759
 Alpha  occ. eigenvalues --  -10.28662 -10.28616 -10.28583 -10.28374 -10.28359
 Alpha  occ. eigenvalues --  -10.28120 -10.28019 -10.27937 -10.27703 -10.27631
 Alpha  occ. eigenvalues --  -10.27620 -10.27609 -10.27548 -10.27507 -10.27460
 Alpha  occ. eigenvalues --  -10.27341 -10.27176 -10.27175 -10.26551 -10.26494
 Alpha  occ. eigenvalues --  -10.26392 -10.26368 -10.26268 -10.26195 -10.26144
 Alpha  occ. eigenvalues --  -10.25768 -10.25528 -10.25431 -10.25422 -10.25190
 Alpha  occ. eigenvalues --  -10.25079 -10.24980 -10.24722 -10.24539 -10.24354
 Alpha  occ. eigenvalues --  -10.24252 -10.24200 -10.24069 -10.23788 -10.22697
 Alpha  occ. eigenvalues --   -3.13996  -1.88714  -1.88231  -1.88166  -1.16678
 Alpha  occ. eigenvalues --   -1.16668  -1.08363  -1.07804  -1.07689  -1.06600
 Alpha  occ. eigenvalues --   -1.04312  -1.03720  -1.02535  -0.93030  -0.91320
 Alpha  occ. eigenvalues --   -0.91106  -0.90338  -0.89874  -0.89289  -0.89084
 Alpha  occ. eigenvalues --   -0.88809  -0.88129  -0.87953  -0.86552  -0.85766
 Alpha  occ. eigenvalues --   -0.85108  -0.84242  -0.83226  -0.83076  -0.82924
 Alpha  occ. eigenvalues --   -0.81271  -0.80589  -0.80171  -0.79609  -0.78237
 Alpha  occ. eigenvalues --   -0.78005  -0.77219  -0.76837  -0.76289  -0.75679
 Alpha  occ. eigenvalues --   -0.75401  -0.75211  -0.74207  -0.73503  -0.72709
 Alpha  occ. eigenvalues --   -0.71904  -0.71103  -0.69352  -0.68993  -0.68092
 Alpha  occ. eigenvalues --   -0.67620  -0.65731  -0.65449  -0.64964  -0.64224
 Alpha  occ. eigenvalues --   -0.63956  -0.63178  -0.62903  -0.62228  -0.61941
 Alpha  occ. eigenvalues --   -0.61531  -0.60513  -0.60241  -0.59872  -0.59043
 Alpha  occ. eigenvalues --   -0.58863  -0.58133  -0.57861  -0.57333  -0.56352
 Alpha  occ. eigenvalues --   -0.56292  -0.55727  -0.55255  -0.54892  -0.54841
 Alpha  occ. eigenvalues --   -0.54460  -0.54243  -0.53157  -0.53098  -0.52971
 Alpha  occ. eigenvalues --   -0.52816  -0.52507  -0.52249  -0.51869  -0.51618
 Alpha  occ. eigenvalues --   -0.51580  -0.51238  -0.50980  -0.50684  -0.50526
 Alpha  occ. eigenvalues --   -0.50308  -0.49955  -0.49827  -0.49646  -0.49364
 Alpha  occ. eigenvalues --   -0.49121  -0.48968  -0.48575  -0.48483  -0.48170
 Alpha  occ. eigenvalues --   -0.47880  -0.47750  -0.47627  -0.47615  -0.47387
 Alpha  occ. eigenvalues --   -0.46796  -0.46513  -0.46335  -0.46090  -0.45950
 Alpha  occ. eigenvalues --   -0.45782  -0.45582  -0.45326  -0.45184  -0.44992
 Alpha  occ. eigenvalues --   -0.44788  -0.44716  -0.44460  -0.44359  -0.44167
 Alpha  occ. eigenvalues --   -0.43834  -0.43725  -0.43576  -0.43467  -0.43095
 Alpha  occ. eigenvalues --   -0.43025  -0.42772  -0.42615  -0.42326  -0.42241
 Alpha  occ. eigenvalues --   -0.42012  -0.41849  -0.41358  -0.41241  -0.41194
 Alpha  occ. eigenvalues --   -0.40787  -0.40572  -0.40327  -0.40192  -0.39962
 Alpha  occ. eigenvalues --   -0.39916  -0.39606  -0.39592  -0.39228  -0.38911
 Alpha  occ. eigenvalues --   -0.38774  -0.38544  -0.38458  -0.38015  -0.37799
 Alpha  occ. eigenvalues --   -0.37633  -0.37251  -0.37109  -0.36833  -0.36468
 Alpha  occ. eigenvalues --   -0.36355  -0.36088  -0.36018  -0.35861  -0.35598
 Alpha  occ. eigenvalues --   -0.35390  -0.35217  -0.34527  -0.33914  -0.33516
 Alpha  occ. eigenvalues --   -0.32954  -0.32010  -0.31949  -0.30806  -0.29691
 Alpha  occ. eigenvalues --   -0.29474  -0.28858  -0.28605  -0.27767  -0.23339
 Alpha  occ. eigenvalues --   -0.21248
 Alpha virt. eigenvalues --   -0.06211  -0.03284   0.01590   0.03642   0.05320
 Alpha virt. eigenvalues --    0.05901   0.06118   0.06373   0.06919   0.07581
 Alpha virt. eigenvalues --    0.08167   0.10188   0.10743   0.11312   0.11668

 Mulliken charges:
               1
     1  Mg   0.822332
     2  C    0.122594
     3  C   -0.175598
     4  C   -0.175649
     5  C   -0.143605
     6  N   -0.659413
     7  C    0.341966
     8  C   -0.152465
     9  C   -0.128194
    10  C    0.288820
    11  C   -0.322506
    12  C   -0.204298
    13  C   -0.269302
    14  C    0.631014
    15  O   -0.484419
    16  O   -0.526126
    17  N   -0.670176
    18  C    0.333792
    19  C    0.020653
    20  C    0.025341
    21  C    0.282357
    22  C   -0.377030
    23  C   -0.088987
    24  C   -0.246646
    25  N   -0.659535
    26  C    0.296130
    27  C    0.015829
    28  C    0.061567
    29  C    0.232361
    30  C   -0.387036
    31  C   -0.216420
    32  C   -0.290137
    33  N   -0.749360
    34  C    0.288583
    35  C    0.009183
    36  C   -0.021737
    37  C    0.284361
    38  C   -0.377682
    39  C    0.395904
    40  O   -0.493209
    41  C   -0.350944
    42  C    0.620882
    43  O   -0.470653
    44  O   -0.483698
    45  C   -0.080837
    46  C    0.040751
    47  C   -0.130800
    48  C    0.132767
    49  C   -0.368884
    50  C   -0.221879
    51  C   -0.154246
    52  C   -0.155070
    53  C   -0.072413
    54  C   -0.318620
    55  C   -0.168612
    56  C   -0.187271
    57  C   -0.139000
    58  C   -0.078367
    59  C   -0.307085
    60  C   -0.157821
    61  C   -0.174197
    62  C   -0.160678
    63  C   -0.053800
    64  C   -0.304291
    65  C   -0.282107
    66  H    0.060770
    67  H    0.093167
    68  H    0.096477
    69  H    0.115128
    70  H    0.112058
    71  H    0.118883
    72  H    0.104726
    73  H    0.113935
    74  H    0.135169
    75  H    0.116831
    76  H    0.149893
    77  H    0.151884
    78  H    0.122752
    79  H    0.135590
    80  H    0.103781
    81  H    0.109584
    82  H    0.082708
    83  H    0.124496
    84  H    0.134669
    85  H    0.100439
    86  H    0.112976
    87  H    0.066543
    88  H    0.121312
    89  H    0.080387
    90  H    0.098131
    91  H    0.106411
    92  H    0.117742
    93  H    0.160690
    94  H    0.110028
    95  H    0.147227
    96  H    0.144621
    97  H    0.129644
    98  H    0.128982
    99  H    0.142436
   100  H    0.124502
   101  H    0.081475
   102  H    0.109154
   103  H    0.103020
   104  H    0.097059
   105  H    0.071629
   106  H    0.085869
   107  H    0.082230
   108  H    0.099485
   109  H    0.097587
   110  H    0.095729
   111  H    0.051575
   112  H    0.100667
   113  H    0.118487
   114  H    0.097136
   115  H    0.090016
   116  H    0.090064
   117  H    0.101858
   118  H    0.081749
   119  H    0.099307
   120  H    0.047658
   121  H    0.088670
   122  H    0.113740
   123  H    0.068505
   124  H    0.104669
   125  H    0.063735
   126  H    0.095983
   127  H    0.072905
   128  H    0.101875
   129  H    0.067508
   130  H    0.103321
   131  H    0.088083
   132  H    0.117400
   133  H    0.082112
   134  H    0.094959
   135  H    0.105777
   136  H    0.108137
   137  H    0.039914
 Sum of Mulliken charges =   0.00000

 Dipole moment (field-independent basis, Debye):
    X=              1.6714    Y=              5.3740    Z=              0.4614  Tot=              5.6468
 Quadrupole moment (field-independent basis, Debye-Ang):
   XX=           -349.2071   YY=           -394.0522   ZZ=           -394.8150
   XY=            -37.5892   XZ=              8.4806   YZ=              0.8576

 Normal termination of Gaussian 09 at Thu Jul  4 12:31:34 2019.
