 Gaussian 16, Revision A.03,
 Gaussian 16:  ES64L-G16RevA.03 25-Dec-2016

 ----------------------------------------------------------------------
 # td=(NStates=1) iop(3/107=0140000000,3/108=0140000000) CAM-B3LYP/6-31
 G(d,p)
 ----------------------------------------------------------------------

 --
 TD
 --
 Symbolic Z-matrix:
 Charge =  0 Multiplicity = 1

                         Standard orientation:
 ---------------------------------------------------------------------
 Center     Atomic      Atomic             Coordinates (Angstroms)
 Number     Number       Type             X           Y           Z
 ---------------------------------------------------------------------
      1         12           0       -7.111596    0.578206    0.116611
      2          6           0       -4.849502   -1.987355    0.446497
      3          6           0       -4.859605    2.717478    1.245874
      4          6           0       -9.228039    3.168879   -0.563467
      5          6           0       -9.561512   -1.670160   -0.867608
      6          7           0       -5.160360    0.386703    0.781396
      7          6           0       -4.331638   -0.720247    0.807309
      8          6           0       -2.919946   -0.436901    1.256772
      9          6           0       -3.035483    1.005834    1.740706
     10          6           0       -4.368124    1.385581    1.264661
     11          6           0       -2.997064    1.170293    3.299873
     12          6           0       -1.848437   -0.600532    0.164753
     13          6           0       -0.503718   -0.601124    0.578064
     14          6           0        0.542878   -0.801435   -0.417672
     15          8           0        0.178457   -1.028435   -1.557789
     16          8           0        1.689157   -0.557713   -0.003826
     17          7           0       -7.042356    2.600983    0.217753
     18          6           0       -5.983616    3.360613    0.875085
     19          6           0       -6.307676    4.746101    0.769266
     20          6           0       -7.634689    4.868821    0.288545
     21          6           0       -8.021236    3.519567   -0.074897
     22          6           0       -5.512984    5.913709    1.231844
     23          6           0       -8.499349    6.003980    0.116259
     24          6           0       -8.392268    7.254790    0.619617
     25          7           0       -9.052890    0.780025   -0.611632
     26          6           0       -9.759952    1.970107   -0.728212
     27          6           0      -11.088232    1.543441   -1.217818
     28          6           0      -11.227273    0.236151   -1.258954
     29          6           0       -9.910100   -0.325235   -0.857611
     30          6           0      -12.144393    2.584881   -1.485440
     31          6           0      -12.351738   -0.648399   -1.666796
     32          6           0      -12.094265   -1.140055   -3.175763
     33          7           0       -7.281606   -1.434020   -0.224223
     34          6           0       -8.307839   -2.170533   -0.531018
     35          6           0       -7.890500   -3.662423   -0.500108
     36          6           0       -6.565118   -3.563739   -0.175711
     37          6           0       -6.195213   -2.210560    0.023475
     38          6           0       -8.662627   -4.801836   -0.885053
     39          6           0       -5.415550   -4.376099    0.140456
     40          8           0       -5.204231   -5.553131    0.018954
     41          6           0       -4.166832   -3.325411    0.536240
     42          6           0       -3.608153   -3.682997    1.857717
     43          8           0       -3.874794   -3.141906    2.902134
     44          8           0       -2.801927   -4.796320    1.682940
     45          6           0       -2.188138   -5.270635    2.906190
     46          6           0        2.691422   -0.621418   -1.109208
     47          6           0        4.126304   -0.437816   -0.402060
     48          6           0        5.094720    0.303791   -0.901820
     49          6           0        5.033398    1.231687   -2.081545
     50          6           0        6.369379    0.465643   -0.069277
     51          6           0        7.627735   -0.059689   -0.879116
     52          6           0        8.945401   -0.144249   -0.072204
     53          6           0       10.193992   -0.575275   -0.879649
     54          6           0        9.940664   -2.080728   -1.233427
     55          6           0       11.434371   -0.290524   -0.030030
     56          6           0       12.762637   -0.549315   -0.709702
     57          6           0       13.956589   -0.250250    0.149470
     58          6           0       15.334141   -0.219568   -0.547817
     59          6           0       15.731728   -1.612900   -1.199353
     60          6           0       16.443015    0.340627    0.376169
     61          6           0       17.856456    0.713898   -0.295391
     62          6           0       18.818271    1.370118    0.699906
     63          6           0       20.279556    1.354299    0.222601
     64          6           0       20.304400    2.126418   -1.159980
     65          6           0       21.075236    2.013590    1.364602
     66          1           0       -4.080821    3.353196    1.594382
     67          1           0       -9.839351    3.904192   -0.777102
     68          1           0      -10.204589   -2.336642   -1.286938
     69          1           0       -2.719006   -1.206064    1.921234
     70          1           0       -2.272929    1.537819    1.140998
     71          1           0       -1.951391    0.819454    3.863982
     72          1           0       -3.043284    2.119268    3.835902
     73          1           0       -3.827632    0.499763    3.767992
     74          1           0       -2.071617   -1.514922   -0.428123
     75          1           0       -1.982422    0.241739   -0.493070
     76          1           0       -0.326420    0.325540    1.076658
     77          1           0       -0.616782   -1.417938    1.460148
     78          1           0       -5.378401    6.685627    0.417646
     79          1           0       -5.813708    6.496293    2.239105
     80          1           0       -4.453418    5.529053    1.465026
     81          1           0       -9.230788    5.804957   -0.711970
     82          1           0       -9.346956    8.118456    0.473556
     83          1           0       -7.646809    7.523345    1.474083
     84          1           0      -11.919021    3.236547   -2.382276
     85          1           0      -13.121737    2.244823   -1.657327
     86          1           0      -12.244709    3.283182   -0.689769
     87          1           0      -12.337180   -1.483582   -0.901570
     88          1           0      -13.341176   -0.120923   -1.347920
     89          1           0      -13.057467   -1.798840   -3.612000
     90          1           0      -12.121887   -0.317872   -3.818319
     91          1           0      -11.169534   -1.636585   -3.332242
     92          1           0       -8.945329   -4.640732   -1.991074
     93          1           0       -8.019877   -5.629325   -0.940291
     94          1           0       -9.513122   -4.792389   -0.309404
     95          1           0       -3.410929   -3.597151   -0.181839
     96          1           0       -1.620626   -4.345889    3.339300
     97          1           0       -2.910001   -5.583289    3.555604
     98          1           0       -1.762443   -6.000076    2.517246
     99          1           0        2.593043   -1.543923   -1.643742
    100          1           0        2.299269    0.018140   -1.886927
    101          1           0        4.217775   -1.085325    0.452463
    102          1           0        4.140598    1.149028   -2.454285
    103          1           0        5.229316    2.247112   -1.503589
    104          1           0        5.621913    1.036094   -2.852499
    105          1           0        6.641290    1.556599    0.040264
    106          1           0        6.447030    0.058717    1.044932
    107          1           0        7.528824   -1.131044   -1.324389
    108          1           0        7.798081    0.539808   -1.669526
    109          1           0        9.146948    0.860286    0.252133
    110          1           0        8.720116   -0.773746    0.848605
    111          1           0       10.121632    0.050608   -1.699678
    112          1           0        9.092154   -2.275291   -2.021362
    113          1           0       11.002961   -2.606002   -1.473947
    114          1           0        9.528894   -2.608500   -0.207275
    115          1           0       11.448520    0.590640    0.622684
    116          1           0       11.522043   -0.950872    0.645650
    117          1           0       12.888896   -1.486776   -1.088910
    118          1           0       12.728532    0.122014   -1.605525
    119          1           0       14.102598    0.795558    0.365229
    120          1           0       13.946251   -1.100991    0.850975
    121          1           0       15.217026    0.598977   -1.433060
    122          1           0       15.664781   -2.305044   -0.272138
    123          1           0       14.904887   -1.984306   -1.822945
    124          1           0       16.651430   -1.897994   -1.738839
    125          1           0       16.049697    1.337607    0.826494
    126          1           0       16.743934   -0.324385    1.233393
    127          1           0       18.373217   -0.378152   -0.304164
    128          1           0       17.716442    1.367295   -1.169895
    129          1           0       18.468681    2.480748    1.013188
    130          1           0       18.784036    0.720683    1.572481
    131          1           0       20.403948    0.320741   -0.033194
    132          1           0       20.073537    3.205736   -1.095949
    133          1           0       21.331241    1.947511   -1.694054
    134          1           0       19.743467    1.563590   -1.897427
    135          1           0       20.919990    1.465335    2.263174
    136          1           0       22.164411    2.139001    1.112840
    137          1           0       20.741405    3.127889    1.554056
 ---------------------------------------------------------------------

 SCF Done:  E(RCAM-B3LYP) =  -2933.51591263     A.U. after   16 cycles

 Excitation energies and oscillator strengths:

 Excited State   1:      Singlet-A      1.9442 eV  637.70 nm  f=0.2912  <S**2>=0.000
     240 -> 243       -0.22203
     241 -> 242        0.67087
 This state for optimization and/or second-order correction.
 Total Energy, E(TD-HF/TD-DFT) =  -2933.44446290
 Copying the excited state density for this state as the 1-particle RhoCI density.

 The electronic state is 1-A.
 Alpha  occ. eigenvalues --  -46.79279 -19.23856 -19.21014 -19.16719 -19.16592
 Alpha  occ. eigenvalues --  -19.15144 -14.38247 -14.35104 -14.34212 -14.34212
 Alpha  occ. eigenvalues --  -10.33695 -10.33404 -10.30624 -10.28437 -10.26167
 Alpha  occ. eigenvalues --  -10.26070 -10.24757 -10.24618 -10.24602 -10.24358
 Alpha  occ. eigenvalues --  -10.24353 -10.24283 -10.23956 -10.23774 -10.23705
 Alpha  occ. eigenvalues --  -10.23694 -10.23682 -10.23468 -10.23459 -10.23456
 Alpha  occ. eigenvalues --  -10.23401 -10.23378 -10.23084 -10.23009 -10.23007
 Alpha  occ. eigenvalues --  -10.22982 -10.22754 -10.22496 -10.22342 -10.22147
 Alpha  occ. eigenvalues --  -10.22067 -10.22001 -10.21963 -10.21945 -10.21779
 Alpha  occ. eigenvalues --  -10.21742 -10.21258 -10.21130 -10.21079 -10.21041
 Alpha  occ. eigenvalues --  -10.20987 -10.20962 -10.20955 -10.20947 -10.20894
 Alpha  occ. eigenvalues --  -10.20753 -10.20727 -10.20717 -10.20706 -10.20702
 Alpha  occ. eigenvalues --  -10.20635 -10.20361 -10.19684 -10.19407 -10.19101
 Alpha  occ. eigenvalues --   -3.07917  -1.82860  -1.82372  -1.82335  -1.17106
 Alpha  occ. eigenvalues --   -1.11693  -1.06998  -1.04365  -1.04356  -1.00094
 Alpha  occ. eigenvalues --   -0.99260  -0.96447  -0.95111  -0.87272  -0.86917
 Alpha  occ. eigenvalues --   -0.86487  -0.85863  -0.84483  -0.84325  -0.83470
 Alpha  occ. eigenvalues --   -0.83255  -0.83162  -0.82524  -0.82332  -0.81732
 Alpha  occ. eigenvalues --   -0.80250  -0.79713  -0.78782  -0.78090  -0.77353
 Alpha  occ. eigenvalues --   -0.76941  -0.76905  -0.76004  -0.75136  -0.74097
 Alpha  occ. eigenvalues --   -0.72816  -0.72523  -0.71884  -0.71360  -0.70874
 Alpha  occ. eigenvalues --   -0.70601  -0.70109  -0.69363  -0.69058  -0.67684
 Alpha  occ. eigenvalues --   -0.67451  -0.66226  -0.65647  -0.64986  -0.64459
 Alpha  occ. eigenvalues --   -0.62739  -0.62439  -0.61633  -0.60874  -0.60693
 Alpha  occ. eigenvalues --   -0.60356  -0.60079  -0.59849  -0.57589  -0.57475
 Alpha  occ. eigenvalues --   -0.57239  -0.56864  -0.56251  -0.55755  -0.54982
 Alpha  occ. eigenvalues --   -0.54534  -0.54298  -0.53845  -0.53651  -0.53442
 Alpha  occ. eigenvalues --   -0.52566  -0.52035  -0.51953  -0.51724  -0.50881
 Alpha  occ. eigenvalues --   -0.50734  -0.50629  -0.50568  -0.50066  -0.49958
 Alpha  occ. eigenvalues --   -0.49539  -0.49234  -0.48630  -0.48208  -0.48121
 Alpha  occ. eigenvalues --   -0.47970  -0.47486  -0.47306  -0.47115  -0.46821
 Alpha  occ. eigenvalues --   -0.46529  -0.46240  -0.45892  -0.45882  -0.45778
 Alpha  occ. eigenvalues --   -0.45583  -0.45243  -0.45053  -0.44808  -0.44599
 Alpha  occ. eigenvalues --   -0.44423  -0.44360  -0.44073  -0.43746  -0.43534
 Alpha  occ. eigenvalues --   -0.43415  -0.43049  -0.42853  -0.42529  -0.42269
 Alpha  occ. eigenvalues --   -0.42068  -0.41893  -0.41866  -0.41780  -0.41743
 Alpha  occ. eigenvalues --   -0.41509  -0.41456  -0.41135  -0.41058  -0.41005
 Alpha  occ. eigenvalues --   -0.40739  -0.40577  -0.40265  -0.40037  -0.39953
 Alpha  occ. eigenvalues --   -0.39544  -0.39424  -0.39320  -0.39256  -0.38923
 Alpha  occ. eigenvalues --   -0.38844  -0.38669  -0.38445  -0.38346  -0.38216
 Alpha  occ. eigenvalues --   -0.37786  -0.37616  -0.37547  -0.37381  -0.37111
 Alpha  occ. eigenvalues --   -0.36778  -0.36645  -0.36600  -0.36433  -0.35950
 Alpha  occ. eigenvalues --   -0.35756  -0.35423  -0.35362  -0.35185  -0.35020
 Alpha  occ. eigenvalues --   -0.34356  -0.34288  -0.34130  -0.33800  -0.33640
 Alpha  occ. eigenvalues --   -0.33596  -0.33208  -0.32932  -0.32893  -0.32486
 Alpha  occ. eigenvalues --   -0.32361  -0.32290  -0.32246  -0.31108  -0.30456
 Alpha  occ. eigenvalues --   -0.29858  -0.29621  -0.29331  -0.28143  -0.27935
 Alpha  occ. eigenvalues --   -0.27130  -0.26528  -0.25612  -0.24190  -0.21446
 Alpha  occ. eigenvalues --   -0.19150
 Alpha virt. eigenvalues --   -0.06769  -0.03261  -0.00126   0.01811   0.03868
 Alpha virt. eigenvalues --    0.04166   0.04593   0.05229   0.05475   0.05994
 Alpha virt. eigenvalues --    0.06783   0.09171   0.09624   0.09826   0.09844

 Mulliken charges:
               1
     1  Mg   0.800317
     2  C    0.073063
     3  C   -0.218362
     4  C   -0.143735
     5  C   -0.167620
     6  N   -0.623090
     7  C    0.309201
     8  C   -0.134669
     9  C   -0.140513
    10  C    0.333059
    11  C   -0.308628
    12  C   -0.169163
    13  C   -0.262575
    14  C    0.628749
    15  O   -0.507352
    16  O   -0.416867
    17  N   -0.722683
    18  C    0.320465
    19  C    0.025477
    20  C    0.049878
    21  C    0.335061
    22  C   -0.382409
    23  C   -0.066534
    24  C   -0.255772
    25  N   -0.703279
    26  C    0.331268
    27  C    0.026550
    28  C    0.045520
    29  C    0.289556
    30  C   -0.392541
    31  C   -0.249331
    32  C   -0.306675
    33  N   -0.724989
    34  C    0.287865
    35  C   -0.007720
    36  C    0.055290
    37  C    0.279299
    38  C   -0.376119
    39  C    0.337251
    40  O   -0.437840
    41  C   -0.344063
    42  C    0.623477
    43  O   -0.475439
    44  O   -0.477482
    45  C   -0.058136
    46  C   -0.040001
    47  C   -0.138828
    48  C    0.128815
    49  C   -0.329354
    50  C   -0.234338
    51  C   -0.179640
    52  C   -0.184808
    53  C   -0.040643
    54  C   -0.302068
    55  C   -0.161732
    56  C   -0.192294
    57  C   -0.156757
    58  C   -0.060494
    59  C   -0.325653
    60  C   -0.167419
    61  C   -0.176859
    62  C   -0.151201
    63  C   -0.041531
    64  C   -0.318752
    65  C   -0.302090
    66  H    0.058164
    67  H    0.042238
    68  H    0.073524
    69  H    0.117833
    70  H    0.114094
    71  H    0.078129
    72  H    0.124865
    73  H    0.126749
    74  H    0.117180
    75  H    0.099896
    76  H    0.121679
    77  H    0.096781
    78  H    0.129209
    79  H    0.106423
    80  H    0.096077
    81  H    0.097589
    82  H    0.077855
    83  H    0.099459
    84  H    0.107803
    85  H    0.111665
    86  H    0.124260
    87  H    0.105511
    88  H    0.096105
    89  H    0.073137
    90  H    0.130631
    91  H    0.126245
    92  H    0.118937
    93  H    0.150213
    94  H    0.136740
    95  H    0.157568
    96  H    0.111334
    97  H    0.136829
    98  H    0.126318
    99  H    0.147445
   100  H    0.139426
   101  H    0.104494
   102  H    0.113087
   103  H    0.109619
   104  H    0.134741
   105  H    0.095467
   106  H    0.088631
   107  H    0.076505
   108  H    0.104250
   109  H    0.082425
   110  H    0.080134
   111  H    0.092010
   112  H    0.106396
   113  H    0.083629
   114  H    0.082543
   115  H    0.089558
   116  H    0.104650
   117  H    0.100642
   118  H    0.073833
   119  H    0.100305
   120  H    0.090869
   121  H    0.058407
   122  H    0.079843
   123  H    0.102023
   124  H    0.110042
   125  H    0.072056
   126  H    0.082662
   127  H    0.074132
   128  H    0.103559
   129  H    0.061516
   130  H    0.083885
   131  H    0.088414
   132  H    0.105208
   133  H    0.075802
   134  H    0.113407
   135  H    0.110595
   136  H    0.094784
   137  H    0.089854
 Sum of Mulliken charges =  -0.00000

 Dipole moment (field-independent basis, Debye):
    X=              3.4559    Y=              2.6986    Z=              0.4839  Tot=              4.4113
 Quadrupole moment (field-independent basis, Debye-Ang):
   XX=           -356.6321   YY=           -397.6436   ZZ=           -394.7433
   XY=            -11.6022   XZ=              7.5997   YZ=             -1.5801

 Normal termination of Gaussian 16 at Tue Sep  3 14:39:56 2019.
