 Gaussian 16, Revision A.03,
 Gaussian 16:  ES64L-G16RevA.03 25-Dec-2016

 ----------------------------------------------------------------------
 # td=(NStates=1) iop(3/107=0140000000,3/108=0140000000) CAM-B3LYP/6-31
 G(d,p)
 ----------------------------------------------------------------------

 --
 TD
 --
 Symbolic Z-matrix:
 Charge =  0 Multiplicity = 1

                         Standard orientation:
 ---------------------------------------------------------------------
 Center     Atomic      Atomic             Coordinates (Angstroms)
 Number     Number       Type             X           Y           Z
 ---------------------------------------------------------------------
      1         12           0       -7.166934    0.580941    0.088836
      2          6           0       -4.769745   -1.930621    0.526824
      3          6           0       -4.846285    2.813833    1.214781
      4          6           0       -9.423424    3.040750   -0.395147
      5          6           0       -9.485574   -1.806655   -0.891810
      6          7           0       -5.145116    0.382045    0.779264
      7          6           0       -4.327641   -0.711924    0.855766
      8          6           0       -2.881114   -0.369392    1.181118
      9          6           0       -3.020553    1.121746    1.595980
     10          6           0       -4.457652    1.494750    1.082455
     11          6           0       -2.898628    1.386647    3.171248
     12          6           0       -1.931471   -0.462139    0.046277
     13          6           0       -0.479502   -0.355758    0.591452
     14          6           0        0.561406   -0.535251   -0.534994
     15          8           0        0.172721   -0.969129   -1.650029
     16          8           0        1.898132   -0.341212   -0.189886
     17          7           0       -7.101849    2.627319    0.350456
     18          6           0       -6.017428    3.360537    0.825537
     19          6           0       -6.437479    4.780058    0.763112
     20          6           0       -7.708929    4.849843    0.381942
     21          6           0       -8.234761    3.518668    0.093004
     22          6           0       -5.503416    5.900022    1.153353
     23          6           0       -8.607319    6.019625    0.022362
     24          6           0       -8.492759    7.287432    0.495041
     25          7           0       -9.140398    0.610498   -0.484708
     26          6           0       -9.961544    1.740734   -0.585258
     27          6           0      -11.245002    1.396627   -1.073426
     28          6           0      -11.287399    0.037222   -1.174017
     29          6           0       -9.973162   -0.438502   -0.918645
     30          6           0      -12.447701    2.350861   -1.294396
     31          6           0      -12.394164   -0.760550   -1.754384
     32          6           0      -12.169507   -1.018273   -3.268733
     33          7           0       -7.176320   -1.426322   -0.096657
     34          6           0       -8.237518   -2.305966   -0.389970
     35          6           0       -7.804251   -3.636139   -0.390667
     36          6           0       -6.449165   -3.629147   -0.031909
     37          6           0       -6.168625   -2.244308    0.158951
     38          6           0       -8.669061   -4.889366   -0.819718
     39          6           0       -5.199391   -4.419374    0.199457
     40          8           0       -5.034216   -5.567242    0.121584
     41          6           0       -4.112528   -3.361745    0.618153
     42          6           0       -3.484299   -3.777706    1.911231
     43          8           0       -3.777780   -3.199751    2.959442
     44          8           0       -2.515160   -4.611080    1.658123
     45          6           0       -1.982758   -5.176922    2.852122
     46          6           0        2.785342   -0.649257   -1.132313
     47          6           0        4.134927   -0.335369   -0.515797
     48          6           0        5.087078    0.319563   -1.012575
     49          6           0        5.042832    1.176404   -2.270709
     50          6           0        6.451838    0.428789   -0.295961
     51          6           0        7.661078   -0.144801   -1.023648
     52          6           0        8.995871   -0.145685   -0.169163
     53          6           0       10.138967   -0.497907   -0.933074
     54          6           0       10.115480   -1.873791   -1.563219
     55          6           0       11.341970   -0.280568    0.082715
     56          6           0       12.689327   -0.388940   -0.731925
     57          6           0       13.888257   -0.088628    0.152566
     58          6           0       15.333552   -0.094406   -0.612730
     59          6           0       15.679569   -1.650191   -1.012458
     60          6           0       16.319463    0.457990    0.427881
     61          6           0       17.823457    0.537266   -0.087936
     62          6           0       18.806228    1.261359    0.901022
     63          6           0       20.236627    1.235026    0.259047
     64          6           0       20.292504    2.112675   -1.062184
     65          6           0       21.184736    1.813957    1.345597
     66          1           0       -4.037716    3.411679    1.540545
     67          1           0      -10.183117    3.907119   -0.576941
     68          1           0      -10.274592   -2.681155   -0.870349
     69          1           0       -2.580083   -1.167152    1.987057
     70          1           0       -2.249916    1.705345    1.441769
     71          1           0       -2.071900    0.851065    3.558374
     72          1           0       -2.918254    2.398692    3.530088
     73          1           0       -3.705798    0.820403    3.760841
     74          1           0       -2.350218   -1.340205   -0.571582
     75          1           0       -2.097865    0.186969   -0.622614
     76          1           0       -0.179933    0.613365    0.926230
     77          1           0       -0.384747   -1.005698    1.456804
     78          1           0       -5.620960    6.813511    0.345436
     79          1           0       -5.734720    6.294510    2.219286
     80          1           0       -4.448829    5.527734    1.174696
     81          1           0       -9.385100    5.632511   -0.654902
     82          1           0       -9.153659    8.126275    0.187380
     83          1           0       -7.669811    7.340842    1.029958
     84          1           0      -12.287745    3.175968   -2.138889
     85          1           0      -13.556399    1.802524   -1.367806
     86          1           0      -12.596309    2.841521   -0.412527
     87          1           0      -12.544392   -1.648244   -1.056401
     88          1           0      -13.447319   -0.498044   -1.632750
     89          1           0      -12.785224   -1.944658   -3.964244
     90          1           0      -12.265503   -0.111898   -4.029771
     91          1           0      -11.191039   -1.514657   -3.290568
     92          1           0       -8.842205   -4.952328   -1.915516
     93          1           0       -7.920371   -5.831328   -0.749171
     94          1           0       -9.703521   -4.988667   -0.218419
     95          1           0       -3.344272   -3.447346   -0.294131
     96          1           0       -1.455471   -4.348332    3.397423
     97          1           0       -2.705706   -5.682847    3.627480
     98          1           0       -1.372435   -5.815047    2.460657
     99          1           0        2.941747   -1.856612   -1.173361
    100          1           0        2.732696   -0.150980   -2.080054
    101          1           0        4.134267   -1.082928    0.331154
    102          1           0        4.126963    1.045183   -2.827402
    103          1           0        5.441133    2.177915   -2.189267
    104          1           0        5.736399    0.571846   -2.899945
    105          1           0        6.354474    1.334239    0.211000
    106          1           0        6.011630   -0.009567    0.849780
    107          1           0        7.415606   -1.234742   -1.263741
    108          1           0        7.974144    0.332761   -1.929258
    109          1           0        9.185991    0.793388    0.235245
    110          1           0        8.964466   -0.720210    0.869667
    111          1           0       10.112982    0.149819   -1.725985
    112          1           0        9.124153   -1.882366   -2.261931
    113          1           0       11.052220   -2.029796   -2.169812
    114          1           0        9.969742   -2.726515   -0.746219
    115          1           0       11.264726    0.876174    0.555092
    116          1           0       11.437979   -1.135683    0.851211
    117          1           0       12.755212   -1.487154   -0.974966
    118          1           0       12.589776    0.092303   -1.597073
    119          1           0       13.842549    0.955724    0.394354
    120          1           0       14.109234   -0.517707    1.114842
    121          1           0       15.419480    0.432183   -1.527047
    122          1           0       15.413457   -2.173217   -0.142439
    123          1           0       14.892091   -2.044312   -1.670573
    124          1           0       16.669493   -1.724790   -1.487994
    125          1           0       15.861749    1.516347    0.788899
    126          1           0       16.187314   -0.118866    1.413826
    127          1           0       18.067072   -0.555612   -0.072170
    128          1           0       17.835058    0.982470   -0.988478
    129          1           0       18.390608    2.373577    1.178965
    130          1           0       18.701221    0.587273    1.818544
    131          1           0       20.363361    0.224415    0.092029
    132          1           0       19.695004    2.914220   -0.719104
    133          1           0       21.369526    2.232277   -1.474068
    134          1           0       19.719250    1.909573   -1.815089
    135          1           0       21.422067    1.149661    2.238864
    136          1           0       22.244043    1.928787    1.057475
    137          1           0       20.771129    2.801102    1.585826
 ---------------------------------------------------------------------

 SCF Done:  E(RCAM-B3LYP) =  -2933.42688853     A.U. after   15 cycles

 Excitation energies and oscillator strengths:

 Excited State   1:      Singlet-A      2.1657 eV  572.50 nm  f=0.1917  <S**2>=0.000
     240 -> 243        0.26413
     241 -> 242        0.65017
 This state for optimization and/or second-order correction.
 Total Energy, E(TD-HF/TD-DFT) =  -2933.34730205
 Copying the excited state density for this state as the 1-particle RhoCI density.

 The electronic state is 1-A.
 Alpha  occ. eigenvalues --  -46.79704 -19.23899 -19.23270 -19.17312 -19.16571
 Alpha  occ. eigenvalues --  -19.16527 -14.37357 -14.35305 -14.35018 -14.34858
 Alpha  occ. eigenvalues --  -10.35696 -10.34580 -10.30567 -10.27157 -10.26957
 Alpha  occ. eigenvalues --  -10.26791 -10.25595 -10.25397 -10.25338 -10.24985
 Alpha  occ. eigenvalues --  -10.24927 -10.24925 -10.24458 -10.24380 -10.24284
 Alpha  occ. eigenvalues --  -10.24187 -10.24077 -10.23934 -10.23919 -10.23441
 Alpha  occ. eigenvalues --  -10.23296 -10.23273 -10.23188 -10.23162 -10.23083
 Alpha  occ. eigenvalues --  -10.22763 -10.22674 -10.22604 -10.22597 -10.22521
 Alpha  occ. eigenvalues --  -10.22508 -10.22499 -10.22441 -10.22196 -10.21989
 Alpha  occ. eigenvalues --  -10.21897 -10.21699 -10.21669 -10.21546 -10.21525
 Alpha  occ. eigenvalues --  -10.21294 -10.21246 -10.21144 -10.21124 -10.20827
 Alpha  occ. eigenvalues --  -10.20779 -10.20464 -10.20426 -10.20416 -10.20329
 Alpha  occ. eigenvalues --  -10.20296 -10.20217 -10.19821 -10.19704 -10.19467
 Alpha  occ. eigenvalues --   -3.08242  -1.83190  -1.82714  -1.82643  -1.15605
 Alpha  occ. eigenvalues --   -1.14295  -1.09550  -1.04483  -1.03985  -0.99426
 Alpha  occ. eigenvalues --   -0.98405  -0.97007  -0.95729  -0.86766  -0.86349
 Alpha  occ. eigenvalues --   -0.85738  -0.85378  -0.84156  -0.83866  -0.83459
 Alpha  occ. eigenvalues --   -0.82708  -0.82464  -0.81902  -0.81447  -0.80658
 Alpha  occ. eigenvalues --   -0.79900  -0.79241  -0.78682  -0.78061  -0.77272
 Alpha  occ. eigenvalues --   -0.76674  -0.76278  -0.75514  -0.74681  -0.73516
 Alpha  occ. eigenvalues --   -0.72930  -0.71934  -0.71805  -0.71521  -0.71232
 Alpha  occ. eigenvalues --   -0.70223  -0.70022  -0.69748  -0.68390  -0.67693
 Alpha  occ. eigenvalues --   -0.67202  -0.66523  -0.65128  -0.64713  -0.63717
 Alpha  occ. eigenvalues --   -0.62765  -0.62593  -0.62118  -0.60819  -0.60597
 Alpha  occ. eigenvalues --   -0.59933  -0.59806  -0.59071  -0.58703  -0.58262
 Alpha  occ. eigenvalues --   -0.58057  -0.57174  -0.56745  -0.55966  -0.55163
 Alpha  occ. eigenvalues --   -0.54554  -0.54061  -0.53907  -0.53325  -0.52664
 Alpha  occ. eigenvalues --   -0.52226  -0.51935  -0.51500  -0.51319  -0.50852
 Alpha  occ. eigenvalues --   -0.50690  -0.50310  -0.50033  -0.49712  -0.49281
 Alpha  occ. eigenvalues --   -0.49153  -0.49014  -0.48534  -0.48111  -0.47821
 Alpha  occ. eigenvalues --   -0.47265  -0.47131  -0.46979  -0.46924  -0.46698
 Alpha  occ. eigenvalues --   -0.46158  -0.46101  -0.46017  -0.45869  -0.45694
 Alpha  occ. eigenvalues --   -0.45545  -0.45284  -0.45102  -0.44815  -0.44698
 Alpha  occ. eigenvalues --   -0.44369  -0.44147  -0.44066  -0.43821  -0.43360
 Alpha  occ. eigenvalues --   -0.43219  -0.43038  -0.42849  -0.42695  -0.42479
 Alpha  occ. eigenvalues --   -0.42359  -0.42107  -0.41924  -0.41771  -0.41514
 Alpha  occ. eigenvalues --   -0.41354  -0.41192  -0.40758  -0.40691  -0.40576
 Alpha  occ. eigenvalues --   -0.40262  -0.40163  -0.40022  -0.39765  -0.39694
 Alpha  occ. eigenvalues --   -0.39664  -0.39594  -0.39241  -0.39153  -0.38886
 Alpha  occ. eigenvalues --   -0.38721  -0.38598  -0.38457  -0.38192  -0.38038
 Alpha  occ. eigenvalues --   -0.37718  -0.37434  -0.37320  -0.37120  -0.36796
 Alpha  occ. eigenvalues --   -0.36744  -0.36131  -0.35925  -0.35805  -0.35627
 Alpha  occ. eigenvalues --   -0.35165  -0.34885  -0.34585  -0.34446  -0.34255
 Alpha  occ. eigenvalues --   -0.34227  -0.34071  -0.33762  -0.33578  -0.33514
 Alpha  occ. eigenvalues --   -0.33178  -0.33142  -0.33087  -0.32754  -0.32342
 Alpha  occ. eigenvalues --   -0.31900  -0.31698  -0.31547  -0.30685  -0.30324
 Alpha  occ. eigenvalues --   -0.30145  -0.29537  -0.29014  -0.28538  -0.27792
 Alpha  occ. eigenvalues --   -0.27222  -0.27034  -0.26005  -0.25250  -0.21840
 Alpha  occ. eigenvalues --   -0.20624
 Alpha virt. eigenvalues --   -0.06864  -0.04158   0.00583   0.01968   0.02528
 Alpha virt. eigenvalues --    0.03676   0.04708   0.05371   0.05741   0.06754
 Alpha virt. eigenvalues --    0.07360   0.08887   0.09622   0.09634   0.10004

 Mulliken charges:
               1
     1  Mg   0.808980
     2  C    0.059050
     3  C   -0.191829
     4  C   -0.191557
     5  C   -0.167845
     6  N   -0.651512
     7  C    0.290579
     8  C   -0.167064
     9  C   -0.126264
    10  C    0.370798
    11  C   -0.344360
    12  C   -0.119839
    13  C   -0.266614
    14  C    0.585521
    15  O   -0.462001
    16  O   -0.429927
    17  N   -0.728470
    18  C    0.359297
    19  C    0.013060
    20  C    0.034164
    21  C    0.285562
    22  C   -0.376830
    23  C   -0.059366
    24  C   -0.230398
    25  N   -0.674743
    26  C    0.285666
    27  C    0.055786
    28  C    0.028889
    29  C    0.269616
    30  C   -0.375010
    31  C   -0.248097
    32  C   -0.287072
    33  N   -0.696395
    34  C    0.250821
    35  C    0.005085
    36  C    0.025285
    37  C    0.275503
    38  C   -0.380634
    39  C    0.364001
    40  O   -0.416367
    41  C   -0.327523
    42  C    0.634565
    43  O   -0.490078
    44  O   -0.406237
    45  C   -0.087649
    46  C    0.017032
    47  C   -0.130522
    48  C    0.103128
    49  C   -0.362688
    50  C   -0.216653
    51  C   -0.190493
    52  C   -0.153422
    53  C   -0.040008
    54  C   -0.296149
    55  C   -0.176752
    56  C   -0.175155
    57  C   -0.186145
    58  C   -0.067936
    59  C   -0.325908
    60  C   -0.173827
    61  C   -0.183633
    62  C   -0.174811
    63  C   -0.051247
    64  C   -0.312116
    65  C   -0.303661
    66  H    0.070849
    67  H    0.074914
    68  H    0.092760
    69  H    0.107546
    70  H    0.100921
    71  H    0.113575
    72  H    0.113200
    73  H    0.111712
    74  H    0.105652
    75  H    0.117335
    76  H    0.136461
    77  H    0.140403
    78  H    0.107797
    79  H    0.123949
    80  H    0.111769
    81  H    0.082706
    82  H    0.110566
    83  H    0.091474
    84  H    0.107061
    85  H    0.094495
    86  H    0.141722
    87  H    0.097556
    88  H    0.106913
    89  H    0.052079
    90  H    0.109647
    91  H    0.120704
    92  H    0.133951
    93  H    0.126086
    94  H    0.112924
    95  H    0.147041
    96  H    0.123625
    97  H    0.129568
    98  H    0.131152
    99  H    0.085098
   100  H    0.107067
   101  H    0.084186
   102  H    0.107887
   103  H    0.123322
   104  H    0.118591
   105  H    0.124265
   106  H    0.045504
   107  H    0.108380
   108  H    0.104795
   109  H    0.098122
   110  H    0.068104
   111  H    0.090449
   112  H    0.079175
   113  H    0.104267
   114  H    0.088324
   115  H    0.063000
   116  H    0.094331
   117  H    0.088258
   118  H    0.103673
   119  H    0.093710
   120  H    0.096478
   121  H    0.086169
   122  H    0.105868
   123  H    0.094863
   124  H    0.104409
   125  H    0.058743
   126  H    0.074413
   127  H    0.101598
   128  H    0.101365
   129  H    0.065910
   130  H    0.088981
   131  H    0.092212
   132  H    0.104794
   133  H    0.097245
   134  H    0.113378
   135  H    0.093807
   136  H    0.089509
   137  H    0.104051
 Sum of Mulliken charges =  -0.00000

 Dipole moment (field-independent basis, Debye):
    X=              2.5797    Y=              3.7332    Z=              0.3510  Tot=              4.5514
 Quadrupole moment (field-independent basis, Debye-Ang):
   XX=           -364.4307   YY=           -389.6436   ZZ=           -398.8778
   XY=            -20.9335   XZ=             -0.1540   YZ=             -5.6806

 Normal termination of Gaussian 16 at Thu Sep  5 18:21:47 2019.
