 Gaussian 16, Revision A.03,
 Gaussian 16:  ES64L-G16RevA.03 25-Dec-2016

 ----------------------------------------------------------------------
 # td=(NStates=1) iop(3/107=0140000000,3/108=0140000000) CAM-B3LYP/6-31
 G(d,p)
 ----------------------------------------------------------------------

 --
 TD
 --
 Symbolic Z-matrix:
 Charge =  0 Multiplicity = 1

                         Standard orientation:
 ---------------------------------------------------------------------
 Center     Atomic      Atomic             Coordinates (Angstroms)
 Number     Number       Type             X           Y           Z
 ---------------------------------------------------------------------
      1         12           0       -7.279428    0.576724    0.140481
      2          6           0       -4.864298   -1.969528    0.421383
      3          6           0       -4.811603    2.828657    1.205655
      4          6           0       -9.435148    3.079375   -0.345785
      5          6           0       -9.565254   -1.732582   -0.903621
      6          7           0       -5.090422    0.450815    0.702539
      7          6           0       -4.364304   -0.651651    0.736369
      8          6           0       -2.891476   -0.330116    1.095481
      9          6           0       -3.064523    1.080734    1.554924
     10          6           0       -4.403651    1.559824    1.034190
     11          6           0       -3.082087    1.234094    3.125271
     12          6           0       -1.846802   -0.527728    0.013521
     13          6           0       -0.397737   -0.387297    0.463751
     14          6           0        0.571559   -0.667450   -0.628906
     15          8           0        0.244306   -0.881389   -1.798110
     16          8           0        1.843992   -0.597437   -0.213643
     17          7           0       -7.188816    2.646210    0.395373
     18          6           0       -6.150666    3.431776    0.850851
     19          6           0       -6.404989    4.792457    0.786128
     20          6           0       -7.697913    4.862077    0.347515
     21          6           0       -8.112273    3.481319    0.048389
     22          6           0       -5.467375    5.811749    1.304805
     23          6           0       -8.490459    6.013484    0.020022
     24          6           0       -8.242767    7.325112    0.519142
     25          7           0       -9.133153    0.686130   -0.479339
     26          6           0       -9.922415    1.733802   -0.572604
     27          6           0      -11.283880    1.545979   -1.071130
     28          6           0      -11.283662    0.138073   -1.310177
     29          6           0       -9.954453   -0.375408   -0.830240
     30          6           0      -12.255601    2.530664   -1.410486
     31          6           0      -12.337845   -0.842714   -1.672343
     32          6           0      -12.170634   -1.186943   -3.281437
     33          7           0       -7.324025   -1.466564   -0.087167
     34          6           0       -8.275185   -2.211432   -0.473683
     35          6           0       -7.898352   -3.569942   -0.496919
     36          6           0       -6.613868   -3.599480   -0.092202
     37          6           0       -6.264230   -2.234329    0.154661
     38          6           0       -8.730395   -4.697100   -0.770131
     39          6           0       -5.397921   -4.401336    0.280340
     40          8           0       -5.263013   -5.566475    0.283666
     41          6           0       -4.276082   -3.314336    0.602710
     42          6           0       -3.523816   -3.691407    1.896400
     43          8           0       -3.539519   -3.012067    2.904338
     44          8           0       -2.830258   -4.823389    1.714277
     45          6           0       -2.159812   -5.159794    2.845929
     46          6           0        2.895819   -0.766432   -1.135560
     47          6           0        4.178333   -0.552799   -0.541382
     48          6           0        5.084174    0.255335   -0.920620
     49          6           0        5.080743    1.075718   -2.055306
     50          6           0        6.506413    0.342252   -0.120194
     51          6           0        7.677677   -0.282112   -1.026820
     52          6           0        8.893069   -0.194672   -0.142685
     53          6           0       10.213032   -0.663036   -0.875042
     54          6           0       10.138451   -2.113175   -1.380136
     55          6           0       11.421269   -0.322351    0.116729
     56          6           0       12.762018   -0.445729   -0.609277
     57          6           0       14.028026   -0.028385    0.209703
     58          6           0       15.353271   -0.187781   -0.472954
     59          6           0       15.738349   -1.681578   -0.783652
     60          6           0       16.398728    0.462844    0.474378
     61          6           0       17.780725    0.627799   -0.100283
     62          6           0       18.923147    1.270455    0.776196
     63          6           0       20.265816    1.329398    0.117539
     64          6           0       20.255324    2.084786   -1.258559
     65          6           0       21.113494    2.040816    1.272281
     66          1           0       -4.129249    3.702659    1.705077
     67          1           0      -10.110908    3.832903   -0.669219
     68          1           0      -10.373743   -2.383078   -0.918531
     69          1           0       -2.645584   -1.070615    1.944647
     70          1           0       -2.190196    1.628450    1.332512
     71          1           0       -2.054642    0.659986    3.538738
     72          1           0       -3.162404    2.239536    3.384370
     73          1           0       -4.140851    0.704081    3.344245
     74          1           0       -1.928941   -1.548401   -0.448220
     75          1           0       -1.984570    0.206221   -0.785424
     76          1           0       -0.116364    0.679563    1.078731
     77          1           0       -0.196745   -1.279392    1.119428
     78          1           0       -5.395190    6.669993    0.778455
     79          1           0       -5.646420    6.095114    2.331886
     80          1           0       -4.482598    5.185422    1.200773
     81          1           0       -9.168777    6.034845   -0.688081
     82          1           0       -8.921103    8.219569    0.345233
     83          1           0       -7.447410    8.021675    1.026604
     84          1           0      -12.119557    3.143533   -2.218051
     85          1           0      -13.101934    1.952961   -1.831089
     86          1           0      -12.462345    3.291816   -0.575513
     87          1           0      -12.139610   -1.705569   -1.022269
     88          1           0      -13.404991   -0.451957   -1.553295
     89          1           0      -12.907678   -1.751747   -3.546103
     90          1           0      -12.303816   -0.235079   -3.973190
     91          1           0      -11.326890   -1.610719   -3.710111
     92          1           0       -9.297675   -4.745798   -1.708763
     93          1           0       -8.243102   -5.670214   -0.738028
     94          1           0       -9.586622   -4.826973   -0.005773
     95          1           0       -3.585727   -3.465560   -0.265742
     96          1           0       -1.811137   -4.120980    3.345628
     97          1           0       -2.908190   -5.459923    3.597898
     98          1           0       -1.288608   -5.917733    2.768971
     99          1           0        2.614225   -1.684643   -1.728772
    100          1           0        2.632155   -0.069468   -1.997005
    101          1           0        4.442561   -0.961357    0.547310
    102          1           0        4.020152    0.986304   -2.451715
    103          1           0        5.320442    2.097444   -1.892665
    104          1           0        5.638964    0.635505   -2.811261
    105          1           0        6.766566    1.446518   -0.003456
    106          1           0        6.630854   -0.236216    0.867268
    107          1           0        7.487323   -1.236237   -1.301811
    108          1           0        7.996843    0.238711   -2.032245
    109          1           0        9.176087    0.841536    0.018791
    110          1           0        8.873377   -0.761429    0.720991
    111          1           0       10.148344    0.005493   -1.775383
    112          1           0        9.193667   -2.044342   -2.022374
    113          1           0       11.228739   -2.200230   -1.891344
    114          1           0       10.000028   -2.829667   -0.591043
    115          1           0       11.403799    0.831125    0.460495
    116          1           0       11.417146   -1.016960    0.936072
    117          1           0       13.081281   -1.326680   -1.102777
    118          1           0       12.733056    0.545111   -1.463650
    119          1           0       14.097773    1.190002    0.421075
    120          1           0       14.067614   -0.465674    1.254556
    121          1           0       15.335353    0.508898   -1.453765
    122          1           0       15.749282   -2.190797   -0.001085
    123          1           0       14.948352   -2.122250   -1.470269
    124          1           0       16.732601   -1.726234   -1.195133
    125          1           0       16.096426    1.348819    0.900271
    126          1           0       16.514170   -0.320788    1.150902
    127          1           0       18.271081   -0.387084   -0.462168
    128          1           0       17.855200    1.173573   -1.044496
    129          1           0       18.551942    2.269693    0.947720
    130          1           0       18.875707    0.827739    1.832690
    131          1           0       20.654347    0.191250   -0.117533
    132          1           0       19.903421    2.995829   -0.966920
    133          1           0       21.309778    2.111150   -1.381476
    134          1           0       19.631824    1.465463   -2.212471
    135          1           0       21.395530    1.615883    2.131775
    136          1           0       22.015270    2.106451    0.919592
    137          1           0       20.808523    3.132441    1.592902
 ---------------------------------------------------------------------

 SCF Done:  E(RCAM-B3LYP) =  -2933.42117567     A.U. after   16 cycles

 Excitation energies and oscillator strengths:

 Excited State   1:      Singlet-A      1.9570 eV  633.54 nm  f=0.3443  <S**2>=0.000
     240 -> 243        0.21545
     241 -> 242        0.66547
 This state for optimization and/or second-order correction.
 Total Energy, E(TD-HF/TD-DFT) =  -2933.34925655
 Copying the excited state density for this state as the 1-particle RhoCI density.

 The electronic state is 1-A.
 Alpha  occ. eigenvalues --  -46.81055 -19.23307 -19.21759 -19.17521 -19.16816
 Alpha  occ. eigenvalues --  -19.16214 -14.37359 -14.35507 -14.35071 -14.34714
 Alpha  occ. eigenvalues --  -10.35226 -10.34301 -10.30885 -10.27458 -10.27207
 Alpha  occ. eigenvalues --  -10.26533 -10.25308 -10.24976 -10.24876 -10.24784
 Alpha  occ. eigenvalues --  -10.24618 -10.24431 -10.24263 -10.23987 -10.23906
 Alpha  occ. eigenvalues --  -10.23859 -10.23499 -10.23440 -10.23428 -10.23072
 Alpha  occ. eigenvalues --  -10.22910 -10.22904 -10.22842 -10.22529 -10.22512
 Alpha  occ. eigenvalues --  -10.22417 -10.22352 -10.22296 -10.22232 -10.22149
 Alpha  occ. eigenvalues --  -10.22115 -10.22077 -10.22067 -10.22057 -10.21843
 Alpha  occ. eigenvalues --  -10.21749 -10.21692 -10.21654 -10.21611 -10.21497
 Alpha  occ. eigenvalues --  -10.21415 -10.21406 -10.21347 -10.21126 -10.21107
 Alpha  occ. eigenvalues --  -10.20971 -10.20461 -10.20234 -10.20137 -10.20039
 Alpha  occ. eigenvalues --  -10.20038 -10.19475 -10.19081 -10.19000 -10.18857
 Alpha  occ. eigenvalues --   -3.09559  -1.84506  -1.84035  -1.83955  -1.15882
 Alpha  occ. eigenvalues --   -1.13375  -1.08993  -1.05898  -1.03698  -1.02138
 Alpha  occ. eigenvalues --   -1.00349  -0.99707  -0.98717  -0.87327  -0.87258
 Alpha  occ. eigenvalues --   -0.85152  -0.84816  -0.84456  -0.84306  -0.83881
 Alpha  occ. eigenvalues --   -0.83498  -0.83202  -0.82734  -0.82289  -0.81048
 Alpha  occ. eigenvalues --   -0.80001  -0.79397  -0.79017  -0.77721  -0.77343
 Alpha  occ. eigenvalues --   -0.76868  -0.76184  -0.75046  -0.74787  -0.73267
 Alpha  occ. eigenvalues --   -0.73186  -0.72888  -0.72590  -0.71613  -0.71427
 Alpha  occ. eigenvalues --   -0.71121  -0.70512  -0.69968  -0.68899  -0.68236
 Alpha  occ. eigenvalues --   -0.67651  -0.65664  -0.65506  -0.64360  -0.64089
 Alpha  occ. eigenvalues --   -0.63157  -0.62464  -0.60959  -0.60598  -0.59859
 Alpha  occ. eigenvalues --   -0.59821  -0.59184  -0.58886  -0.58044  -0.57696
 Alpha  occ. eigenvalues --   -0.57281  -0.56772  -0.56501  -0.55969  -0.55328
 Alpha  occ. eigenvalues --   -0.54929  -0.54690  -0.54484  -0.53968  -0.52828
 Alpha  occ. eigenvalues --   -0.52477  -0.52255  -0.51410  -0.51339  -0.51026
 Alpha  occ. eigenvalues --   -0.50738  -0.50429  -0.50067  -0.49754  -0.49726
 Alpha  occ. eigenvalues --   -0.48916  -0.48880  -0.48667  -0.48496  -0.48193
 Alpha  occ. eigenvalues --   -0.47856  -0.47737  -0.47371  -0.47201  -0.47093
 Alpha  occ. eigenvalues --   -0.46738  -0.46733  -0.46306  -0.45991  -0.45927
 Alpha  occ. eigenvalues --   -0.45838  -0.45654  -0.45321  -0.45279  -0.44967
 Alpha  occ. eigenvalues --   -0.44783  -0.44504  -0.44032  -0.43754  -0.43677
 Alpha  occ. eigenvalues --   -0.43270  -0.43102  -0.42977  -0.42916  -0.42780
 Alpha  occ. eigenvalues --   -0.42364  -0.42237  -0.42113  -0.41895  -0.41825
 Alpha  occ. eigenvalues --   -0.41427  -0.41303  -0.41287  -0.41069  -0.40956
 Alpha  occ. eigenvalues --   -0.40926  -0.40624  -0.40327  -0.40162  -0.39902
 Alpha  occ. eigenvalues --   -0.39794  -0.39607  -0.39329  -0.39204  -0.39114
 Alpha  occ. eigenvalues --   -0.38988  -0.38628  -0.38430  -0.38282  -0.38067
 Alpha  occ. eigenvalues --   -0.37899  -0.37521  -0.37301  -0.37144  -0.37087
 Alpha  occ. eigenvalues --   -0.36799  -0.36653  -0.36572  -0.36091  -0.35680
 Alpha  occ. eigenvalues --   -0.35506  -0.35395  -0.34968  -0.34903  -0.34465
 Alpha  occ. eigenvalues --   -0.34275  -0.33787  -0.33493  -0.33336  -0.32953
 Alpha  occ. eigenvalues --   -0.32889  -0.32785  -0.32455  -0.32335  -0.32037
 Alpha  occ. eigenvalues --   -0.31813  -0.31793  -0.30977  -0.30778  -0.30410
 Alpha  occ. eigenvalues --   -0.29985  -0.29645  -0.29343  -0.27979  -0.27754
 Alpha  occ. eigenvalues --   -0.27405  -0.27032  -0.25820  -0.24394  -0.21292
 Alpha  occ. eigenvalues --   -0.19381
 Alpha virt. eigenvalues --   -0.07211  -0.03714   0.00357   0.02018   0.03538
 Alpha virt. eigenvalues --    0.03677   0.04378   0.04803   0.05284   0.05498
 Alpha virt. eigenvalues --    0.07237   0.08415   0.09002   0.09317   0.09907

 Mulliken charges:
               1
     1  Mg   0.842075
     2  C    0.066558
     3  C   -0.211243
     4  C   -0.175967
     5  C   -0.151297
     6  N   -0.626205
     7  C    0.315217
     8  C   -0.142373
     9  C   -0.158545
    10  C    0.356663
    11  C   -0.281628
    12  C   -0.162767
    13  C   -0.257337
    14  C    0.612549
    15  O   -0.490142
    16  O   -0.457186
    17  N   -0.681660
    18  C    0.264065
    19  C    0.050281
    20  C    0.014261
    21  C    0.311190
    22  C   -0.354028
    23  C   -0.104524
    24  C   -0.262984
    25  N   -0.696431
    26  C    0.306196
    27  C    0.066270
    28  C    0.039739
    29  C    0.254701
    30  C   -0.396135
    31  C   -0.265332
    32  C   -0.323470
    33  N   -0.703512
    34  C    0.300691
    35  C    0.017514
    36  C    0.029609
    37  C    0.227695
    38  C   -0.418842
    39  C    0.371899
    40  O   -0.413588
    41  C   -0.335230
    42  C    0.615947
    43  O   -0.469608
    44  O   -0.387404
    45  C   -0.106628
    46  C   -0.010321
    47  C   -0.109438
    48  C    0.138371
    49  C   -0.367442
    50  C   -0.222218
    51  C   -0.183809
    52  C   -0.166551
    53  C   -0.082569
    54  C   -0.297187
    55  C   -0.160856
    56  C   -0.158638
    57  C   -0.154937
    58  C   -0.058709
    59  C   -0.316638
    60  C   -0.155480
    61  C   -0.194422
    62  C   -0.144656
    63  C   -0.070663
    64  C   -0.288967
    65  C   -0.322975
    66  H    0.083980
    67  H    0.070532
    68  H    0.078755
    69  H    0.116986
    70  H    0.089866
    71  H    0.082237
    72  H    0.118160
    73  H    0.104117
    74  H    0.109409
    75  H    0.118829
    76  H    0.112878
    77  H    0.133047
    78  H    0.127109
    79  H    0.132051
    80  H    0.090209
    81  H    0.101881
    82  H    0.087073
    83  H    0.101789
    84  H    0.141213
    85  H    0.109987
    86  H    0.116858
    87  H    0.117599
    88  H    0.105726
    89  H    0.117649
    90  H    0.085095
    91  H    0.127663
    92  H    0.120428
    93  H    0.140009
    94  H    0.112049
    95  H    0.160626
    96  H    0.111565
    97  H    0.124522
    98  H    0.118069
    99  H    0.121988
   100  H    0.114744
   101  H    0.077443
   102  H    0.092645
   103  H    0.122869
   104  H    0.137835
   105  H    0.095428
   106  H    0.096135
   107  H    0.113574
   108  H    0.076901
   109  H    0.094333
   110  H    0.094366
   111  H    0.076151
   112  H    0.098662
   113  H    0.092261
   114  H    0.106767
   115  H    0.083045
   116  H    0.096828
   117  H    0.099466
   118  H    0.046819
   119  H    0.054966
   120  H    0.076473
   121  H    0.059430
   122  H    0.116951
   123  H    0.090901
   124  H    0.109402
   125  H    0.091740
   126  H    0.099667
   127  H    0.057056
   128  H    0.084207
   129  H    0.085994
   130  H    0.076173
   131  H    0.061965
   132  H    0.119933
   133  H    0.112957
   134  H    0.087415
   135  H    0.120101
   136  H    0.101918
   137  H    0.085574
 Sum of Mulliken charges =  -0.00000

 Dipole moment (field-independent basis, Debye):
    X=              1.1679    Y=              3.3910    Z=              0.1308  Tot=              3.5888
 Quadrupole moment (field-independent basis, Debye-Ang):
   XX=           -315.0714   YY=           -391.4011   ZZ=           -401.0258
   XY=            -13.0903   XZ=             24.6914   YZ=             -1.8804

 Normal termination of Gaussian 16 at Mon Sep 16 11:13:13 2019.
