 Gaussian 16, Revision A.03,
 Gaussian 16:  ES64L-G16RevA.03 25-Dec-2016

 -------------------------------------
 # td=(NStates=1) CAM-B3LYP/6-31G(d,p)
 -------------------------------------

 --
 TD
 --
 Symbolic Z-matrix:
 Charge =  0 Multiplicity = 1

                         Standard orientation:
 ---------------------------------------------------------------------
 Center     Atomic      Atomic             Coordinates (Angstroms)
 Number     Number       Type             X           Y           Z
 ---------------------------------------------------------------------
      1         12           0       -7.120079    0.612803    0.017373
      2          6           0       -4.850969   -1.881029    0.515307
      3          6           0       -4.833293    2.794024    1.149759
      4          6           0       -9.423522    3.120342   -0.426821
      5          6           0       -9.557282   -1.772969   -1.018609
      6          7           0       -5.072559    0.390148    0.705224
      7          6           0       -4.315673   -0.710816    0.871659
      8          6           0       -2.948457   -0.457832    1.300939
      9          6           0       -2.935987    1.109713    1.720831
     10          6           0       -4.349469    1.469167    1.209380
     11          6           0       -2.947898    1.263804    3.279903
     12          6           0       -1.826518   -0.686057    0.194265
     13          6           0       -0.362352   -0.542363    0.550372
     14          6           0        0.536238   -0.765973   -0.581483
     15          8           0        0.275181   -1.101229   -1.670740
     16          8           0        1.843038   -0.578657   -0.212108
     17          7           0       -7.135695    2.549452    0.430537
     18          6           0       -6.093326    3.315071    0.899011
     19          6           0       -6.392466    4.720316    0.759535
     20          6           0       -7.784737    4.807715    0.323506
     21          6           0       -8.204768    3.466624    0.072919
     22          6           0       -5.449387    5.886709    0.969044
     23          6           0       -8.536539    6.054441    0.208420
     24          6           0       -8.555452    7.160715    0.865857
     25          7           0       -9.100456    0.611876   -0.621899
     26          6           0       -9.849063    1.832295   -0.728887
     27          6           0      -11.196146    1.435120   -1.100172
     28          6           0      -11.265116    0.121211   -1.301450
     29          6           0       -9.907363   -0.432619   -0.958221
     30          6           0      -12.285919    2.422721   -1.291823
     31          6           0      -12.388301   -0.682004   -1.819126
     32          6           0      -12.466847   -1.024255   -3.227605
     33          7           0       -7.200987   -1.377640   -0.301899
     34          6           0       -8.247654   -2.201796   -0.653531
     35          6           0       -7.823030   -3.609803   -0.527322
     36          6           0       -6.510683   -3.471181   -0.172971
     37          6           0       -6.173487   -2.096844    0.005311
     38          6           0       -8.638888   -4.900625   -0.828175
     39          6           0       -5.401385   -4.318946    0.144951
     40          8           0       -5.184591   -5.537602    0.193082
     41          6           0       -4.240958   -3.301409    0.558041
     42          6           0       -3.490825   -3.634537    1.851854
     43          8           0       -3.673955   -2.935394    2.923555
     44          8           0       -2.766886   -4.749959    1.822107
     45          6           0       -2.201593   -5.162342    3.030881
     46          6           0        2.837672   -0.705592   -1.276673
     47          6           0        4.176933   -0.473603   -0.486815
     48          6           0        5.130137    0.321755   -0.823177
     49          6           0        5.117458    1.110074   -2.229671
     50          6           0        6.406971    0.436959   -0.041966
     51          6           0        7.596461   -0.190142   -0.922903
     52          6           0        8.951580    0.019442   -0.042533
     53          6           0       10.204311   -0.499157   -0.778787
     54          6           0       10.017666   -1.937055   -1.272741
     55          6           0       11.446729   -0.183627    0.001263
     56          6           0       12.776124   -0.659607   -0.697563
     57          6           0       13.979790   -0.034888    0.263031
     58          6           0       15.310668   -0.274827   -0.373135
     59          6           0       15.602869   -1.746751   -0.704604
     60          6           0       16.412718    0.326489    0.447173
     61          6           0       17.818664    0.595238   -0.174196
     62          6           0       18.859297    1.180956    0.706250
     63          6           0       20.266008    1.377226   -0.011974
     64          6           0       20.216530    2.225620   -1.284380
     65          6           0       21.293994    1.971624    1.060951
     66          1           0       -3.992017    3.505953    1.444420
     67          1           0      -10.284317    3.934984   -0.481605
     68          1           0      -10.414207   -2.511699   -1.296515
     69          1           0       -2.671894   -1.082747    2.151698
     70          1           0       -2.306174    1.830040    1.245382
     71          1           0       -1.999694    0.801041    3.424315
     72          1           0       -3.116560    2.285315    3.649730
     73          1           0       -3.559829    0.687505    3.701161
     74          1           0       -1.874799   -1.718331   -0.152478
     75          1           0       -2.049475   -0.081883   -0.723061
     76          1           0       -0.160589    0.399142    0.955295
     77          1           0       -0.085081   -1.118996    1.517499
     78          1           0       -5.718671    6.772729    0.372389
     79          1           0       -5.570078    6.444942    1.924856
     80          1           0       -4.300997    5.773843    0.659218
     81          1           0       -9.243730    5.960897   -0.657000
     82          1           0       -9.326316    7.898122    0.758797
     83          1           0       -7.996834    7.446202    1.632572
     84          1           0      -11.994467    3.176875   -2.191908
     85          1           0      -13.207627    1.829857   -1.501675
     86          1           0      -12.535961    3.178921   -0.479674
     87          1           0      -12.345027   -1.574402   -1.183824
     88          1           0      -13.324122   -0.229877   -1.469434
     89          1           0      -13.407626   -1.558551   -3.466189
     90          1           0      -12.250168   -0.134503   -3.769050
     91          1           0      -11.631188   -1.705494   -3.473456
     92          1           0       -9.079733   -4.854775   -1.749627
     93          1           0       -7.852154   -5.785457   -1.017325
     94          1           0       -9.282981   -5.228488    0.013728
     95          1           0       -3.330256   -3.278533   -0.150484
     96          1           0       -1.336169   -4.338590    3.136870
     97          1           0       -2.850934   -5.385213    3.843748
     98          1           0       -1.529746   -6.047569    2.756584
     99          1           0        2.824051   -1.750250   -1.708438
    100          1           0        2.695409    0.039672   -2.098452
    101          1           0        4.267334   -0.932118    0.373921
    102          1           0        4.006680    1.124952   -2.645510
    103          1           0        5.327310    2.194784   -2.084925
    104          1           0        5.779023    0.503896   -2.849422
    105          1           0        6.585637    1.440362    0.117765
    106          1           0        6.283108    0.037174    0.895231
    107          1           0        7.468986   -1.084220   -1.136614
    108          1           0        7.677424    0.430882   -1.739028
    109          1           0        9.140512    1.111910   -0.039990
    110          1           0        8.800203   -0.480442    0.869146
    111          1           0       10.214846    0.052758   -1.746043
    112          1           0        9.014652   -1.842769   -1.669972
    113          1           0       10.997471   -2.214556   -1.763142
    114          1           0       10.062395   -2.621395   -0.324450
    115          1           0       11.539282    0.948558    0.302538
    116          1           0       11.350275   -0.722868    0.919786
    117          1           0       12.901920   -1.779048   -0.820239
    118          1           0       12.933205    0.003017   -1.664053
    119          1           0       13.635796    1.073499    0.450175
    120          1           0       14.094401   -0.397487    1.250491
    121          1           0       15.320909    0.335727   -1.349589
    122          1           0       15.626889   -2.296278    0.262181
    123          1           0       14.840632   -2.223290   -1.295733
    124          1           0       16.486575   -1.985046   -1.335219
    125          1           0       15.933612    1.337987    0.863477
    126          1           0       16.352474   -0.194838    1.386845
    127          1           0       18.198329   -0.320639   -0.466314
    128          1           0       17.677742    1.410283   -1.123532
    129          1           0       18.469349    2.245883    0.868814
    130          1           0       18.774425    0.726134    1.698804
    131          1           0       20.699217    0.425199   -0.224323
    132          1           0       19.933227    3.203358   -0.978364
    133          1           0       21.187152    2.304491   -1.809745
    134          1           0       19.431777    1.974635   -1.962448
    135          1           0       21.188476    1.064484    1.799972
    136          1           0       22.182613    2.184707    0.563319
    137          1           0       20.771866    2.911546    1.430148
 ---------------------------------------------------------------------

 SCF Done:  E(RCAM-B3LYP) =  -2932.75677891     A.U. after   18 cycles

 Excitation energies and oscillator strengths:

 Excited State   1:      Singlet-A      1.9730 eV  628.39 nm  f=0.2633  <S**2>=0.000
     240 -> 243        0.23609
     241 -> 242        0.66243
 This state for optimization and/or second-order correction.
 Total Energy, E(TD-HF/TD-DFT) =  -2932.68427129
 Copying the excited state density for this state as the 1-particle RhoCI density.

 The electronic state is 1-A.
 Alpha  occ. eigenvalues --  -46.83947 -19.27516 -19.24860 -19.21083 -19.20039
 Alpha  occ. eigenvalues --  -19.19982 -14.41625 -14.39640 -14.39450 -14.39331
 Alpha  occ. eigenvalues --  -10.39765 -10.38599 -10.35004 -10.32530 -10.32229
 Alpha  occ. eigenvalues --  -10.30894 -10.29857 -10.29676 -10.29610 -10.29542
 Alpha  occ. eigenvalues --  -10.29073 -10.28843 -10.28840 -10.28755 -10.28523
 Alpha  occ. eigenvalues --  -10.28377 -10.28231 -10.27881 -10.27850 -10.27755
 Alpha  occ. eigenvalues --  -10.27620 -10.27530 -10.27331 -10.27179 -10.27170
 Alpha  occ. eigenvalues --  -10.27160 -10.27133 -10.26878 -10.26807 -10.26477
 Alpha  occ. eigenvalues --  -10.26139 -10.26032 -10.26022 -10.25691 -10.25633
 Alpha  occ. eigenvalues --  -10.25598 -10.25587 -10.25495 -10.25456 -10.25431
 Alpha  occ. eigenvalues --  -10.25206 -10.25139 -10.25135 -10.25085 -10.25002
 Alpha  occ. eigenvalues --  -10.24954 -10.24805 -10.24759 -10.24747 -10.24652
 Alpha  occ. eigenvalues --  -10.24539 -10.24230 -10.24064 -10.23813 -10.23660
 Alpha  occ. eigenvalues --   -3.13044  -1.87746  -1.87292  -1.87217  -1.19049
 Alpha  occ. eigenvalues --   -1.18597  -1.09513  -1.09377  -1.05958  -1.05503
 Alpha  occ. eigenvalues --   -1.03712  -1.01865  -1.00917  -0.91895  -0.91081
 Alpha  occ. eigenvalues --   -0.90412  -0.90001  -0.89591  -0.89269  -0.89247
 Alpha  occ. eigenvalues --   -0.88315  -0.88096  -0.87816  -0.86836  -0.86263
 Alpha  occ. eigenvalues --   -0.84566  -0.84071  -0.83742  -0.83227  -0.82742
 Alpha  occ. eigenvalues --   -0.81755  -0.81112  -0.80449  -0.79384  -0.78080
 Alpha  occ. eigenvalues --   -0.77897  -0.76701  -0.76115  -0.75887  -0.75798
 Alpha  occ. eigenvalues --   -0.75555  -0.75091  -0.74619  -0.73664  -0.72778
 Alpha  occ. eigenvalues --   -0.71939  -0.71025  -0.70068  -0.69363  -0.68869
 Alpha  occ. eigenvalues --   -0.68008  -0.67285  -0.66062  -0.65055  -0.64731
 Alpha  occ. eigenvalues --   -0.63785  -0.62896  -0.62569  -0.62385  -0.61844
 Alpha  occ. eigenvalues --   -0.61406  -0.60956  -0.60504  -0.59322  -0.59077
 Alpha  occ. eigenvalues --   -0.58223  -0.58059  -0.57692  -0.56796  -0.56494
 Alpha  occ. eigenvalues --   -0.56215  -0.55760  -0.55703  -0.55210  -0.55093
 Alpha  occ. eigenvalues --   -0.54923  -0.54166  -0.53932  -0.53655  -0.53469
 Alpha  occ. eigenvalues --   -0.52890  -0.52579  -0.52493  -0.52108  -0.51927
 Alpha  occ. eigenvalues --   -0.51568  -0.51530  -0.51094  -0.50734  -0.50628
 Alpha  occ. eigenvalues --   -0.50351  -0.50099  -0.49889  -0.49491  -0.49466
 Alpha  occ. eigenvalues --   -0.49307  -0.49013  -0.48902  -0.48769  -0.48452
 Alpha  occ. eigenvalues --   -0.48266  -0.48010  -0.47820  -0.47710  -0.47589
 Alpha  occ. eigenvalues --   -0.47024  -0.46527  -0.46357  -0.46216  -0.46055
 Alpha  occ. eigenvalues --   -0.45584  -0.45536  -0.45317  -0.45217  -0.45037
 Alpha  occ. eigenvalues --   -0.44620  -0.44576  -0.44489  -0.44318  -0.43926
 Alpha  occ. eigenvalues --   -0.43910  -0.43615  -0.43500  -0.43407  -0.43210
 Alpha  occ. eigenvalues --   -0.43101  -0.43000  -0.42787  -0.42724  -0.42317
 Alpha  occ. eigenvalues --   -0.42096  -0.42049  -0.41883  -0.41864  -0.41120
 Alpha  occ. eigenvalues --   -0.40724  -0.40670  -0.40557  -0.40532  -0.40373
 Alpha  occ. eigenvalues --   -0.39935  -0.39798  -0.39620  -0.39359  -0.39187
 Alpha  occ. eigenvalues --   -0.38989  -0.38621  -0.38500  -0.38207  -0.37865
 Alpha  occ. eigenvalues --   -0.37305  -0.37013  -0.36861  -0.36814  -0.36239
 Alpha  occ. eigenvalues --   -0.36036  -0.35974  -0.35786  -0.35664  -0.35543
 Alpha  occ. eigenvalues --   -0.35300  -0.35269  -0.35023  -0.34228  -0.33224
 Alpha  occ. eigenvalues --   -0.33051  -0.32583  -0.32070  -0.30927  -0.30264
 Alpha  occ. eigenvalues --   -0.30153  -0.29648  -0.28465  -0.27145  -0.22947
 Alpha  occ. eigenvalues --   -0.21170
 Alpha virt. eigenvalues --   -0.06906  -0.02598   0.01661   0.04231   0.04950
 Alpha virt. eigenvalues --    0.05906   0.06782   0.06960   0.07289   0.08410
 Alpha virt. eigenvalues --    0.09016   0.10797   0.11289   0.11562   0.11711

 Mulliken charges:
               1
     1  Mg   0.817920
     2  C    0.066110
     3  C   -0.219545
     4  C   -0.191840
     5  C   -0.168135
     6  N   -0.634232
     7  C    0.380242
     8  C   -0.180998
     9  C   -0.165271
    10  C    0.315078
    11  C   -0.289516
    12  C   -0.178867
    13  C   -0.283136
    14  C    0.622509
    15  O   -0.445737
    16  O   -0.506134
    17  N   -0.734960
    18  C    0.337374
    19  C    0.020614
    20  C    0.001168
    21  C    0.322798
    22  C   -0.392339
    23  C   -0.071374
    24  C   -0.235223
    25  N   -0.708828
    26  C    0.289011
    27  C    0.049340
    28  C    0.012774
    29  C    0.313046
    30  C   -0.378045
    31  C   -0.249754
    32  C   -0.292744
    33  N   -0.740543
    34  C    0.227414
    35  C    0.032084
    36  C   -0.006643
    37  C    0.346023
    38  C   -0.375025
    39  C    0.371107
    40  O   -0.479985
    41  C   -0.329482
    42  C    0.605698
    43  O   -0.519370
    44  O   -0.410274
    45  C   -0.074582
    46  C    0.022119
    47  C   -0.107706
    48  C    0.087193
    49  C   -0.357007
    50  C   -0.222012
    51  C   -0.201053
    52  C   -0.179933
    53  C   -0.074297
    54  C   -0.298792
    55  C   -0.159169
    56  C   -0.190441
    57  C   -0.180933
    58  C   -0.043597
    59  C   -0.314684
    60  C   -0.181438
    61  C   -0.151046
    62  C   -0.177831
    63  C   -0.076793
    64  C   -0.321215
    65  C   -0.293985
    66  H    0.073648
    67  H    0.105292
    68  H    0.111390
    69  H    0.140771
    70  H    0.115539
    71  H    0.105807
    72  H    0.110762
    73  H    0.139411
    74  H    0.111565
    75  H    0.117776
    76  H    0.143966
    77  H    0.133152
    78  H    0.125707
    79  H    0.122599
    80  H    0.105786
    81  H    0.085325
    82  H    0.103810
    83  H    0.098879
    84  H    0.099773
    85  H    0.106930
    86  H    0.116399
    87  H    0.097952
    88  H    0.100929
    89  H    0.108339
    90  H    0.117496
    91  H    0.101705
    92  H    0.135434
    93  H    0.131833
    94  H    0.135313
    95  H    0.149411
    96  H    0.101826
    97  H    0.151099
    98  H    0.120809
    99  H    0.122242
   100  H    0.115870
   101  H    0.075548
   102  H    0.087502
   103  H    0.113267
   104  H    0.131949
   105  H    0.106132
   106  H    0.100009
   107  H    0.115249
   108  H    0.111238
   109  H    0.092644
   110  H    0.097923
   111  H    0.072524
   112  H    0.107476
   113  H    0.106192
   114  H    0.073555
   115  H    0.076090
   116  H    0.095724
   117  H    0.105204
   118  H    0.091043
   119  H    0.082115
   120  H    0.091880
   121  H    0.067894
   122  H    0.092896
   123  H    0.102142
   124  H    0.105350
   125  H    0.060933
   126  H    0.084478
   127  H    0.103450
   128  H    0.063699
   129  H    0.077996
   130  H    0.094544
   131  H    0.091379
   132  H    0.103758
   133  H    0.100281
   134  H    0.108730
   135  H    0.095012
   136  H    0.108529
   137  H    0.096012
 Sum of Mulliken charges =  -0.00000

 Dipole moment (field-independent basis, Debye):
    X=              1.3151    Y=              3.9098    Z=              0.3860  Tot=              4.1431
 Quadrupole moment (field-independent basis, Debye-Ang):
   XX=           -347.1049   YY=           -388.4059   ZZ=           -398.9347
   XY=            -22.1193   XZ=              7.4868   YZ=             -2.4047

 Normal termination of Gaussian 16 at Fri Jun 28 21:01:25 2019.
