 Gaussian 16, Revision A.03,
 Gaussian 16:  ES64L-G16RevA.03 25-Dec-2016

 ----------------------------------------------------------------------
 # td=(NStates=1) iop(3/107=0140000000,3/108=0140000000) CAM-B3LYP/6-31
 G(d,p)
 ----------------------------------------------------------------------

 --
 TD
 --
 Symbolic Z-matrix:
 Charge =  0 Multiplicity = 1

                         Standard orientation:
 ---------------------------------------------------------------------
 Center     Atomic      Atomic             Coordinates (Angstroms)
 Number     Number       Type             X           Y           Z
 ---------------------------------------------------------------------
      1         12           0       -7.062409    0.620317    0.006084
      2          6           0       -4.881775   -1.974839    0.437748
      3          6           0       -4.846232    2.896909    1.057816
      4          6           0       -9.407342    3.143664   -0.470738
      5          6           0       -9.472378   -1.727783   -0.750788
      6          7           0       -5.137096    0.394542    0.621030
      7          6           0       -4.327210   -0.709636    0.691127
      8          6           0       -2.943700   -0.362434    1.140845
      9          6           0       -3.008893    1.061636    1.534751
     10          6           0       -4.387651    1.582799    1.047124
     11          6           0       -2.981028    1.257895    3.101834
     12          6           0       -1.903208   -0.550394   -0.013795
     13          6           0       -0.472572   -0.395356    0.430809
     14          6           0        0.457234   -0.644251   -0.703262
     15          8           0        0.188100   -1.051278   -1.791632
     16          8           0        1.740839   -0.362182   -0.346895
     17          7           0       -7.086392    2.715038    0.282785
     18          6           0       -6.072683    3.431625    0.663203
     19          6           0       -6.383903    4.881111    0.725247
     20          6           0       -7.735968    4.898806    0.301075
     21          6           0       -8.160302    3.557166    0.001424
     22          6           0       -5.492095    5.904384    1.198223
     23          6           0       -8.629582    6.056351    0.185031
     24          6           0       -8.334697    7.262610    0.825723
     25          7           0       -9.175437    0.699167   -0.481660
     26          6           0       -9.854284    1.873287   -0.593849
     27          6           0      -11.292626    1.368376   -1.035725
     28          6           0      -11.220618    0.031013   -1.149062
     29          6           0       -9.851838   -0.314256   -0.854145
     30          6           0      -12.404618    2.310231   -1.263879
     31          6           0      -12.351728   -0.860603   -1.702112
     32          6           0      -12.309791   -1.245661   -3.126090
     33          7           0       -7.124971   -1.355228   -0.144201
     34          6           0       -8.271366   -2.263010   -0.484458
     35          6           0       -7.852519   -3.634392   -0.459608
     36          6           0       -6.562241   -3.546117   -0.079745
     37          6           0       -6.218621   -2.204452    0.019485
     38          6           0       -8.669408   -4.783134   -0.741464
     39          6           0       -5.366094   -4.332263    0.195094
     40          8           0       -5.292416   -5.580196    0.333576
     41          6           0       -4.195204   -3.407350    0.498217
     42          6           0       -3.610442   -3.624150    1.865095
     43          8           0       -3.817871   -3.044180    2.965049
     44          8           0       -2.744055   -4.641708    1.865988
     45          6           0       -2.291844   -5.041380    3.269449
     46          6           0        2.825746   -0.806726   -1.289512
     47          6           0        4.172534   -0.457723   -0.552559
     48          6           0        5.147157    0.342356   -1.030176
     49          6           0        5.140867    1.142925   -2.242880
     50          6           0        6.484998    0.471239   -0.232624
     51          6           0        7.658781   -0.256723   -0.954268
     52          6           0        8.953768   -0.261450   -0.211595
     53          6           0       10.207925   -0.760853   -0.885787
     54          6           0       10.138101   -2.230727   -1.249906
     55          6           0       11.494177   -0.528238   -0.068164
     56          6           0       12.844310   -0.725056   -0.746221
     57          6           0       14.002957   -0.273486    0.172647
     58          6           0       15.397697   -0.175473   -0.465682
     59          6           0       15.942459   -1.481084   -0.914297
     60          6           0       16.393736    0.490465    0.512551
     61          6           0       17.815415    0.630599   -0.038294
     62          6           0       18.745699    1.475814    0.883482
     63          6           0       20.229910    1.462774    0.311023
     64          6           0       20.187771    2.152984   -1.063545
     65          6           0       21.268322    2.099031    1.310607
     66          1           0       -4.157912    3.568113    1.470041
     67          1           0      -10.093052    3.896542   -0.559721
     68          1           0      -10.190538   -2.409896   -1.069947
     69          1           0       -2.389440   -1.203711    1.861860
     70          1           0       -2.433222    1.716256    1.010944
     71          1           0       -2.010626    0.863750    3.412057
     72          1           0       -2.788996    2.366004    3.381602
     73          1           0       -3.700627    0.829489    3.606899
     74          1           0       -1.991128   -1.595141   -0.406103
     75          1           0       -2.223884    0.213240   -0.740543
     76          1           0       -0.197277    0.738126    0.786280
     77          1           0       -0.262876   -0.962544    1.127317
     78          1           0       -5.833808    6.926795    0.642821
     79          1           0       -5.620614    6.081484    2.319352
     80          1           0       -4.364725    5.683707    0.756510
     81          1           0       -9.456363    6.006810   -0.616286
     82          1           0       -9.119396    8.048929    0.507100
     83          1           0       -7.315109    7.536304    1.342814
     84          1           0      -12.191855    2.995132   -2.256697
     85          1           0      -13.460615    1.830083   -1.330337
     86          1           0      -12.451996    3.043669   -0.389016
     87          1           0      -12.378713   -1.734767   -0.968105
     88          1           0      -13.385892   -0.235250   -1.467323
     89          1           0      -13.292202   -1.959006   -3.365599
     90          1           0      -12.453056   -0.240576   -3.691990
     91          1           0      -11.368102   -1.638978   -3.185521
     92          1           0       -8.843921   -4.894273   -1.890031
     93          1           0       -8.198700   -5.726968   -0.416735
     94          1           0       -9.660047   -4.717095   -0.221530
     95          1           0       -3.521381   -3.817716   -0.450530
     96          1           0       -1.730379   -4.397788    3.684806
     97          1           0       -3.081496   -5.316594    3.884478
     98          1           0       -1.656480   -6.031188    2.959501
     99          1           0        2.682642   -1.817072   -1.626378
    100          1           0        2.707480   -0.098920   -2.036415
    101          1           0        4.398785   -1.188999    0.279848
    102          1           0        4.192424    1.156276   -2.873160
    103          1           0        5.406488    2.109610   -2.072181
    104          1           0        5.843655    0.913483   -3.041535
    105          1           0        6.761909    1.479516    0.110026
    106          1           0        6.320942   -0.260994    0.843123
    107          1           0        7.511347   -1.304954   -1.263482
    108          1           0        7.869467    0.245954   -1.962443
    109          1           0        9.171243    0.623511    0.276102
    110          1           0        8.805730   -0.800937    0.865441
    111          1           0       10.526175   -0.025889   -1.721075
    112          1           0        9.135075   -2.875368   -1.836141
    113          1           0       10.924767   -2.773402   -1.838640
    114          1           0        9.979397   -2.818016   -0.330188
    115          1           0       11.406991    0.475603    0.107636
    116          1           0       11.536456   -1.051059    0.926406
    117          1           0       13.012568   -1.805494   -0.805613
    118          1           0       12.730792   -0.199048   -1.648793
    119          1           0       13.612754    0.699422    0.672735
    120          1           0       13.831787   -0.980577    0.948435
    121          1           0       15.403955    0.460131   -1.210286
    122          1           0       16.047470   -2.057851    0.115358
    123          1           0       15.333037   -2.052286   -1.611122
    124          1           0       16.873866   -1.379948   -1.461821
    125          1           0       16.089657    1.610459    0.958919
    126          1           0       16.449657   -0.287328    1.441388
    127          1           0       18.142582   -0.531612   -0.262639
    128          1           0       17.643772    1.061827   -1.156947
    129          1           0       18.348215    2.610047    0.913194
    130          1           0       18.563206    0.931705    2.002435
    131          1           0       20.663276    0.552108    0.111566
    132          1           0       19.745784    3.172237   -1.030344
    133          1           0       21.392028    2.374339   -1.553492
    134          1           0       19.763797    1.604332   -1.868773
    135          1           0       21.028742    1.353495    2.167689
    136          1           0       22.216021    1.795032    0.984524
    137          1           0       21.099284    3.193324    1.498505
 ---------------------------------------------------------------------

 SCF Done:  E(RCAM-B3LYP) =  -2933.43607274     A.U. after   15 cycles

 Excitation energies and oscillator strengths:

 Excited State   1:      Singlet-A      2.0345 eV  609.41 nm  f=0.2908  <S**2>=0.000
     240 -> 243       -0.20480
     241 -> 242        0.66889
 This state for optimization and/or second-order correction.
 Total Energy, E(TD-HF/TD-DFT) =  -2933.36130635
 Copying the excited state density for this state as the 1-particle RhoCI density.

 The electronic state is 1-A.
 Alpha  occ. eigenvalues --  -46.80312 -19.21687 -19.20221 -19.15971 -19.15816
 Alpha  occ. eigenvalues --  -19.15734 -14.37103 -14.35382 -14.35146 -14.34903
 Alpha  occ. eigenvalues --  -10.34445 -10.33383 -10.30549 -10.27005 -10.26533
 Alpha  occ. eigenvalues --  -10.26454 -10.26267 -10.25893 -10.24973 -10.24638
 Alpha  occ. eigenvalues --  -10.24483 -10.24458 -10.24364 -10.24297 -10.24223
 Alpha  occ. eigenvalues --  -10.24210 -10.24099 -10.24005 -10.23828 -10.23798
 Alpha  occ. eigenvalues --  -10.23633 -10.23436 -10.23244 -10.23176 -10.23080
 Alpha  occ. eigenvalues --  -10.23071 -10.22915 -10.22771 -10.22686 -10.22642
 Alpha  occ. eigenvalues --  -10.22509 -10.22500 -10.22353 -10.22318 -10.22301
 Alpha  occ. eigenvalues --  -10.22100 -10.22049 -10.22025 -10.21999 -10.21963
 Alpha  occ. eigenvalues --  -10.21883 -10.21866 -10.21604 -10.21266 -10.21185
 Alpha  occ. eigenvalues --  -10.21035 -10.20955 -10.20950 -10.20861 -10.20796
 Alpha  occ. eigenvalues --  -10.20738 -10.20701 -10.20660 -10.20204 -10.20169
 Alpha  occ. eigenvalues --   -3.08860  -1.83808  -1.83320  -1.83273  -1.11810
 Alpha  occ. eigenvalues --   -1.11493  -1.03978  -1.03246  -1.00786  -1.00567
 Alpha  occ. eigenvalues --   -0.99696  -0.98677  -0.96437  -0.86824  -0.86544
 Alpha  occ. eigenvalues --   -0.85799  -0.85594  -0.85280  -0.84719  -0.84122
 Alpha  occ. eigenvalues --   -0.83479  -0.83070  -0.82815  -0.82476  -0.81254
 Alpha  occ. eigenvalues --   -0.80680  -0.79557  -0.78665  -0.77944  -0.77672
 Alpha  occ. eigenvalues --   -0.76881  -0.76659  -0.75721  -0.75516  -0.74372
 Alpha  occ. eigenvalues --   -0.73310  -0.72485  -0.71739  -0.71574  -0.70535
 Alpha  occ. eigenvalues --   -0.70429  -0.70366  -0.69158  -0.68498  -0.68144
 Alpha  occ. eigenvalues --   -0.67767  -0.66012  -0.64731  -0.63927  -0.63421
 Alpha  occ. eigenvalues --   -0.62148  -0.61737  -0.61437  -0.60315  -0.60260
 Alpha  occ. eigenvalues --   -0.60099  -0.59065  -0.58532  -0.58512  -0.58217
 Alpha  occ. eigenvalues --   -0.57420  -0.56441  -0.55988  -0.55643  -0.54965
 Alpha  occ. eigenvalues --   -0.54804  -0.54463  -0.53752  -0.52992  -0.52834
 Alpha  occ. eigenvalues --   -0.52123  -0.51742  -0.51354  -0.50845  -0.50686
 Alpha  occ. eigenvalues --   -0.50425  -0.50299  -0.49570  -0.49481  -0.49365
 Alpha  occ. eigenvalues --   -0.48904  -0.48736  -0.48459  -0.48151  -0.47990
 Alpha  occ. eigenvalues --   -0.47857  -0.47523  -0.47201  -0.46985  -0.46781
 Alpha  occ. eigenvalues --   -0.46686  -0.46405  -0.45973  -0.45954  -0.45743
 Alpha  occ. eigenvalues --   -0.45411  -0.45173  -0.45053  -0.44855  -0.44683
 Alpha  occ. eigenvalues --   -0.44392  -0.44166  -0.43935  -0.43656  -0.43529
 Alpha  occ. eigenvalues --   -0.43420  -0.43174  -0.43010  -0.42796  -0.42644
 Alpha  occ. eigenvalues --   -0.42442  -0.42251  -0.42183  -0.42153  -0.41818
 Alpha  occ. eigenvalues --   -0.41593  -0.41291  -0.41236  -0.40987  -0.40879
 Alpha  occ. eigenvalues --   -0.40444  -0.40369  -0.40161  -0.39920  -0.39864
 Alpha  occ. eigenvalues --   -0.39575  -0.39493  -0.39429  -0.39133  -0.38876
 Alpha  occ. eigenvalues --   -0.38784  -0.38476  -0.38302  -0.38065  -0.37852
 Alpha  occ. eigenvalues --   -0.37617  -0.37269  -0.37060  -0.37009  -0.36379
 Alpha  occ. eigenvalues --   -0.35992  -0.35805  -0.35621  -0.35565  -0.35446
 Alpha  occ. eigenvalues --   -0.35273  -0.35178  -0.35150  -0.35116  -0.34759
 Alpha  occ. eigenvalues --   -0.34641  -0.34325  -0.33824  -0.33759  -0.33576
 Alpha  occ. eigenvalues --   -0.33279  -0.33120  -0.32746  -0.32132  -0.32077
 Alpha  occ. eigenvalues --   -0.31958  -0.31924  -0.31807  -0.30775  -0.30176
 Alpha  occ. eigenvalues --   -0.29999  -0.29782  -0.29270  -0.28618  -0.27707
 Alpha  occ. eigenvalues --   -0.27577  -0.26884  -0.26078  -0.24111  -0.21756
 Alpha  occ. eigenvalues --   -0.19646
 Alpha virt. eigenvalues --   -0.06986  -0.03517   0.00020   0.01771   0.03108
 Alpha virt. eigenvalues --    0.03392   0.04175   0.04849   0.05436   0.05537
 Alpha virt. eigenvalues --    0.06611   0.08688   0.09111   0.09434   0.09463

 Mulliken charges:
               1
     1  Mg   0.814360
     2  C    0.013018
     3  C   -0.187034
     4  C   -0.133405
     5  C   -0.193618
     6  N   -0.669789
     7  C    0.363628
     8  C   -0.154070
     9  C   -0.128994
    10  C    0.276239
    11  C   -0.293387
    12  C   -0.179166
    13  C   -0.227032
    14  C    0.597929
    15  O   -0.465326
    16  O   -0.502668
    17  N   -0.706186
    18  C    0.348183
    19  C    0.069478
    20  C    0.010290
    21  C    0.282908
    22  C   -0.403655
    23  C   -0.099462
    24  C   -0.246024
    25  N   -0.663243
    26  C    0.274705
    27  C    0.034541
    28  C    0.026497
    29  C    0.302048
    30  C   -0.387950
    31  C   -0.235584
    32  C   -0.265826
    33  N   -0.730711
    34  C    0.231939
    35  C    0.087379
    36  C    0.060270
    37  C    0.372642
    38  C   -0.404253
    39  C    0.329338
    40  O   -0.482516
    41  C   -0.296109
    42  C    0.649604
    43  O   -0.514478
    44  O   -0.451961
    45  C   -0.076734
    46  C    0.014682
    47  C   -0.144400
    48  C    0.160214
    49  C   -0.385023
    50  C   -0.224093
    51  C   -0.158137
    52  C   -0.160970
    53  C   -0.045995
    54  C   -0.297802
    55  C   -0.189932
    56  C   -0.180019
    57  C   -0.170953
    58  C   -0.035364
    59  C   -0.310651
    60  C   -0.153286
    61  C   -0.156321
    62  C   -0.153829
    63  C   -0.049214
    64  C   -0.296105
    65  C   -0.304791
    66  H    0.064854
    67  H    0.074139
    68  H    0.071035
    69  H    0.102506
    70  H    0.110726
    71  H    0.104524
    72  H    0.090364
    73  H    0.142900
    74  H    0.117950
    75  H    0.107960
    76  H    0.114209
    77  H    0.133907
    78  H    0.103753
    79  H    0.133285
    80  H    0.101233
    81  H    0.098167
    82  H    0.089989
    83  H    0.102651
    84  H    0.100308
    85  H    0.107577
    86  H    0.117606
    87  H    0.094373
    88  H    0.067769
    89  H    0.088581
    90  H    0.105158
    91  H    0.118599
    92  H    0.125272
    93  H    0.155117
    94  H    0.126067
    95  H    0.154909
    96  H    0.143742
    97  H    0.150759
    98  H    0.102345
    99  H    0.137442
   100  H    0.125124
   101  H    0.089205
   102  H    0.107199
   103  H    0.129979
   104  H    0.130378
   105  H    0.111308
   106  H    0.056628
   107  H    0.112138
   108  H    0.082071
   109  H    0.093579
   110  H    0.056086
   111  H    0.073458
   112  H    0.036856
   113  H    0.111176
   114  H    0.112143
   115  H    0.097568
   116  H    0.076634
   117  H    0.100465
   118  H    0.087662
   119  H    0.071910
   120  H    0.094667
   121  H    0.094818
   122  H    0.084580
   123  H    0.105734
   124  H    0.108818
   125  H    0.061363
   126  H    0.059558
   127  H    0.079406
   128  H    0.068843
   129  H    0.084387
   130  H    0.070024
   131  H    0.101489
   132  H    0.100054
   133  H    0.036456
   134  H    0.118261
   135  H    0.090631
   136  H    0.111953
   137  H    0.103781
 Sum of Mulliken charges =  -0.00000

 Dipole moment (field-independent basis, Debye):
    X=              2.7763    Y=              2.8926    Z=             -0.9417  Tot=              4.1185
 Quadrupole moment (field-independent basis, Debye-Ang):
   XX=           -354.3478   YY=           -397.0738   ZZ=           -398.4919
   XY=            -11.7878   XZ=              8.0311   YZ=             -3.2011

 Normal termination of Gaussian 16 at Tue Sep  3 19:08:27 2019.
