 Gaussian 16, Revision A.03,
 Gaussian 16:  ES64L-G16RevA.03 25-Dec-2016

 ----------------------------------------------------------------------
 # td=(NStates=1) iop(3/107=0140000000,3/108=0140000000) CAM-B3LYP/6-31
 G(d,p)
 ----------------------------------------------------------------------

 --
 TD
 --
 Symbolic Z-matrix:
 Charge =  0 Multiplicity = 1

                         Standard orientation:
 ---------------------------------------------------------------------
 Center     Atomic      Atomic             Coordinates (Angstroms)
 Number     Number       Type             X           Y           Z
 ---------------------------------------------------------------------
      1         12           0       -7.141401    0.621377    0.092043
      2          6           0       -4.843447   -1.983555    0.613047
      3          6           0       -4.771081    2.770461    1.143004
      4          6           0       -9.340986    3.172143   -0.383183
      5          6           0       -9.634685   -1.727574   -0.777970
      6          7           0       -5.016586    0.382654    0.665731
      7          6           0       -4.319465   -0.765724    0.799715
      8          6           0       -2.913538   -0.457007    1.151169
      9          6           0       -2.985943    1.066152    1.702528
     10          6           0       -4.247695    1.447288    1.123124
     11          6           0       -3.069471    1.217210    3.252196
     12          6           0       -2.007523   -0.677369    0.031443
     13          6           0       -0.533030   -0.584384    0.460294
     14          6           0        0.483495   -0.749889   -0.715256
     15          8           0        0.243855   -1.203166   -1.799447
     16          8           0        1.790248   -0.436745   -0.304635
     17          7           0       -7.077411    2.568088    0.405343
     18          6           0       -6.004717    3.340038    0.775591
     19          6           0       -6.315353    4.713946    0.837557
     20          6           0       -7.663397    4.861523    0.468241
     21          6           0       -8.092483    3.522195    0.195912
     22          6           0       -5.299510    5.812104    1.196013
     23          6           0       -8.391365    6.036879    0.209433
     24          6           0       -8.208109    7.333683    0.754802
     25          7           0       -9.098526    0.713712   -0.493081
     26          6           0       -9.825963    1.917261   -0.730147
     27          6           0      -11.238681    1.612801   -1.124810
     28          6           0      -11.156143    0.199605   -1.225257
     29          6           0       -9.925714   -0.330914   -0.812875
     30          6           0      -12.258085    2.629552   -1.372802
     31          6           0      -12.321421   -0.721821   -1.702264
     32          6           0      -12.303171   -0.890551   -3.172647
     33          7           0       -7.218549   -1.413650   -0.025777
     34          6           0       -8.340695   -2.148765   -0.452429
     35          6           0       -7.853636   -3.615503   -0.471421
     36          6           0       -6.535737   -3.493591   -0.015645
     37          6           0       -6.243776   -2.160288    0.148598
     38          6           0       -8.792326   -4.763088   -0.834684
     39          6           0       -5.373417   -4.352064    0.251111
     40          8           0       -5.310539   -5.529049    0.132010
     41          6           0       -4.311310   -3.348975    0.534037
     42          6           0       -3.513621   -3.714229    1.831983
     43          8           0       -3.671890   -3.180164    2.925224
     44          8           0       -2.833059   -4.799429    1.619717
     45          6           0       -2.325154   -5.421948    2.849651
     46          6           0        2.883240   -0.837254   -1.286137
     47          6           0        4.114645   -0.425282   -0.606954
     48          6           0        5.125483    0.317375   -1.019694
     49          6           0        4.951295    1.182842   -2.260431
     50          6           0        6.406461    0.427300   -0.318813
     51          6           0        7.611292   -0.060845   -1.030109
     52          6           0        8.878629   -0.031255   -0.259146
     53          6           0       10.209562   -0.459575   -0.947815
     54          6           0       10.156613   -1.892666   -1.425936
     55          6           0       11.364471   -0.230119    0.051622
     56          6           0       12.745893   -0.396942   -0.638424
     57          6           0       13.933492   -0.208338    0.299813
     58          6           0       15.238732   -0.335767   -0.351827
     59          6           0       15.650142   -1.741784   -0.816652
     60          6           0       16.474435    0.323422    0.464208
     61          6           0       17.881597    0.619444   -0.161053
     62          6           0       18.834231    1.329686    0.810512
     63          6           0       20.260215    1.379556    0.291628
     64          6           0       20.323580    2.218505   -0.996340
     65          6           0       21.283911    1.824885    1.240811
     66          1           0       -4.015818    3.419641    1.587005
     67          1           0      -10.151204    3.930151   -0.506044
     68          1           0      -10.393668   -2.338042   -1.205287
     69          1           0       -2.694878   -1.294716    1.978982
     70          1           0       -1.946104    1.420119    1.308276
     71          1           0       -2.115303    1.123315    3.791360
     72          1           0       -3.199176    2.283242    3.553680
     73          1           0       -3.771632    0.576695    3.504953
     74          1           0       -2.225377   -1.730084   -0.540388
     75          1           0       -2.281765    0.042835   -0.810695
     76          1           0       -0.359314    0.435407    0.895911
     77          1           0       -0.283405   -1.057366    1.476960
     78          1           0       -5.454180    6.353161    0.331121
     79          1           0       -5.600835    6.222077    2.380506
     80          1           0       -4.386201    5.442087    1.125954
     81          1           0       -9.200705    5.854148   -0.625304
     82          1           0       -8.821910    8.094782    0.242438
     83          1           0       -7.426804    7.490740    1.157839
     84          1           0      -12.064563    3.259422   -2.234775
     85          1           0      -13.158371    1.992204   -1.615755
     86          1           0      -12.359913    3.219857   -0.444592
     87          1           0      -12.521607   -1.680126   -1.326385
     88          1           0      -13.423806   -0.159601   -1.539187
     89          1           0      -12.994834   -1.591030   -3.457267
     90          1           0      -12.441073    0.208916   -3.597248
     91          1           0      -11.373469   -1.371515   -3.586306
     92          1           0       -8.983482   -4.537762   -2.030541
     93          1           0       -8.189477   -5.715930   -0.825883
     94          1           0       -9.842534   -4.854407   -0.344230
     95          1           0       -3.467130   -3.528505   -0.102775
     96          1           0       -1.757221   -4.776702    3.331480
     97          1           0       -3.163332   -5.770730    3.464667
     98          1           0       -1.828191   -6.275708    2.479704
     99          1           0        2.898049   -1.843218   -1.550192
    100          1           0        2.514812   -0.263810   -2.063306
    101          1           0        4.348284   -1.223486    0.333374
    102          1           0        3.991091    1.333242   -2.844452
    103          1           0        5.183238    2.202058   -2.029796
    104          1           0        5.708599    0.844255   -3.091975
    105          1           0        6.531702    1.441653   -0.042747
    106          1           0        6.162631   -0.047737    0.573985
    107          1           0        7.348659   -1.017691   -1.491190
    108          1           0        7.957937    0.617437   -1.795935
    109          1           0        9.197228    0.964193    0.014481
    110          1           0        8.958628   -0.605124    0.711064
    111          1           0       10.439307    0.042763   -1.723803
    112          1           0        9.414523   -2.116661   -2.089916
    113          1           0       11.144191   -2.197184   -1.979174
    114          1           0        9.935627   -2.533246   -0.610933
    115          1           0       11.462715    0.848100    0.475980
    116          1           0       11.282126   -1.044304    0.781349
    117          1           0       12.694833   -1.372980   -1.100451
    118          1           0       12.755926    0.150585   -1.493822
    119          1           0       13.793290    0.904675    0.559881
    120          1           0       13.770917   -0.635846    1.391108
    121          1           0       14.968334    0.308593   -1.269927
    122          1           0       15.595219   -2.396606    0.034420
    123          1           0       14.907659   -2.119124   -1.687333
    124          1           0       16.854580   -1.814170   -1.189647
    125          1           0       16.164016    1.165077    0.910053
    126          1           0       16.639635   -0.315528    1.270504
    127          1           0       18.255455   -0.342817   -0.445690
    128          1           0       17.604139    1.316838   -1.050883
    129          1           0       18.631277    2.402995    1.258770
    130          1           0       18.745275    0.735654    1.783138
    131          1           0       20.539836    0.320168   -0.030330
    132          1           0       19.932858    3.262919   -0.813770
    133          1           0       21.258558    2.252768   -1.523464
    134          1           0       19.746271    1.672546   -1.790359
    135          1           0       21.047768    1.329021    2.222160
    136          1           0       22.352639    1.735448    1.015796
    137          1           0       20.880243    2.835491    1.537944
 ---------------------------------------------------------------------

 SCF Done:  E(RCAM-B3LYP) =  -2933.49833594     A.U. after   16 cycles

 Excitation energies and oscillator strengths:

 Excited State   1:      Singlet-A      2.0049 eV  618.40 nm  f=0.2144  <S**2>=0.000
     240 -> 243       -0.22535
     241 -> 242        0.65681
 This state for optimization and/or second-order correction.
 Total Energy, E(TD-HF/TD-DFT) =  -2933.42465670
 Copying the excited state density for this state as the 1-particle RhoCI density.

 The electronic state is 1-A.
 Alpha  occ. eigenvalues --  -46.79397 -19.23039 -19.20264 -19.17177 -19.16243
 Alpha  occ. eigenvalues --  -19.16089 -14.36776 -14.35224 -14.34948 -14.34624
 Alpha  occ. eigenvalues --  -10.34728 -10.34238 -10.29718 -10.26220 -10.26162
 Alpha  occ. eigenvalues --  -10.25964 -10.25637 -10.24804 -10.24794 -10.24659
 Alpha  occ. eigenvalues --  -10.24522 -10.24487 -10.24301 -10.24281 -10.24053
 Alpha  occ. eigenvalues --  -10.24017 -10.23734 -10.23664 -10.23595 -10.23458
 Alpha  occ. eigenvalues --  -10.23231 -10.23119 -10.22741 -10.22728 -10.22503
 Alpha  occ. eigenvalues --  -10.22502 -10.22476 -10.22467 -10.22362 -10.22215
 Alpha  occ. eigenvalues --  -10.22175 -10.22154 -10.22079 -10.21931 -10.21892
 Alpha  occ. eigenvalues --  -10.21890 -10.21867 -10.21838 -10.21614 -10.21368
 Alpha  occ. eigenvalues --  -10.21334 -10.21273 -10.21268 -10.20859 -10.20730
 Alpha  occ. eigenvalues --  -10.20501 -10.20496 -10.20186 -10.20143 -10.20082
 Alpha  occ. eigenvalues --  -10.20009 -10.19856 -10.19660 -10.19573 -10.19253
 Alpha  occ. eigenvalues --   -3.08045  -1.82985  -1.82486  -1.82481  -1.14653
 Alpha  occ. eigenvalues --   -1.10944  -1.07895  -1.03844  -1.02960  -1.00935
 Alpha  occ. eigenvalues --   -0.98598  -0.97471  -0.95978  -0.88287  -0.87552
 Alpha  occ. eigenvalues --   -0.85947  -0.84957  -0.84760  -0.83997  -0.83852
 Alpha  occ. eigenvalues --   -0.83653  -0.82833  -0.82795  -0.81654  -0.81274
 Alpha  occ. eigenvalues --   -0.80423  -0.79506  -0.79225  -0.78554  -0.77941
 Alpha  occ. eigenvalues --   -0.77247  -0.76681  -0.75787  -0.75408  -0.73588
 Alpha  occ. eigenvalues --   -0.73490  -0.73086  -0.72334  -0.72214  -0.70912
 Alpha  occ. eigenvalues --   -0.70530  -0.70460  -0.69744  -0.68911  -0.67998
 Alpha  occ. eigenvalues --   -0.67438  -0.66048  -0.65383  -0.64295  -0.63687
 Alpha  occ. eigenvalues --   -0.63250  -0.62604  -0.61083  -0.60781  -0.60696
 Alpha  occ. eigenvalues --   -0.60477  -0.59771  -0.58741  -0.58270  -0.57940
 Alpha  occ. eigenvalues --   -0.57417  -0.56478  -0.56110  -0.55470  -0.55101
 Alpha  occ. eigenvalues --   -0.54767  -0.54198  -0.53963  -0.53595  -0.52455
 Alpha  occ. eigenvalues --   -0.52215  -0.52029  -0.51792  -0.51354  -0.51244
 Alpha  occ. eigenvalues --   -0.50913  -0.50651  -0.50283  -0.50151  -0.49436
 Alpha  occ. eigenvalues --   -0.49187  -0.48799  -0.48512  -0.48283  -0.48026
 Alpha  occ. eigenvalues --   -0.47803  -0.47617  -0.47383  -0.47130  -0.46750
 Alpha  occ. eigenvalues --   -0.46516  -0.46417  -0.46379  -0.46231  -0.45879
 Alpha  occ. eigenvalues --   -0.45840  -0.45691  -0.45474  -0.45168  -0.45118
 Alpha  occ. eigenvalues --   -0.44718  -0.44502  -0.44356  -0.44236  -0.43969
 Alpha  occ. eigenvalues --   -0.43683  -0.43442  -0.43216  -0.42814  -0.42670
 Alpha  occ. eigenvalues --   -0.42616  -0.42320  -0.42061  -0.41886  -0.41619
 Alpha  occ. eigenvalues --   -0.41480  -0.41396  -0.41281  -0.41189  -0.40943
 Alpha  occ. eigenvalues --   -0.40790  -0.40670  -0.40306  -0.40263  -0.40120
 Alpha  occ. eigenvalues --   -0.39865  -0.39603  -0.39468  -0.38995  -0.38853
 Alpha  occ. eigenvalues --   -0.38660  -0.38583  -0.38333  -0.38100  -0.37977
 Alpha  occ. eigenvalues --   -0.37681  -0.37607  -0.37362  -0.37215  -0.37041
 Alpha  occ. eigenvalues --   -0.36803  -0.36775  -0.36396  -0.36042  -0.35807
 Alpha  occ. eigenvalues --   -0.35743  -0.35426  -0.35331  -0.34984  -0.34435
 Alpha  occ. eigenvalues --   -0.34191  -0.34143  -0.33977  -0.33815  -0.33764
 Alpha  occ. eigenvalues --   -0.33509  -0.32786  -0.32597  -0.32325  -0.32197
 Alpha  occ. eigenvalues --   -0.32014  -0.31908  -0.31794  -0.31531  -0.30617
 Alpha  occ. eigenvalues --   -0.30116  -0.29690  -0.29130  -0.27847  -0.27815
 Alpha  occ. eigenvalues --   -0.27303  -0.26755  -0.25162  -0.24225  -0.21462
 Alpha  occ. eigenvalues --   -0.19677
 Alpha virt. eigenvalues --   -0.06967  -0.04100   0.00622   0.01609   0.03452
 Alpha virt. eigenvalues --    0.04013   0.04286   0.05028   0.05142   0.05951
 Alpha virt. eigenvalues --    0.07071   0.08489   0.09259   0.09308   0.09628

 Mulliken charges:
               1
     1  Mg   0.814945
     2  C    0.148414
     3  C   -0.218625
     4  C   -0.184375
     5  C   -0.134826
     6  N   -0.632239
     7  C    0.316680
     8  C   -0.182308
     9  C   -0.169657
    10  C    0.342346
    11  C   -0.292497
    12  C   -0.157650
    13  C   -0.273998
    14  C    0.608346
    15  O   -0.451571
    16  O   -0.515676
    17  N   -0.719602
    18  C    0.353154
    19  C   -0.035196
    20  C    0.076763
    21  C    0.281484
    22  C   -0.329275
    23  C   -0.130638
    24  C   -0.203719
    25  N   -0.716595
    26  C    0.259643
    27  C    0.048736
    28  C   -0.005985
    29  C    0.343042
    30  C   -0.380235
    31  C   -0.260550
    32  C   -0.283360
    33  N   -0.731954
    34  C    0.246645
    35  C    0.011403
    36  C   -0.022598
    37  C    0.336889
    38  C   -0.378167
    39  C    0.401277
    40  O   -0.443271
    41  C   -0.357073
    42  C    0.590966
    43  O   -0.488620
    44  O   -0.425429
    45  C   -0.089787
    46  C    0.022291
    47  C   -0.127962
    48  C    0.137184
    49  C   -0.374671
    50  C   -0.214098
    51  C   -0.165752
    52  C   -0.174011
    53  C   -0.064015
    54  C   -0.315190
    55  C   -0.173233
    56  C   -0.195451
    57  C   -0.167874
    58  C   -0.039046
    59  C   -0.293345
    60  C   -0.195805
    61  C   -0.170903
    62  C   -0.162922
    63  C   -0.045418
    64  C   -0.303532
    65  C   -0.298219
    66  H    0.065413
    67  H    0.078826
    68  H    0.096365
    69  H    0.110537
    70  H    0.090854
    71  H    0.102858
    72  H    0.107833
    73  H    0.141654
    74  H    0.104331
    75  H    0.112407
    76  H    0.127501
    77  H    0.137841
    78  H    0.139576
    79  H    0.100614
    80  H    0.117182
    81  H    0.082165
    82  H    0.099319
    83  H    0.075972
    84  H    0.134866
    85  H    0.111746
    86  H    0.132012
    87  H    0.108012
    88  H    0.067200
    89  H    0.108463
    90  H    0.090508
    91  H    0.095971
    92  H    0.104093
    93  H    0.146686
    94  H    0.129386
    95  H    0.160243
    96  H    0.144691
    97  H    0.139397
    98  H    0.132013
    99  H    0.138312
   100  H    0.129219
   101  H    0.053992
   102  H    0.113127
   103  H    0.119673
   104  H    0.103426
   105  H    0.105810
   106  H    0.107866
   107  H    0.097181
   108  H    0.102960
   109  H    0.093547
   110  H    0.076417
   111  H    0.085691
   112  H    0.109013
   113  H    0.084034
   114  H    0.102340
   115  H    0.076648
   116  H    0.095351
   117  H    0.091715
   118  H    0.099115
   119  H    0.082291
   120  H    0.072536
   121  H    0.070402
   122  H    0.112970
   123  H    0.086041
   124  H    0.072560
   125  H    0.094862
   126  H    0.090028
   127  H    0.102013
   128  H    0.092277
   129  H    0.074438
   130  H    0.080797
   131  H    0.070221
   132  H    0.091351
   133  H    0.100361
   134  H    0.096606
   135  H    0.088352
   136  H    0.110615
   137  H    0.086023
 Sum of Mulliken charges =  -0.00000

 Dipole moment (field-independent basis, Debye):
    X=              2.5633    Y=              1.9647    Z=             -0.2351  Tot=              3.2382
 Quadrupole moment (field-independent basis, Debye-Ang):
   XX=           -363.9972   YY=           -392.2680   ZZ=           -396.6883
   XY=             -7.5118   XZ=             13.3547   YZ=             -6.9874

 Normal termination of Gaussian 16 at Thu Sep 12 01:18:37 2019.
