 Gaussian 16, Revision A.03,
 Gaussian 16:  ES64L-G16RevA.03 25-Dec-2016

 ----------------------------------------------------------------------
 # td=(NStates=1) iop(3/107=0140000000,3/108=0140000000) CAM-B3LYP/6-31
 G(d,p)
 ----------------------------------------------------------------------

 --
 TD
 --
 Symbolic Z-matrix:
 Charge =  0 Multiplicity = 1

                         Standard orientation:
 ---------------------------------------------------------------------
 Center     Atomic      Atomic             Coordinates (Angstroms)
 Number     Number       Type             X           Y           Z
 ---------------------------------------------------------------------
      1         12           0       -7.056446    0.629586    0.203829
      2          6           0       -4.876869   -1.949797    0.440413
      3          6           0       -4.762198    2.762012    1.162005
      4          6           0       -9.407924    3.123284   -0.247962
      5          6           0       -9.573442   -1.694476   -0.811749
      6          7           0       -5.048892    0.384660    0.733087
      7          6           0       -4.348848   -0.627403    0.793842
      8          6           0       -2.887642   -0.403670    1.150463
      9          6           0       -2.981699    1.091412    1.580977
     10          6           0       -4.280074    1.494130    1.185554
     11          6           0       -2.899278    1.291992    3.144801
     12          6           0       -1.960846   -0.796864    0.026739
     13          6           0       -0.451492   -0.543859    0.476481
     14          6           0        0.516114   -0.860466   -0.579371
     15          8           0        0.287238   -1.196039   -1.700228
     16          8           0        1.831199   -0.564650   -0.211796
     17          7           0       -7.073167    2.631078    0.525128
     18          6           0       -6.004947    3.343153    0.862296
     19          6           0       -6.332145    4.806736    0.774985
     20          6           0       -7.607510    4.959477    0.179551
     21          6           0       -8.102234    3.518917    0.053038
     22          6           0       -5.375034    5.942835    1.074464
     23          6           0       -8.414010    6.088182   -0.023343
     24          6           0       -8.292019    7.303712    0.602554
     25          7           0       -9.111750    0.665214   -0.407703
     26          6           0       -9.875327    1.813459   -0.504671
     27          6           0      -11.166701    1.548828   -1.117546
     28          6           0      -11.196673    0.190820   -1.232532
     29          6           0       -9.950655   -0.387506   -0.910962
     30          6           0      -12.291545    2.478356   -1.348840
     31          6           0      -12.368106   -0.699423   -1.777547
     32          6           0      -12.170456   -1.230104   -3.193254
     33          7           0       -7.163569   -1.385693   -0.198522
     34          6           0       -8.243397   -2.115727   -0.556158
     35          6           0       -7.931069   -3.579532   -0.504669
     36          6           0       -6.548354   -3.609450   -0.145754
     37          6           0       -6.180577   -2.215323    0.087245
     38          6           0       -8.773912   -4.781593   -0.691448
     39          6           0       -5.349212   -4.448028    0.200944
     40          8           0       -5.173350   -5.625431    0.152460
     41          6           0       -4.245827   -3.381301    0.543430
     42          6           0       -3.663845   -3.655337    1.956344
     43          8           0       -3.786141   -3.101759    3.031450
     44          8           0       -2.625471   -4.615151    1.859480
     45          6           0       -2.069543   -5.144799    3.060772
     46          6           0        2.875691   -0.711008   -1.208371
     47          6           0        4.128421   -0.427037   -0.511724
     48          6           0        5.065042    0.388770   -1.023060
     49          6           0        5.007330    1.218001   -2.274617
     50          6           0        6.410709    0.426086   -0.299681
     51          6           0        7.576726   -0.334361   -1.037084
     52          6           0        8.859667    0.010266   -0.338038
     53          6           0       10.142292   -0.625335   -1.000015
     54          6           0       10.030502   -2.157951   -1.428275
     55          6           0       11.406219   -0.385659   -0.096218
     56          6           0       12.779502   -0.650174   -0.888320
     57          6           0       13.924468   -0.166379    0.098142
     58          6           0       15.268895   -0.055831   -0.574894
     59          6           0       15.741540   -1.608077   -0.869563
     60          6           0       16.328522    0.445398    0.428946
     61          6           0       17.670889    0.673725   -0.185592
     62          6           0       18.682744    1.285037    0.936829
     63          6           0       20.227767    1.405204    0.457253
     64          6           0       20.272910    2.152495   -0.898011
     65          6           0       21.057409    2.009612    1.508123
     66          1           0       -3.890672    3.413570    1.303425
     67          1           0      -10.028470    4.031356   -0.295390
     68          1           0      -10.307140   -2.514030   -1.137309
     69          1           0       -2.444950   -0.914162    2.033980
     70          1           0       -2.381038    2.040429    1.017229
     71          1           0       -1.883330    0.980566    3.480801
     72          1           0       -3.108353    2.407194    3.376893
     73          1           0       -3.749702    0.702743    3.642516
     74          1           0       -1.984915   -1.798623   -0.382286
     75          1           0       -2.140654   -0.284587   -0.769819
     76          1           0       -0.440876    0.498101    0.720783
     77          1           0       -0.401051   -1.212493    1.290262
     78          1           0       -5.545349    6.762700    0.588183
     79          1           0       -5.282507    6.005629    2.065971
     80          1           0       -4.275938    5.740649    1.049135
     81          1           0       -8.986466    6.027743   -0.905150
     82          1           0       -9.071460    8.146912    0.448307
     83          1           0       -7.508862    7.580780    1.344541
     84          1           0      -12.459721    2.990815   -2.324275
     85          1           0      -13.339019    2.022165   -1.170125
     86          1           0      -12.162469    3.368822   -0.462284
     87          1           0      -12.545694   -1.511239   -1.088516
     88          1           0      -13.274637   -0.153642   -1.520849
     89          1           0      -13.205363   -1.708739   -3.356953
     90          1           0      -12.265045   -0.166796   -3.849120
     91          1           0      -11.251616   -1.634467   -3.485011
     92          1           0       -9.373220   -4.547886   -1.685916
     93          1           0       -8.282462   -5.762389   -0.864187
     94          1           0       -9.624612   -4.866185   -0.002416
     95          1           0       -3.599415   -3.469050   -0.238189
     96          1           0       -1.637800   -4.347421    3.573166
     97          1           0       -2.822015   -5.808892    3.562814
     98          1           0       -1.378220   -5.932380    2.810297
     99          1           0        2.850501   -1.769644   -1.521490
    100          1           0        2.800753   -0.053687   -2.065867
    101          1           0        4.209727   -1.081098    0.472404
    102          1           0        4.049924    0.900417   -2.864948
    103          1           0        5.168426    2.338224   -2.067804
    104          1           0        5.949130    0.936547   -2.859474
    105          1           0        6.583645    1.536654   -0.401139
    106          1           0        6.250292    0.259140    0.841057
    107          1           0        7.402789   -1.362620   -1.145226
    108          1           0        7.646872    0.168248   -2.079425
    109          1           0        8.932284    1.011741   -0.144276
    110          1           0        8.739601   -0.557277    0.560044
    111          1           0       10.474603   -0.039403   -1.997622
    112          1           0        9.103514   -2.293075   -1.961414
    113          1           0       10.849660   -2.563293   -1.878121
    114          1           0        9.983109   -2.806810   -0.482122
    115          1           0       11.686935    0.536638    0.363435
    116          1           0       11.150420   -1.058540    0.753485
    117          1           0       12.623628   -1.691074   -0.918341
    118          1           0       12.720693   -0.200735   -1.900458
    119          1           0       13.500290    0.805781    0.290689
    120          1           0       13.811280   -0.873935    0.859069
    121          1           0       15.206640    0.447569   -1.464136
    122          1           0       15.689808   -2.301666    0.084681
    123          1           0       15.294813   -2.158491   -1.909468
    124          1           0       16.783739   -1.450585   -1.130982
    125          1           0       15.961924    1.527721    0.691503
    126          1           0       16.408121   -0.138982    1.318964
    127          1           0       17.894068   -0.400428   -0.409402
    128          1           0       17.442561    1.166041   -1.162830
    129          1           0       18.302920    2.429664    0.836126
    130          1           0       18.811016    0.636385    1.862689
    131          1           0       20.872864    0.378625    0.204054
    132          1           0       19.888231    3.136930   -1.068763
    133          1           0       21.213138    2.251618   -1.193517
    134          1           0       19.609315    1.615459   -1.554316
    135          1           0       20.670519    1.519138    2.450877
    136          1           0       22.248258    1.989050    1.402084
    137          1           0       20.718530    3.172398    1.317127
 ---------------------------------------------------------------------

 SCF Done:  E(RCAM-B3LYP) =  -2933.47889233     A.U. after   16 cycles

 Excitation energies and oscillator strengths:

 Excited State   1:      Singlet-A      2.0018 eV  619.38 nm  f=0.2902  <S**2>=0.000
     240 -> 243        0.22955
     241 -> 242        0.66553
 This state for optimization and/or second-order correction.
 Total Energy, E(TD-HF/TD-DFT) =  -2933.40532907
 Copying the excited state density for this state as the 1-particle RhoCI density.

 The electronic state is 1-A.
 Alpha  occ. eigenvalues --  -46.80731 -19.20129 -19.19678 -19.17110 -19.16722
 Alpha  occ. eigenvalues --  -19.16604 -14.37861 -14.36025 -14.34933 -14.34730
 Alpha  occ. eigenvalues --  -10.34932 -10.34058 -10.30826 -10.26980 -10.26052
 Alpha  occ. eigenvalues --  -10.26027 -10.25953 -10.25549 -10.25357 -10.25319
 Alpha  occ. eigenvalues --  -10.25213 -10.24634 -10.24491 -10.24290 -10.24095
 Alpha  occ. eigenvalues --  -10.24084 -10.23816 -10.23753 -10.23637 -10.23557
 Alpha  occ. eigenvalues --  -10.23528 -10.23472 -10.23263 -10.23203 -10.22980
 Alpha  occ. eigenvalues --  -10.22889 -10.22880 -10.22869 -10.22868 -10.22801
 Alpha  occ. eigenvalues --  -10.22757 -10.22586 -10.22473 -10.22346 -10.22301
 Alpha  occ. eigenvalues --  -10.22217 -10.22058 -10.21919 -10.21641 -10.21637
 Alpha  occ. eigenvalues --  -10.21602 -10.21598 -10.21421 -10.21392 -10.21280
 Alpha  occ. eigenvalues --  -10.21265 -10.20861 -10.20691 -10.20514 -10.20157
 Alpha  occ. eigenvalues --  -10.20119 -10.20029 -10.19985 -10.19973 -10.17988
 Alpha  occ. eigenvalues --   -3.09208  -1.84161  -1.83662  -1.83620  -1.11933
 Alpha  occ. eigenvalues --   -1.10877  -1.07683  -1.03682  -1.02771  -1.02653
 Alpha  occ. eigenvalues --   -0.99250  -0.97430  -0.95863  -0.87103  -0.86440
 Alpha  occ. eigenvalues --   -0.85791  -0.85247  -0.84947  -0.84193  -0.83618
 Alpha  occ. eigenvalues --   -0.83072  -0.82780  -0.82343  -0.81887  -0.80974
 Alpha  occ. eigenvalues --   -0.80381  -0.79509  -0.78282  -0.77973  -0.77772
 Alpha  occ. eigenvalues --   -0.76570  -0.75819  -0.75156  -0.74143  -0.73690
 Alpha  occ. eigenvalues --   -0.73421  -0.72203  -0.71675  -0.71488  -0.71093
 Alpha  occ. eigenvalues --   -0.70416  -0.69663  -0.68869  -0.68223  -0.67610
 Alpha  occ. eigenvalues --   -0.67239  -0.66471  -0.64981  -0.64354  -0.64278
 Alpha  occ. eigenvalues --   -0.63227  -0.62135  -0.61990  -0.60735  -0.60417
 Alpha  occ. eigenvalues --   -0.59704  -0.59690  -0.58737  -0.57955  -0.57730
 Alpha  occ. eigenvalues --   -0.56761  -0.56250  -0.56095  -0.55650  -0.54737
 Alpha  occ. eigenvalues --   -0.54438  -0.54049  -0.53740  -0.53416  -0.53308
 Alpha  occ. eigenvalues --   -0.52391  -0.51768  -0.51608  -0.50903  -0.50862
 Alpha  occ. eigenvalues --   -0.50796  -0.50389  -0.50361  -0.49735  -0.49660
 Alpha  occ. eigenvalues --   -0.49315  -0.48801  -0.48560  -0.48110  -0.48061
 Alpha  occ. eigenvalues --   -0.47708  -0.47504  -0.47267  -0.46953  -0.46813
 Alpha  occ. eigenvalues --   -0.46633  -0.46515  -0.46309  -0.45995  -0.45855
 Alpha  occ. eigenvalues --   -0.45773  -0.45413  -0.44998  -0.44917  -0.44804
 Alpha  occ. eigenvalues --   -0.44601  -0.44526  -0.44303  -0.44161  -0.44076
 Alpha  occ. eigenvalues --   -0.43848  -0.43561  -0.43223  -0.42813  -0.42320
 Alpha  occ. eigenvalues --   -0.42120  -0.41883  -0.41725  -0.41674  -0.41525
 Alpha  occ. eigenvalues --   -0.41409  -0.41159  -0.40940  -0.40870  -0.40751
 Alpha  occ. eigenvalues --   -0.40744  -0.40477  -0.40260  -0.39855  -0.39731
 Alpha  occ. eigenvalues --   -0.39648  -0.39599  -0.39431  -0.39354  -0.39157
 Alpha  occ. eigenvalues --   -0.38896  -0.38778  -0.38566  -0.38472  -0.38129
 Alpha  occ. eigenvalues --   -0.37998  -0.37839  -0.37587  -0.37483  -0.37282
 Alpha  occ. eigenvalues --   -0.37146  -0.36945  -0.36503  -0.36240  -0.36108
 Alpha  occ. eigenvalues --   -0.35952  -0.35529  -0.35292  -0.35085  -0.34553
 Alpha  occ. eigenvalues --   -0.34169  -0.33950  -0.33824  -0.33755  -0.33529
 Alpha  occ. eigenvalues --   -0.33194  -0.32335  -0.32293  -0.32086  -0.31676
 Alpha  occ. eigenvalues --   -0.31339  -0.31323  -0.30544  -0.30494  -0.30293
 Alpha  occ. eigenvalues --   -0.30011  -0.29494  -0.29426  -0.28227  -0.27111
 Alpha  occ. eigenvalues --   -0.26790  -0.26408  -0.25283  -0.24606  -0.21945
 Alpha  occ. eigenvalues --   -0.19231
 Alpha virt. eigenvalues --   -0.06632  -0.03943  -0.00371   0.01561   0.03062
 Alpha virt. eigenvalues --    0.03758   0.04414   0.04768   0.04861   0.05127
 Alpha virt. eigenvalues --    0.06739   0.08005   0.09367   0.09450   0.09635

 Mulliken charges:
               1
     1  Mg   0.810132
     2  C   -0.009846
     3  C   -0.203144
     4  C   -0.167173
     5  C   -0.171091
     6  N   -0.621762
     7  C    0.357182
     8  C   -0.155806
     9  C   -0.177997
    10  C    0.346346
    11  C   -0.299300
    12  C   -0.175852
    13  C   -0.275621
    14  C    0.598443
    15  O   -0.450376
    16  O   -0.503570
    17  N   -0.700250
    18  C    0.354900
    19  C   -0.008286
    20  C    0.032380
    21  C    0.244145
    22  C   -0.363861
    23  C   -0.094172
    24  C   -0.249438
    25  N   -0.682351
    26  C    0.297315
    27  C    0.075400
    28  C   -0.003787
    29  C    0.294725
    30  C   -0.388993
    31  C   -0.237770
    32  C   -0.286614
    33  N   -0.710502
    34  C    0.284314
    35  C    0.013538
    36  C    0.000024
    37  C    0.296740
    38  C   -0.390241
    39  C    0.363162
    40  O   -0.432024
    41  C   -0.288757
    42  C    0.603631
    43  O   -0.459174
    44  O   -0.477027
    45  C   -0.071217
    46  C    0.029119
    47  C   -0.103994
    48  C    0.104322
    49  C   -0.359862
    50  C   -0.228503
    51  C   -0.173364
    52  C   -0.151144
    53  C   -0.065848
    54  C   -0.327449
    55  C   -0.190502
    56  C   -0.206809
    57  C   -0.153488
    58  C   -0.055824
    59  C   -0.313969
    60  C   -0.162923
    61  C   -0.189334
    62  C   -0.165352
    63  C   -0.053097
    64  C   -0.321506
    65  C   -0.263205
    66  H    0.064478
    67  H    0.088692
    68  H    0.087219
    69  H    0.123043
    70  H    0.089691
    71  H    0.113200
    72  H    0.106202
    73  H    0.130874
    74  H    0.127502
    75  H    0.124853
    76  H    0.147113
    77  H    0.144136
    78  H    0.126204
    79  H    0.134590
    80  H    0.097757
    81  H    0.105937
    82  H    0.098182
    83  H    0.107864
    84  H    0.126390
    85  H    0.112683
    86  H    0.085268
    87  H    0.102351
    88  H    0.096605
    89  H    0.106706
    90  H    0.072376
    91  H    0.131820
    92  H    0.101724
    93  H    0.149431
    94  H    0.138294
    95  H    0.170067
    96  H    0.125237
    97  H    0.115870
    98  H    0.120620
    99  H    0.117216
   100  H    0.101696
   101  H    0.082634
   102  H    0.104814
   103  H    0.120336
   104  H    0.119426
   105  H    0.082195
   106  H    0.093914
   107  H    0.111616
   108  H    0.079900
   109  H    0.104316
   110  H    0.095895
   111  H    0.052995
   112  H    0.110937
   113  H    0.124015
   114  H    0.084194
   115  H    0.084704
   116  H    0.080289
   117  H    0.109695
   118  H    0.087797
   119  H    0.088926
   120  H    0.104567
   121  H    0.090084
   122  H    0.093033
   123  H    0.071569
   124  H    0.104342
   125  H    0.063384
   126  H    0.096386
   127  H    0.097281
   128  H    0.096091
   129  H    0.096288
   130  H    0.099418
   131  H    0.052951
   132  H    0.091475
   133  H    0.106858
   134  H    0.106942
   135  H    0.091475
   136  H    0.091210
   137  H    0.072515
 Sum of Mulliken charges =  -0.00000

 Dipole moment (field-independent basis, Debye):
    X=              1.5508    Y=              4.3491    Z=              0.2480  Tot=              4.6240
 Quadrupole moment (field-independent basis, Debye-Ang):
   XX=           -356.5070   YY=           -392.0557   ZZ=           -400.2930
   XY=            -18.4433   XZ=              7.1483   YZ=             -3.9663

 Normal termination of Gaussian 16 at Fri Sep  6 21:55:58 2019.
