 Gaussian 16, Revision A.03,
 Gaussian 16:  ES64L-G16RevA.03 25-Dec-2016

 ----------------------------------------------------------------------
 # td=(NStates=1) iop(3/107=0140000000,3/108=0140000000) CAM-B3LYP/6-31
 G(d,p)
 ----------------------------------------------------------------------

 --
 TD
 --
 Symbolic Z-matrix:
 Charge =  0 Multiplicity = 1

                         Standard orientation:
 ---------------------------------------------------------------------
 Center     Atomic      Atomic             Coordinates (Angstroms)
 Number     Number       Type             X           Y           Z
 ---------------------------------------------------------------------
      1         12           0       -7.219716    0.723609    0.162792
      2          6           0       -4.860072   -1.942100    0.467936
      3          6           0       -4.795234    2.792112    1.102497
      4          6           0       -9.333942    3.201537   -0.502843
      5          6           0       -9.609303   -1.640168   -1.022850
      6          7           0       -5.093630    0.461723    0.606243
      7          6           0       -4.353715   -0.721054    0.745731
      8          6           0       -3.004057   -0.482518    1.256862
      9          6           0       -3.113751    0.969842    1.745360
     10          6           0       -4.366428    1.492796    1.145165
     11          6           0       -2.905283    0.981025    3.278623
     12          6           0       -1.907159   -0.674275    0.045541
     13          6           0       -0.552089   -0.466521    0.676467
     14          6           0        0.526621   -0.945771   -0.461422
     15          8           0        0.232213   -1.259198   -1.558662
     16          8           0        1.703204   -0.524733   -0.128505
     17          7           0       -7.013034    2.720700    0.290053
     18          6           0       -5.949830    3.372542    0.857672
     19          6           0       -6.261950    4.817561    0.930500
     20          6           0       -7.631851    4.957030    0.433629
     21          6           0       -8.077522    3.588896    0.079090
     22          6           0       -5.232445    5.929281    1.344369
     23          6           0       -8.446644    6.113739    0.175776
     24          6           0       -8.226454    7.370690    0.642760
     25          7           0       -9.169749    0.712694   -0.514729
     26          6           0       -9.878514    1.912051   -0.716620
     27          6           0      -11.285352    1.655527   -1.176269
     28          6           0      -11.217613    0.310470   -1.264185
     29          6           0       -9.974804   -0.292476   -0.920414
     30          6           0      -12.317137    2.715419   -1.412093
     31          6           0      -12.447804   -0.563120   -1.701269
     32          6           0      -12.414054   -1.026222   -3.257555
     33          7           0       -7.262790   -1.360689   -0.189815
     34          6           0       -8.328619   -2.208945   -0.593274
     35          6           0       -7.963978   -3.559466   -0.621965
     36          6           0       -6.598356   -3.598288   -0.262615
     37          6           0       -6.247743   -2.148866   -0.002889
     38          6           0       -8.777133   -4.729612   -0.916528
     39          6           0       -5.459517   -4.377418    0.184171
     40          8           0       -5.233426   -5.543754    0.257220
     41          6           0       -4.293017   -3.374792    0.570626
     42          6           0       -3.756346   -3.761278    1.916281
     43          8           0       -3.846274   -3.263556    3.032830
     44          8           0       -3.019089   -4.793699    1.724839
     45          6           0       -2.314124   -5.434541    2.866729
     46          6           0        2.778858   -0.939797   -1.020224
     47          6           0        4.083596   -0.446163   -0.336524
     48          6           0        5.094811    0.155032   -0.975212
     49          6           0        5.089107    0.827211   -2.363720
     50          6           0        6.523214    0.306841   -0.238353
     51          6           0        7.762064   -0.336506   -0.964265
     52          6           0        9.012300   -0.172834   -0.166049
     53          6           0       10.224983   -0.705068   -0.929366
     54          6           0       10.213157   -2.168627   -1.262976
     55          6           0       11.467784   -0.233210   -0.185684
     56          6           0       12.854384   -0.535069   -0.793861
     57          6           0       13.913746   -0.100065    0.216213
     58          6           0       15.370630   -0.094708   -0.478538
     59          6           0       15.692422   -1.501794   -0.748135
     60          6           0       16.449524    0.602363    0.413911
     61          6           0       17.853409    0.793668   -0.133133
     62          6           0       18.882728    1.465357    0.792237
     63          6           0       20.362256    1.306624    0.151824
     64          6           0       20.376931    2.166733   -1.140465
     65          6           0       21.233056    1.989892    1.245231
     66          1           0       -4.062643    3.199665    1.523006
     67          1           0      -10.296558    3.984648   -0.607476
     68          1           0      -10.433148   -2.325975   -1.259490
     69          1           0       -2.613020   -1.047231    2.079727
     70          1           0       -2.237229    1.472407    1.326058
     71          1           0       -1.957296    0.747261    3.636521
     72          1           0       -3.208028    2.012479    3.838330
     73          1           0       -3.529642    0.123223    3.572446
     74          1           0       -1.860704   -1.644111   -0.136407
     75          1           0       -2.157410   -0.026163   -0.781617
     76          1           0       -0.105739    0.473415    1.154980
     77          1           0       -0.140829   -0.945755    1.604055
     78          1           0       -5.197562    6.851031    0.667411
     79          1           0       -5.490974    6.431530    2.435626
     80          1           0       -4.393825    5.439484    1.215185
     81          1           0       -9.235317    5.899055   -0.705666
     82          1           0       -8.877387    8.319800    0.272314
     83          1           0       -7.308896    7.546569    1.341290
     84          1           0      -11.958900    3.551503   -2.128037
     85          1           0      -13.273116    2.170105   -1.728280
     86          1           0      -12.436581    3.336969   -0.498193
     87          1           0      -12.557616   -1.425186   -1.020402
     88          1           0      -13.459404   -0.246648   -1.609131
     89          1           0      -13.413381   -1.409852   -3.598676
     90          1           0      -12.177726    0.081917   -3.652017
     91          1           0      -11.528257   -1.836271   -3.588899
     92          1           0       -9.071660   -4.653740   -2.019389
     93          1           0       -8.053367   -5.569468   -0.903970
     94          1           0       -9.603523   -4.818325   -0.331596
     95          1           0       -3.617946   -3.478137   -0.407247
     96          1           0       -1.847036   -4.545510    3.499980
     97          1           0       -3.193942   -6.007617    3.567381
     98          1           0       -1.533673   -6.020694    2.508760
     99          1           0        2.820357   -2.040951   -1.087807
    100          1           0        2.627502   -0.398185   -2.009168
    101          1           0        4.202243   -1.049132    0.653201
    102          1           0        3.928439    0.997615   -2.708841
    103          1           0        5.533145    1.831517   -2.326776
    104          1           0        5.688272    0.319825   -3.201179
    105          1           0        6.698623    1.408019   -0.182842
    106          1           0        6.524284   -0.193545    0.729958
    107          1           0        7.446847   -1.464992   -0.999241
    108          1           0        7.847428   -0.006687   -2.119973
    109          1           0        9.287780    0.817676    0.269455
    110          1           0        8.830405   -0.784029    0.888663
    111          1           0       10.210039   -0.147189   -1.917126
    112          1           0        9.440490   -2.563499   -1.916630
    113          1           0       11.229421   -2.395542   -1.701141
    114          1           0        9.900208   -2.672103   -0.330529
    115          1           0       11.505004    0.688042    0.082212
    116          1           0       11.498108   -0.817263    0.764293
    117          1           0       13.052562   -1.451162   -1.128707
    118          1           0       13.174000    0.334107   -1.671841
    119          1           0       13.749637    0.995126    0.472286
    120          1           0       13.961171   -0.587809    1.271671
    121          1           0       15.406207    0.409320   -1.360490
    122          1           0       16.005331   -2.281050    0.189820
    123          1           0       14.956063   -2.014223   -1.472693
    124          1           0       16.712844   -1.611440   -1.221695
    125          1           0       16.277939    1.673712    0.792941
    126          1           0       16.524653   -0.092799    1.224767
    127          1           0       18.381449   -0.260863   -0.333161
    128          1           0       17.806428    1.228604   -1.113710
    129          1           0       18.665358    2.549087    1.235434
    130          1           0       19.135967    0.893018    1.655037
    131          1           0       20.732172    0.266753   -0.236759
    132          1           0       19.875654    3.116416   -1.160550
    133          1           0       21.356414    2.277484   -1.733942
    134          1           0       19.976154    1.679808   -2.115063
    135          1           0       21.222080    1.360331    2.152284
    136          1           0       22.321452    2.256732    0.799365
    137          1           0       20.855761    3.066278    1.388920
 ---------------------------------------------------------------------

 SCF Done:  E(RCAM-B3LYP) =  -2933.45009856     A.U. after   16 cycles

 Excitation energies and oscillator strengths:

 Excited State   1:      Singlet-A      1.9586 eV  633.04 nm  f=0.2687  <S**2>=0.000
     240 -> 243        0.19700
     241 -> 242        0.67543
 This state for optimization and/or second-order correction.
 Total Energy, E(TD-HF/TD-DFT) =  -2933.37812255
 Copying the excited state density for this state as the 1-particle RhoCI density.

 The electronic state is 1-A.
 Alpha  occ. eigenvalues --  -46.80639 -19.21877 -19.21218 -19.16075 -19.15103
 Alpha  occ. eigenvalues --  -19.14839 -14.37159 -14.35329 -14.35299 -14.35287
 Alpha  occ. eigenvalues --  -10.33478 -10.33335 -10.29582 -10.28674 -10.28404
 Alpha  occ. eigenvalues --  -10.26218 -10.26029 -10.25410 -10.25408 -10.24952
 Alpha  occ. eigenvalues --  -10.24747 -10.24498 -10.24376 -10.24334 -10.24331
 Alpha  occ. eigenvalues --  -10.24055 -10.24035 -10.23984 -10.23863 -10.23738
 Alpha  occ. eigenvalues --  -10.23703 -10.23658 -10.23579 -10.23548 -10.23511
 Alpha  occ. eigenvalues --  -10.23376 -10.23354 -10.23089 -10.23077 -10.22919
 Alpha  occ. eigenvalues --  -10.22708 -10.22601 -10.22586 -10.22499 -10.22245
 Alpha  occ. eigenvalues --  -10.22243 -10.22083 -10.22079 -10.21984 -10.21903
 Alpha  occ. eigenvalues --  -10.21902 -10.21892 -10.21838 -10.21749 -10.21748
 Alpha  occ. eigenvalues --  -10.21595 -10.21193 -10.21108 -10.20897 -10.20794
 Alpha  occ. eigenvalues --  -10.20630 -10.20530 -10.20522 -10.19709 -10.19175
 Alpha  occ. eigenvalues --   -3.09043  -1.83992  -1.83516  -1.83435  -1.15100
 Alpha  occ. eigenvalues --   -1.13592  -1.06784  -1.05406  -1.02031  -0.98829
 Alpha  occ. eigenvalues --   -0.98044  -0.97733  -0.96815  -0.86191  -0.86179
 Alpha  occ. eigenvalues --   -0.84829  -0.84574  -0.84072  -0.83984  -0.83144
 Alpha  occ. eigenvalues --   -0.82889  -0.82788  -0.82488  -0.81915  -0.80712
 Alpha  occ. eigenvalues --   -0.80066  -0.78884  -0.78082  -0.77666  -0.76727
 Alpha  occ. eigenvalues --   -0.76449  -0.76284  -0.75714  -0.75273  -0.73020
 Alpha  occ. eigenvalues --   -0.72541  -0.72053  -0.71271  -0.71117  -0.70629
 Alpha  occ. eigenvalues --   -0.70541  -0.70229  -0.69076  -0.69036  -0.68493
 Alpha  occ. eigenvalues --   -0.66782  -0.65741  -0.64306  -0.63914  -0.63283
 Alpha  occ. eigenvalues --   -0.62436  -0.61382  -0.60987  -0.60367  -0.60217
 Alpha  occ. eigenvalues --   -0.59397  -0.59024  -0.58822  -0.58527  -0.58232
 Alpha  occ. eigenvalues --   -0.57296  -0.55988  -0.55951  -0.55208  -0.54981
 Alpha  occ. eigenvalues --   -0.54441  -0.53582  -0.53224  -0.52836  -0.52741
 Alpha  occ. eigenvalues --   -0.52362  -0.51590  -0.51475  -0.51070  -0.50589
 Alpha  occ. eigenvalues --   -0.50290  -0.50030  -0.49731  -0.49495  -0.49190
 Alpha  occ. eigenvalues --   -0.49067  -0.48725  -0.48323  -0.47809  -0.47666
 Alpha  occ. eigenvalues --   -0.47216  -0.47003  -0.46669  -0.46511  -0.46414
 Alpha  occ. eigenvalues --   -0.46056  -0.45921  -0.45756  -0.45454  -0.45331
 Alpha  occ. eigenvalues --   -0.45288  -0.44974  -0.44828  -0.44634  -0.44368
 Alpha  occ. eigenvalues --   -0.44161  -0.44070  -0.43856  -0.43795  -0.43611
 Alpha  occ. eigenvalues --   -0.43395  -0.43283  -0.43145  -0.42897  -0.42502
 Alpha  occ. eigenvalues --   -0.42130  -0.41844  -0.41659  -0.41600  -0.41538
 Alpha  occ. eigenvalues --   -0.41246  -0.41134  -0.40802  -0.40723  -0.40400
 Alpha  occ. eigenvalues --   -0.40313  -0.40163  -0.40084  -0.39823  -0.39801
 Alpha  occ. eigenvalues --   -0.39701  -0.39304  -0.39146  -0.39073  -0.38623
 Alpha  occ. eigenvalues --   -0.38497  -0.38220  -0.37814  -0.37778  -0.37700
 Alpha  occ. eigenvalues --   -0.37189  -0.37110  -0.36796  -0.36614  -0.36360
 Alpha  occ. eigenvalues --   -0.36245  -0.36187  -0.35906  -0.35780  -0.35630
 Alpha  occ. eigenvalues --   -0.35580  -0.35322  -0.34771  -0.34729  -0.34468
 Alpha  occ. eigenvalues --   -0.34402  -0.33961  -0.33653  -0.33520  -0.33299
 Alpha  occ. eigenvalues --   -0.33146  -0.33043  -0.32963  -0.32605  -0.32319
 Alpha  occ. eigenvalues --   -0.32266  -0.31753  -0.31403  -0.30486  -0.29935
 Alpha  occ. eigenvalues --   -0.29712  -0.29376  -0.29088  -0.28244  -0.27782
 Alpha  occ. eigenvalues --   -0.26894  -0.26109  -0.26027  -0.24315  -0.21590
 Alpha  occ. eigenvalues --   -0.19902
 Alpha virt. eigenvalues --   -0.07484  -0.03518   0.00376   0.02248   0.03618
 Alpha virt. eigenvalues --    0.03982   0.04496   0.04776   0.05343   0.06297
 Alpha virt. eigenvalues --    0.06972   0.08613   0.09473   0.09604   0.09833

 Mulliken charges:
               1
     1  Mg   0.826558
     2  C    0.082722
     3  C   -0.124357
     4  C   -0.177645
     5  C   -0.165400
     6  N   -0.633637
     7  C    0.302785
     8  C   -0.178443
     9  C   -0.153613
    10  C    0.305041
    11  C   -0.320198
    12  C   -0.146836
    13  C   -0.302179
    14  C    0.565068
    15  O   -0.448218
    16  O   -0.430692
    17  N   -0.728937
    18  C    0.350773
    19  C   -0.003908
    20  C    0.013259
    21  C    0.307743
    22  C   -0.353246
    23  C   -0.066210
    24  C   -0.255669
    25  N   -0.707594
    26  C    0.246005
    27  C    0.107856
    28  C   -0.033239
    29  C    0.358044
    30  C   -0.388322
    31  C   -0.262401
    32  C   -0.295091
    33  N   -0.692545
    34  C    0.237605
    35  C    0.038116
    36  C    0.005382
    37  C    0.275215
    38  C   -0.379324
    39  C    0.344266
    40  O   -0.449586
    41  C   -0.324088
    42  C    0.612525
    43  O   -0.513177
    44  O   -0.402905
    45  C   -0.078500
    46  C   -0.006912
    47  C   -0.136024
    48  C    0.126444
    49  C   -0.363777
    50  C   -0.219740
    51  C   -0.170410
    52  C   -0.152747
    53  C   -0.048712
    54  C   -0.312322
    55  C   -0.153365
    56  C   -0.167847
    57  C   -0.173463
    58  C   -0.050848
    59  C   -0.302442
    60  C   -0.168482
    61  C   -0.176390
    62  C   -0.163875
    63  C   -0.056412
    64  C   -0.312892
    65  C   -0.297638
    66  H    0.039042
    67  H    0.067745
    68  H    0.094414
    69  H    0.121983
    70  H    0.106756
    71  H    0.122660
    72  H    0.086163
    73  H    0.136461
    74  H    0.137415
    75  H    0.131111
    76  H    0.126221
    77  H    0.117942
    78  H    0.122449
    79  H    0.105680
    80  H    0.127763
    81  H    0.086763
    82  H    0.097509
    83  H    0.095549
    84  H    0.124882
    85  H    0.118314
    86  H    0.133996
    87  H    0.095163
    88  H    0.106363
    89  H    0.106558
    90  H    0.098025
    91  H    0.086992
    92  H    0.116428
    93  H    0.143949
    94  H    0.136791
    95  H    0.160815
    96  H    0.122579
    97  H    0.120769
    98  H    0.139256
    99  H    0.133361
   100  H    0.122396
   101  H    0.085716
   102  H    0.094259
   103  H    0.124429
   104  H    0.124173
   105  H    0.100319
   106  H    0.099698
   107  H    0.091054
   108  H    0.074784
   109  H    0.094447
   110  H    0.057835
   111  H    0.076329
   112  H    0.108674
   113  H    0.101393
   114  H    0.098446
   115  H    0.097802
   116  H    0.084726
   117  H    0.106919
   118  H    0.050987
   119  H    0.079687
   120  H    0.081036
   121  H    0.094310
   122  H    0.068725
   123  H    0.098773
   124  H    0.094152
   125  H    0.076022
   126  H    0.093679
   127  H    0.066487
   128  H    0.100748
   129  H    0.080405
   130  H    0.100308
   131  H    0.091089
   132  H    0.109061
   133  H    0.079165
   134  H    0.081614
   135  H    0.106871
   136  H    0.078948
   137  H    0.101514
 Sum of Mulliken charges =  -0.00000

 Dipole moment (field-independent basis, Debye):
    X=              2.8962    Y=              3.4862    Z=              0.3780  Tot=              4.5480
 Quadrupole moment (field-independent basis, Debye-Ang):
   XX=           -345.9117   YY=           -394.5329   ZZ=           -400.6762
   XY=            -21.3441   XZ=              6.0449   YZ=             -1.4849

 Normal termination of Gaussian 16 at Tue Sep 24 11:55:34 2019.
