 Gaussian 16, Revision A.03,
 Gaussian 16:  ES64L-G16RevA.03 25-Dec-2016

 ----------------------------------------------------------------------
 # td=(NStates=1) iop(3/107=0140000000,3/108=0140000000) CAM-B3LYP/6-31
 G(d,p)
 ----------------------------------------------------------------------

 --
 TD
 --
 Symbolic Z-matrix:
 Charge =  0 Multiplicity = 1

                         Standard orientation:
 ---------------------------------------------------------------------
 Center     Atomic      Atomic             Coordinates (Angstroms)
 Number     Number       Type             X           Y           Z
 ---------------------------------------------------------------------
      1         12           0       -7.167237    0.554098    0.148661
      2          6           0       -4.910053   -2.011163    0.407443
      3          6           0       -4.812529    2.840965    1.197383
      4          6           0       -9.374341    3.099948   -0.489764
      5          6           0       -9.517091   -1.707668   -0.926923
      6          7           0       -5.100431    0.420031    0.588275
      7          6           0       -4.359545   -0.688829    0.742288
      8          6           0       -2.970175   -0.472431    1.200219
      9          6           0       -3.064748    1.019209    1.728797
     10          6           0       -4.425158    1.491051    1.166347
     11          6           0       -3.013333    1.269501    3.288745
     12          6           0       -1.954118   -0.593787    0.134557
     13          6           0       -0.510425   -0.448453    0.652209
     14          6           0        0.432284   -0.639138   -0.466711
     15          8           0        0.132999   -0.993632   -1.583384
     16          8           0        1.677715   -0.200572   -0.104507
     17          7           0       -7.092672    2.553356    0.348707
     18          6           0       -6.085646    3.312238    0.852271
     19          6           0       -6.335247    4.667220    0.864213
     20          6           0       -7.632134    4.856169    0.329805
     21          6           0       -8.074017    3.467913   -0.027099
     22          6           0       -5.466989    5.783989    1.395104
     23          6           0       -8.496172    6.064176    0.037284
     24          6           0       -8.300714    7.342375    0.624998
     25          7           0       -9.103844    0.647574   -0.565943
     26          6           0       -9.808293    1.823332   -0.621039
     27          6           0      -11.172023    1.489828   -1.152166
     28          6           0      -11.158150    0.158870   -1.305101
     29          6           0       -9.906833   -0.373553   -1.042908
     30          6           0      -12.280824    2.492937   -1.367425
     31          6           0      -12.349388   -0.661433   -1.802614
     32          6           0      -12.279532   -1.157773   -3.287373
     33          7           0       -7.200147   -1.428215   -0.295292
     34          6           0       -8.213442   -2.215632   -0.647110
     35          6           0       -7.773919   -3.567537   -0.606248
     36          6           0       -6.434457   -3.553387   -0.237046
     37          6           0       -6.139365   -2.155574   -0.012965
     38          6           0       -8.620216   -4.852134   -0.794796
     39          6           0       -5.261694   -4.354679    0.112409
     40          8           0       -5.223245   -5.613960    0.123798
     41          6           0       -4.225323   -3.272611    0.568538
     42          6           0       -3.564848   -3.660588    1.917678
     43          8           0       -3.879650   -3.076022    2.914345
     44          8           0       -2.832229   -4.724945    1.846690
     45          6           0       -2.413122   -5.335891    3.063076
     46          6           0        2.742622   -0.452962   -1.161782
     47          6           0        4.087407   -0.376742   -0.471229
     48          6           0        5.141932    0.326216   -0.870082
     49          6           0        5.066786    1.304015   -2.028023
     50          6           0        6.444872    0.358646   -0.061558
     51          6           0        7.663191   -0.216634   -0.905760
     52          6           0        8.959135   -0.188017   -0.215028
     53          6           0       10.259710   -0.659248   -0.955601
     54          6           0       10.145942   -2.173959   -1.173105
     55          6           0       11.481591   -0.329341   -0.034442
     56          6           0       12.817058   -0.558172   -0.681817
     57          6           0       13.976606   -0.168010    0.212811
     58          6           0       15.359797   -0.202777   -0.488317
     59          6           0       15.634702   -1.671663   -0.933946
     60          6           0       16.412381    0.362261    0.440764
     61          6           0       17.785470    0.596675   -0.212242
     62          6           0       18.884090    1.233127    0.652047
     63          6           0       20.362302    1.371812    0.064785
     64          6           0       20.355347    2.275379   -1.253205
     65          6           0       21.127483    1.917144    1.283736
     66          1           0       -4.022024    3.513642    1.507144
     67          1           0      -10.038533    3.745015   -0.632983
     68          1           0      -10.292326   -2.218957   -1.460056
     69          1           0       -2.685874   -1.117828    1.938156
     70          1           0       -2.120079    1.657913    1.253816
     71          1           0       -1.978803    0.941880    3.653907
     72          1           0       -3.204054    2.367157    3.486781
     73          1           0       -3.648352    0.701316    3.984358
     74          1           0       -1.748865   -1.480017   -0.493972
     75          1           0       -2.023760    0.139392   -0.732048
     76          1           0       -0.382862    0.463311    1.073232
     77          1           0       -0.279404   -1.315865    1.366853
     78          1           0       -5.583937    6.751043    0.781454
     79          1           0       -5.713875    6.113423    2.476858
     80          1           0       -4.569283    5.497576    1.523524
     81          1           0       -9.391703    5.841527   -0.400911
     82          1           0       -8.724592    8.286261    0.249944
     83          1           0       -7.698747    7.280272    1.445757
     84          1           0      -11.996234    3.183903   -2.102672
     85          1           0      -13.093367    1.961493   -1.946313
     86          1           0      -12.702967    3.262770   -0.581781
     87          1           0      -12.472990   -1.540204   -1.049050
     88          1           0      -13.171658   -0.231639   -1.578963
     89          1           0      -13.175263   -1.435374   -3.670521
     90          1           0      -12.012874   -0.148282   -4.001487
     91          1           0      -11.545123   -2.030403   -3.391734
     92          1           0       -8.759162   -4.804437   -1.940050
     93          1           0       -7.891899   -5.740187   -0.567609
     94          1           0       -9.680147   -4.353669   -0.396732
     95          1           0       -3.249345   -3.483056    0.045070
     96          1           0       -1.964756   -4.734031    3.839335
     97          1           0       -3.363361   -5.660918    3.501269
     98          1           0       -1.693540   -6.156227    2.748294
     99          1           0        2.382656   -1.326827   -1.574674
    100          1           0        2.601083    0.280592   -2.012441
    101          1           0        4.185347   -0.915615    0.487322
    102          1           0        4.133776    1.532685   -2.175179
    103          1           0        5.418412    2.279761   -1.425899
    104          1           0        5.587165    0.982909   -2.944441
    105          1           0        6.625785    1.272817    0.415139
    106          1           0        6.445534   -0.277674    0.730910
    107          1           0        7.158137   -1.281217   -1.107936
    108          1           0        7.625560    0.338927   -1.859692
    109          1           0        8.903275    0.807354    0.106939
    110          1           0        8.974980   -0.910997    0.739606
    111          1           0       10.382875   -0.245844   -2.001798
    112          1           0        9.391166   -2.502297   -1.847800
    113          1           0       10.849733   -2.577560   -1.684563
    114          1           0        9.994193   -2.696781   -0.244228
    115          1           0       11.560488    0.702213    0.371456
    116          1           0       11.260799   -0.732650    0.985846
    117          1           0       12.915339   -1.548098   -1.144378
    118          1           0       13.037667   -0.012013   -1.562774
    119          1           0       13.981464    0.836676    0.407870
    120          1           0       13.969758   -0.722329    1.201513
    121          1           0       15.517142    0.306052   -1.427516
    122          1           0       15.573120   -2.477263   -0.269654
    123          1           0       14.831300   -2.064794   -1.656982
    124          1           0       16.705734   -1.550230   -1.561213
    125          1           0       16.039837    1.204904    1.164924
    126          1           0       16.503291   -0.388207    1.239384
    127          1           0       18.162040   -0.174815   -0.782583
    128          1           0       17.676659    1.439566   -1.014415
    129          1           0       18.598898    2.342055    0.768652
    130          1           0       19.115726    0.624246    1.564829
    131          1           0       20.723946    0.384048   -0.191027
    132          1           0       19.858408    3.222813   -0.970499
    133          1           0       21.395540    2.472290   -1.629236
    134          1           0       19.863241    1.681314   -2.132992
    135          1           0       21.050041    1.370743    2.172035
    136          1           0       22.326454    1.926988    1.234159
    137          1           0       20.613939    2.782845    1.588273
 ---------------------------------------------------------------------

 SCF Done:  E(RCAM-B3LYP) =  -2933.49143594     A.U. after   16 cycles

 Excitation energies and oscillator strengths:

 Excited State   1:      Singlet-A      1.9762 eV  627.39 nm  f=0.2914  <S**2>=0.000
     240 -> 243       -0.23448
     241 -> 242        0.66256
 This state for optimization and/or second-order correction.
 Total Energy, E(TD-HF/TD-DFT) =  -2933.41881218
 Copying the excited state density for this state as the 1-particle RhoCI density.

 The electronic state is 1-A.
 Alpha  occ. eigenvalues --  -46.79471 -19.23562 -19.21448 -19.17134 -19.16207
 Alpha  occ. eigenvalues --  -19.15882 -14.38286 -14.35144 -14.34502 -14.34042
 Alpha  occ. eigenvalues --  -10.34565 -10.34219 -10.30556 -10.28054 -10.27507
 Alpha  occ. eigenvalues --  -10.26730 -10.26083 -10.25252 -10.25009 -10.24918
 Alpha  occ. eigenvalues --  -10.24167 -10.24024 -10.23762 -10.23673 -10.23583
 Alpha  occ. eigenvalues --  -10.23275 -10.23239 -10.23045 -10.23002 -10.22756
 Alpha  occ. eigenvalues --  -10.22600 -10.22555 -10.22519 -10.22496 -10.22372
 Alpha  occ. eigenvalues --  -10.22364 -10.22211 -10.22098 -10.22007 -10.22006
 Alpha  occ. eigenvalues --  -10.21953 -10.21938 -10.21882 -10.21854 -10.21659
 Alpha  occ. eigenvalues --  -10.21631 -10.21531 -10.21524 -10.21483 -10.21435
 Alpha  occ. eigenvalues --  -10.21430 -10.21264 -10.21201 -10.21158 -10.21136
 Alpha  occ. eigenvalues --  -10.21118 -10.20805 -10.20736 -10.20699 -10.20552
 Alpha  occ. eigenvalues --  -10.20124 -10.20109 -10.20057 -10.20039 -10.18189
 Alpha  occ. eigenvalues --   -3.08135  -1.83071  -1.82605  -1.82541  -1.15979
 Alpha  occ. eigenvalues --   -1.11998  -1.05708  -1.03937  -1.03432  -1.00652
 Alpha  occ. eigenvalues --   -0.98948  -0.97890  -0.96978  -0.88999  -0.86383
 Alpha  occ. eigenvalues --   -0.85884  -0.85533  -0.84223  -0.84162  -0.82892
 Alpha  occ. eigenvalues --   -0.82836  -0.82481  -0.82141  -0.81645  -0.81017
 Alpha  occ. eigenvalues --   -0.80296  -0.79857  -0.78788  -0.78313  -0.77646
 Alpha  occ. eigenvalues --   -0.77318  -0.76367  -0.75581  -0.75246  -0.73561
 Alpha  occ. eigenvalues --   -0.73312  -0.72802  -0.72520  -0.72186  -0.71045
 Alpha  occ. eigenvalues --   -0.70800  -0.70304  -0.69761  -0.68971  -0.67859
 Alpha  occ. eigenvalues --   -0.67107  -0.66076  -0.66028  -0.65079  -0.64442
 Alpha  occ. eigenvalues --   -0.63117  -0.62319  -0.61515  -0.61176  -0.61100
 Alpha  occ. eigenvalues --   -0.60555  -0.59739  -0.59502  -0.59155  -0.58421
 Alpha  occ. eigenvalues --   -0.58045  -0.57235  -0.56861  -0.56147  -0.55215
 Alpha  occ. eigenvalues --   -0.54546  -0.54239  -0.53864  -0.53603  -0.53162
 Alpha  occ. eigenvalues --   -0.52771  -0.52278  -0.51816  -0.51243  -0.50893
 Alpha  occ. eigenvalues --   -0.50615  -0.50070  -0.49862  -0.49683  -0.49348
 Alpha  occ. eigenvalues --   -0.49206  -0.48848  -0.48460  -0.48400  -0.48056
 Alpha  occ. eigenvalues --   -0.47915  -0.47624  -0.47282  -0.46897  -0.46633
 Alpha  occ. eigenvalues --   -0.46501  -0.46378  -0.46026  -0.45830  -0.45707
 Alpha  occ. eigenvalues --   -0.45638  -0.45350  -0.45088  -0.44674  -0.44510
 Alpha  occ. eigenvalues --   -0.44338  -0.44200  -0.43903  -0.43820  -0.43496
 Alpha  occ. eigenvalues --   -0.43399  -0.43275  -0.43072  -0.42983  -0.42840
 Alpha  occ. eigenvalues --   -0.42275  -0.42137  -0.42008  -0.41712  -0.41502
 Alpha  occ. eigenvalues --   -0.41390  -0.41204  -0.41162  -0.40768  -0.40708
 Alpha  occ. eigenvalues --   -0.40498  -0.40396  -0.40225  -0.40042  -0.39908
 Alpha  occ. eigenvalues --   -0.39754  -0.39666  -0.39544  -0.39383  -0.38957
 Alpha  occ. eigenvalues --   -0.38920  -0.38566  -0.38465  -0.38294  -0.38110
 Alpha  occ. eigenvalues --   -0.37941  -0.37773  -0.37692  -0.37516  -0.37145
 Alpha  occ. eigenvalues --   -0.37019  -0.36835  -0.36805  -0.36754  -0.36107
 Alpha  occ. eigenvalues --   -0.35695  -0.35528  -0.35131  -0.34922  -0.34728
 Alpha  occ. eigenvalues --   -0.34478  -0.34244  -0.34121  -0.34014  -0.33623
 Alpha  occ. eigenvalues --   -0.33583  -0.33162  -0.32998  -0.32833  -0.32679
 Alpha  occ. eigenvalues --   -0.32224  -0.31724  -0.31284  -0.30944  -0.30513
 Alpha  occ. eigenvalues --   -0.30234  -0.29902  -0.29016  -0.28097  -0.27740
 Alpha  occ. eigenvalues --   -0.26617  -0.26435  -0.25714  -0.23957  -0.21477
 Alpha  occ. eigenvalues --   -0.19383
 Alpha virt. eigenvalues --   -0.06873  -0.03786  -0.00606   0.01330   0.03938
 Alpha virt. eigenvalues --    0.04003   0.04175   0.04516   0.05130   0.05738
 Alpha virt. eigenvalues --    0.07211   0.08930   0.09466   0.10129   0.10407

 Mulliken charges:
               1
     1  Mg   0.815039
     2  C    0.140115
     3  C   -0.180720
     4  C   -0.085195
     5  C   -0.176428
     6  N   -0.631355
     7  C    0.320985
     8  C   -0.119760
     9  C   -0.155839
    10  C    0.312041
    11  C   -0.311857
    12  C   -0.195548
    13  C   -0.257668
    14  C    0.606843
    15  O   -0.473508
    16  O   -0.497063
    17  N   -0.714032
    18  C    0.336576
    19  C    0.018340
    20  C   -0.004463
    21  C    0.255793
    22  C   -0.357754
    23  C   -0.072982
    24  C   -0.257405
    25  N   -0.702019
    26  C    0.291104
    27  C    0.038529
    28  C    0.020726
    29  C    0.280595
    30  C   -0.396779
    31  C   -0.229354
    32  C   -0.297924
    33  N   -0.751135
    34  C    0.318729
    35  C   -0.049631
    36  C    0.035538
    37  C    0.318337
    38  C   -0.368534
    39  C    0.372556
    40  O   -0.494435
    41  C   -0.354087
    42  C    0.592540
    43  O   -0.470788
    44  O   -0.406775
    45  C   -0.100336
    46  C   -0.001869
    47  C   -0.119673
    48  C    0.105344
    49  C   -0.344372
    50  C   -0.235560
    51  C   -0.185124
    52  C   -0.140302
    53  C   -0.075002
    54  C   -0.303127
    55  C   -0.158537
    56  C   -0.181434
    57  C   -0.175784
    58  C   -0.064847
    59  C   -0.300942
    60  C   -0.163244
    61  C   -0.183517
    62  C   -0.171787
    63  C   -0.066857
    64  C   -0.306180
    65  C   -0.306027
    66  H    0.086734
    67  H    0.035818
    68  H    0.077568
    69  H    0.117701
    70  H    0.082979
    71  H    0.096434
    72  H    0.107185
    73  H    0.130831
    74  H    0.131758
    75  H    0.111038
    76  H    0.138812
    77  H    0.124803
    78  H    0.120286
    79  H    0.105705
    80  H    0.109254
    81  H    0.089013
    82  H    0.109743
    83  H    0.110645
    84  H    0.133882
    85  H    0.107022
    86  H    0.116736
    87  H    0.084478
    88  H    0.104400
    89  H    0.124577
    90  H    0.076692
    91  H    0.108833
    92  H    0.123881
    93  H    0.161407
    94  H    0.119521
    95  H    0.151147
    96  H    0.138099
    97  H    0.141903
    98  H    0.129817
    99  H    0.142395
   100  H    0.117070
   101  H    0.087140
   102  H    0.123142
   103  H    0.096455
   104  H    0.127604
   105  H    0.100965
   106  H    0.106887
   107  H    0.076580
   108  H    0.094905
   109  H    0.096753
   110  H    0.067755
   111  H    0.076176
   112  H    0.100352
   113  H    0.107906
   114  H    0.098530
   115  H    0.083772
   116  H    0.082391
   117  H    0.089675
   118  H    0.100594
   119  H    0.102515
   120  H    0.084411
   121  H    0.090289
   122  H    0.111494
   123  H    0.087117
   124  H    0.063428
   125  H    0.075846
   126  H    0.091021
   127  H    0.104064
   128  H    0.073822
   129  H    0.081656
   130  H    0.087565
   131  H    0.087279
   132  H    0.101294
   133  H    0.101411
   134  H    0.096010
   135  H    0.111275
   136  H    0.076261
   137  H    0.105318
 Sum of Mulliken charges =  -0.00000

 Dipole moment (field-independent basis, Debye):
    X=              2.9429    Y=              3.0810    Z=              1.3967  Tot=              4.4838
 Quadrupole moment (field-independent basis, Debye-Ang):
   XX=           -356.9838   YY=           -398.2238   ZZ=           -391.3648
   XY=            -25.2032   XZ=              9.5100   YZ=             -4.4343

 Normal termination of Gaussian 16 at Sun Sep 22 15:22:10 2019.
