 Gaussian 16, Revision A.03,
 Gaussian 16:  ES64L-G16RevA.03 25-Dec-2016

 ----------------------------------------------------------------------
 # td=(NStates=1) iop(3/107=0140000000,3/108=0140000000) CAM-B3LYP/6-31
 G(d,p)
 ----------------------------------------------------------------------

 --
 TD
 --
 Symbolic Z-matrix:
 Charge =  0 Multiplicity = 1

                         Standard orientation:
 ---------------------------------------------------------------------
 Center     Atomic      Atomic             Coordinates (Angstroms)
 Number     Number       Type             X           Y           Z
 ---------------------------------------------------------------------
      1         12           0       -7.117701    0.572962    0.056157
      2          6           0       -4.844537   -1.940509    0.542719
      3          6           0       -4.826332    2.857279    1.059494
      4          6           0       -9.515164    3.094352   -0.354293
      5          6           0       -9.523858   -1.756316   -0.992414
      6          7           0       -5.134316    0.523443    0.558338
      7          6           0       -4.433314   -0.613737    0.838929
      8          6           0       -2.969749   -0.317481    1.226635
      9          6           0       -2.982212    1.162982    1.679170
     10          6           0       -4.337025    1.564010    1.005931
     11          6           0       -2.932264    1.308798    3.233592
     12          6           0       -1.870408   -0.558055    0.081694
     13          6           0       -0.404602   -0.278209    0.600636
     14          6           0        0.548207   -0.628266   -0.493970
     15          8           0        0.200865   -1.152133   -1.573595
     16          8           0        1.806638   -0.378100   -0.112142
     17          7           0       -7.143910    2.668124    0.262482
     18          6           0       -6.094325    3.427301    0.717552
     19          6           0       -6.420668    4.796771    0.672584
     20          6           0       -7.741037    4.887389    0.251784
     21          6           0       -8.210695    3.555059   -0.007265
     22          6           0       -5.509365    5.887081    1.160348
     23          6           0       -8.611331    6.093197    0.152352
     24          6           0       -8.474496    7.277755    0.664223
     25          7           0       -9.115865    0.644359   -0.522678
     26          6           0       -9.905517    1.796460   -0.531002
     27          6           0      -11.300699    1.394715   -1.027763
     28          6           0      -11.297878    0.009643   -1.323868
     29          6           0       -9.947249   -0.399976   -0.875491
     30          6           0      -12.389157    2.400400   -1.179489
     31          6           0      -12.414084   -0.900475   -1.718802
     32          6           0      -12.264092   -1.217312   -3.173757
     33          7           0       -7.250431   -1.316680   -0.113345
     34          6           0       -8.296057   -2.223670   -0.626732
     35          6           0       -7.810340   -3.627425   -0.560230
     36          6           0       -6.486666   -3.671774   -0.085441
     37          6           0       -6.264835   -2.257848    0.016352
     38          6           0       -8.550475   -4.935918   -0.927932
     39          6           0       -5.294624   -4.369823    0.243302
     40          8           0       -5.122683   -5.629933    0.242006
     41          6           0       -4.150631   -3.337304    0.603558
     42          6           0       -3.561877   -3.670668    1.846798
     43          8           0       -3.627675   -3.129548    2.931157
     44          8           0       -2.784430   -4.734533    1.844459
     45          6           0       -2.283148   -5.211230    3.056538
     46          6           0        2.849420   -0.663625   -1.177960
     47          6           0        4.161571   -0.438238   -0.524681
     48          6           0        5.160392    0.350561   -1.047886
     49          6           0        5.106125    1.057390   -2.351618
     50          6           0        6.442196    0.451394   -0.231692
     51          6           0        7.654520   -0.207363   -0.940945
     52          6           0        8.956142   -0.009906   -0.147122
     53          6           0       10.289939   -0.528202   -0.869629
     54          6           0       10.106458   -1.992235   -1.317584
     55          6           0       11.508883   -0.483407   -0.080376
     56          6           0       12.909202   -0.523301   -0.755516
     57          6           0       13.914477   -0.118123    0.214523
     58          6           0       15.360911   -0.279555   -0.567991
     59          6           0       15.764223   -1.639385   -0.963574
     60          6           0       16.456828    0.255094    0.488744
     61          6           0       17.826048    0.497967   -0.148955
     62          6           0       18.805277    1.295131    0.738527
     63          6           0       20.219975    1.493049    0.142814
     64          6           0       20.293881    2.390014   -1.048041
     65          6           0       21.085239    1.864076    1.401392
     66          1           0       -4.272688    3.655070    1.297435
     67          1           0      -10.273505    3.800297   -0.605754
     68          1           0      -10.195683   -2.308692   -1.501686
     69          1           0       -2.454975   -0.929144    2.156231
     70          1           0       -2.288342    1.763251    1.308546
     71          1           0       -1.942017    0.868957    3.655047
     72          1           0       -2.983669    2.496161    3.430932
     73          1           0       -3.840137    0.739764    3.588326
     74          1           0       -1.896940   -1.653334   -0.168354
     75          1           0       -1.954922   -0.167954   -0.925193
     76          1           0       -0.446566    0.821606    0.701400
     77          1           0       -0.071267   -0.682638    1.642392
     78          1           0       -5.808531    6.902597    0.734968
     79          1           0       -5.271825    5.921739    2.252745
     80          1           0       -4.512364    5.525443    0.867996
     81          1           0       -9.470253    5.795117   -0.443573
     82          1           0       -9.346687    8.025129    0.344523
     83          1           0       -7.561001    7.646892    1.326951
     84          1           0      -12.117876    3.223829   -1.877872
     85          1           0      -13.458759    1.996144   -1.516640
     86          1           0      -12.672219    2.853611   -0.190037
     87          1           0      -12.494993   -1.832975   -1.062216
     88          1           0      -13.400536   -0.360622   -1.610863
     89          1           0      -13.225465   -1.653939   -3.468662
     90          1           0      -12.047294   -0.280348   -3.665805
     91          1           0      -11.351398   -1.684556   -3.152476
     92          1           0       -8.882398   -4.914943   -1.913930
     93          1           0       -7.805258   -5.778225   -0.498124
     94          1           0       -9.514916   -4.899166   -0.507823
     95          1           0       -3.410314   -3.428703   -0.154936
     96          1           0       -1.599371   -4.418648    3.665966
     97          1           0       -3.077701   -5.693457    3.757119
     98          1           0       -1.559167   -6.007779    2.771631
     99          1           0        2.820885   -1.669993   -1.467293
    100          1           0        2.805483   -0.082324   -2.035259
    101          1           0        4.169293   -0.917549    0.296382
    102          1           0        4.087197    1.116582   -2.477978
    103          1           0        5.578525    2.125941   -2.313743
    104          1           0        5.486914    0.440137   -3.494991
    105          1           0        6.470163    1.296900    0.180348
    106          1           0        6.246339   -0.097082    0.683497
    107          1           0        7.448700   -1.348481   -1.106447
    108          1           0        7.941375    0.295000   -1.842745
    109          1           0        9.310164    1.083548    0.222985
    110          1           0        8.732076   -0.339241    0.973679
    111          1           0       10.434928    0.208359   -1.762691
    112          1           0        9.048664   -2.136181   -1.791244
    113          1           0       10.836621   -2.241046   -1.889982
    114          1           0       10.325739   -2.556264   -0.491827
    115          1           0       11.465240    0.466297    0.525697
    116          1           0       11.598857   -1.160642    0.643978
    117          1           0       13.154684   -1.610642   -1.234360
    118          1           0       12.888452    0.070052   -1.649330
    119          1           0       13.774890    0.928828    0.540142
    120          1           0       13.811421   -0.717436    1.120738
    121          1           0       15.396975    0.324748   -1.543181
    122          1           0       15.687103   -2.309961   -0.128624
    123          1           0       15.157297   -2.023029   -1.836889
    124          1           0       16.850946   -1.619638   -1.153710
    125          1           0       16.073119    1.130658    0.993375
    126          1           0       16.702877   -0.319203    1.375730
    127          1           0       18.381105   -0.445040   -0.035495
    128          1           0       17.374836    1.130723   -1.080187
    129          1           0       18.468014    2.433565    1.114779
    130          1           0       18.903406    0.717041    1.640998
    131          1           0       20.391479    0.474238   -0.091593
    132          1           0       19.929884    3.417798   -0.721293
    133          1           0       21.422304    2.459586   -1.610029
    134          1           0       19.479752    1.914545   -1.864486
    135          1           0       20.982798    0.657321    2.039322
    136          1           0       22.116640    2.133379    0.969596
    137          1           0       20.588991    2.900536    1.912320
 ---------------------------------------------------------------------

 SCF Done:  E(RCAM-B3LYP) =  -2933.40797961     A.U. after   16 cycles

 Excitation energies and oscillator strengths:

 Excited State   1:      Singlet-A      1.9306 eV  642.19 nm  f=0.2621  <S**2>=0.000
     240 -> 243       -0.20298
     241 -> 242        0.66992
 This state for optimization and/or second-order correction.
 Total Energy, E(TD-HF/TD-DFT) =  -2933.33702958
 Copying the excited state density for this state as the 1-particle RhoCI density.

 The electronic state is 1-A.
 Alpha  occ. eigenvalues --  -46.79454 -19.22785 -19.20810 -19.16619 -19.16310
 Alpha  occ. eigenvalues --  -19.14545 -14.38082 -14.36676 -14.35886 -14.34707
 Alpha  occ. eigenvalues --  -10.34549 -10.33057 -10.31773 -10.27452 -10.27140
 Alpha  occ. eigenvalues --  -10.26604 -10.26576 -10.26509 -10.26299 -10.26169
 Alpha  occ. eigenvalues --  -10.25356 -10.25148 -10.24957 -10.24652 -10.24633
 Alpha  occ. eigenvalues --  -10.24440 -10.24346 -10.23944 -10.23939 -10.23795
 Alpha  occ. eigenvalues --  -10.23675 -10.23449 -10.23387 -10.23380 -10.23156
 Alpha  occ. eigenvalues --  -10.23066 -10.22871 -10.22804 -10.22771 -10.22757
 Alpha  occ. eigenvalues --  -10.22658 -10.22605 -10.22535 -10.22519 -10.22433
 Alpha  occ. eigenvalues --  -10.22409 -10.22394 -10.22242 -10.22230 -10.22076
 Alpha  occ. eigenvalues --  -10.22064 -10.21942 -10.21806 -10.21589 -10.21137
 Alpha  occ. eigenvalues --  -10.21105 -10.21069 -10.20682 -10.20537 -10.20122
 Alpha  occ. eigenvalues --  -10.20094 -10.20015 -10.19899 -10.19223 -10.18284
 Alpha  occ. eigenvalues --   -3.08289  -1.83199  -1.82766  -1.82732  -1.14409
 Alpha  occ. eigenvalues --   -1.11999  -1.03787  -1.02682  -1.02429  -0.98789
 Alpha  occ. eigenvalues --   -0.97630  -0.97116  -0.96106  -0.87137  -0.86644
 Alpha  occ. eigenvalues --   -0.85813  -0.84766  -0.84727  -0.84002  -0.83670
 Alpha  occ. eigenvalues --   -0.83237  -0.83075  -0.83005  -0.82201  -0.81523
 Alpha  occ. eigenvalues --   -0.80518  -0.79759  -0.79309  -0.78655  -0.78331
 Alpha  occ. eigenvalues --   -0.77098  -0.76800  -0.76003  -0.75695  -0.73510
 Alpha  occ. eigenvalues --   -0.72776  -0.72429  -0.72284  -0.71328  -0.71092
 Alpha  occ. eigenvalues --   -0.70136  -0.69716  -0.68711  -0.68429  -0.67970
 Alpha  occ. eigenvalues --   -0.66548  -0.65596  -0.65087  -0.64667  -0.64416
 Alpha  occ. eigenvalues --   -0.61988  -0.61869  -0.61100  -0.60273  -0.60249
 Alpha  occ. eigenvalues --   -0.60005  -0.59447  -0.58938  -0.58199  -0.57654
 Alpha  occ. eigenvalues --   -0.57239  -0.57094  -0.56343  -0.55940  -0.55575
 Alpha  occ. eigenvalues --   -0.54837  -0.54548  -0.53679  -0.53555  -0.52920
 Alpha  occ. eigenvalues --   -0.52280  -0.51826  -0.51490  -0.51090  -0.50930
 Alpha  occ. eigenvalues --   -0.50469  -0.50145  -0.49978  -0.49690  -0.49361
 Alpha  occ. eigenvalues --   -0.49238  -0.49067  -0.48599  -0.48209  -0.48087
 Alpha  occ. eigenvalues --   -0.47390  -0.47149  -0.46921  -0.46658  -0.46563
 Alpha  occ. eigenvalues --   -0.46382  -0.46257  -0.46030  -0.45683  -0.45660
 Alpha  occ. eigenvalues --   -0.45363  -0.45180  -0.44932  -0.44624  -0.44525
 Alpha  occ. eigenvalues --   -0.44412  -0.44073  -0.43972  -0.43737  -0.43667
 Alpha  occ. eigenvalues --   -0.43648  -0.43270  -0.43093  -0.42804  -0.42346
 Alpha  occ. eigenvalues --   -0.42263  -0.41998  -0.41898  -0.41690  -0.41538
 Alpha  occ. eigenvalues --   -0.41416  -0.41232  -0.41073  -0.40938  -0.40724
 Alpha  occ. eigenvalues --   -0.40323  -0.40312  -0.40063  -0.39886  -0.39805
 Alpha  occ. eigenvalues --   -0.39627  -0.39387  -0.39197  -0.39007  -0.38809
 Alpha  occ. eigenvalues --   -0.38753  -0.38490  -0.38385  -0.38085  -0.37999
 Alpha  occ. eigenvalues --   -0.37954  -0.37074  -0.37006  -0.36951  -0.36703
 Alpha  occ. eigenvalues --   -0.36496  -0.36309  -0.36187  -0.36140  -0.35839
 Alpha  occ. eigenvalues --   -0.35681  -0.35636  -0.35370  -0.34681  -0.34599
 Alpha  occ. eigenvalues --   -0.34491  -0.34264  -0.34201  -0.33697  -0.33550
 Alpha  occ. eigenvalues --   -0.33212  -0.33162  -0.32845  -0.32498  -0.32357
 Alpha  occ. eigenvalues --   -0.32164  -0.31505  -0.31404  -0.31036  -0.30129
 Alpha  occ. eigenvalues --   -0.29614  -0.29487  -0.28593  -0.28412  -0.27996
 Alpha  occ. eigenvalues --   -0.27615  -0.26976  -0.25807  -0.24593  -0.21816
 Alpha  occ. eigenvalues --   -0.20189
 Alpha virt. eigenvalues --   -0.07935  -0.04003  -0.01267   0.02092   0.02591
 Alpha virt. eigenvalues --    0.03478   0.04297   0.04650   0.04859   0.05482
 Alpha virt. eigenvalues --    0.06004   0.06477   0.07941   0.09138   0.09995

 Mulliken charges:
               1
     1  Mg   0.825975
     2  C    0.015519
     3  C   -0.161040
     4  C   -0.160669
     5  C   -0.174170
     6  N   -0.629480
     7  C    0.324028
     8  C   -0.157738
     9  C   -0.105329
    10  C    0.315278
    11  C   -0.289495
    12  C   -0.182123
    13  C   -0.279066
    14  C    0.630296
    15  O   -0.496537
    16  O   -0.477161
    17  N   -0.702417
    18  C    0.304021
    19  C    0.025413
    20  C   -0.001255
    21  C    0.277676
    22  C   -0.383334
    23  C   -0.015928
    24  C   -0.265213
    25  N   -0.669745
    26  C    0.317154
    27  C    0.001625
    28  C    0.048948
    29  C    0.265411
    30  C   -0.398434
    31  C   -0.247986
    32  C   -0.295610
    33  N   -0.707258
    34  C    0.296749
    35  C   -0.045679
    36  C    0.152470
    37  C    0.236178
    38  C   -0.372127
    39  C    0.320499
    40  O   -0.483946
    41  C   -0.304951
    42  C    0.624781
    43  O   -0.490407
    44  O   -0.412996
    45  C   -0.069476
    46  C   -0.000622
    47  C   -0.095739
    48  C    0.089923
    49  C   -0.338916
    50  C   -0.216413
    51  C   -0.168777
    52  C   -0.173935
    53  C   -0.053096
    54  C   -0.296055
    55  C   -0.178739
    56  C   -0.169679
    57  C   -0.169509
    58  C   -0.059730
    59  C   -0.301403
    60  C   -0.190398
    61  C   -0.171344
    62  C   -0.167487
    63  C   -0.043683
    64  C   -0.278524
    65  C   -0.258456
    66  H    0.030776
    67  H    0.084688
    68  H    0.070728
    69  H    0.107702
    70  H    0.103713
    71  H    0.105349
    72  H    0.088356
    73  H    0.131211
    74  H    0.108394
    75  H    0.129817
    76  H    0.137250
    77  H    0.130007
    78  H    0.114743
    79  H    0.125377
    80  H    0.115929
    81  H    0.079425
    82  H    0.089531
    83  H    0.100857
    84  H    0.124812
    85  H    0.099285
    86  H    0.126657
    87  H    0.105033
    88  H    0.097338
    89  H    0.107406
    90  H    0.116922
    91  H    0.113709
    92  H    0.136120
    93  H    0.147750
    94  H    0.128612
    95  H    0.180454
    96  H    0.099370
    97  H    0.119371
    98  H    0.114929
    99  H    0.142977
   100  H    0.122248
   101  H    0.081957
   102  H    0.125099
   103  H    0.110984
   104  H    0.078416
   105  H    0.112392
   106  H    0.094047
   107  H    0.103091
   108  H    0.110289
   109  H    0.065533
   110  H    0.063831
   111  H    0.067235
   112  H    0.081241
   113  H    0.109341
   114  H    0.107425
   115  H    0.067545
   116  H    0.102237
   117  H    0.066825
   118  H    0.094244
   119  H    0.097750
   120  H    0.095932
   121  H    0.078680
   122  H    0.105165
   123  H    0.092219
   124  H    0.105275
   125  H    0.088110
   126  H    0.081281
   127  H    0.104973
   128  H    0.088568
   129  H    0.043957
   130  H    0.088755
   131  H    0.090368
   132  H    0.099715
   133  H    0.076736
   134  H    0.084760
   135  H    0.059617
   136  H    0.097184
   137  H    0.082508
 Sum of Mulliken charges =  -0.00000

 Dipole moment (field-independent basis, Debye):
    X=              0.9804    Y=              3.7754    Z=             -0.5825  Tot=              3.9439
 Quadrupole moment (field-independent basis, Debye-Ang):
   XX=           -335.2059   YY=           -402.7311   ZZ=           -402.1576
   XY=            -18.1987   XZ=             17.0008   YZ=             -0.2222

 Normal termination of Gaussian 16 at Sat Sep 14 04:23:46 2019.
