 Gaussian 09, Revision D.01,
 Gaussian 09:  ES64L-G09RevD.01 24-Apr-2013

 -------------------------------------
 # td=(NStates=1) CAM-B3LYP/6-31G(d,p)
 -------------------------------------

 --
 TD
 --
 Symbolic Z-matrix:
 Charge =  0 Multiplicity = 1

                         Standard orientation:
 ---------------------------------------------------------------------
 Center     Atomic      Atomic             Coordinates (Angstroms)
 Number     Number       Type             X           Y           Z
 ---------------------------------------------------------------------
      1         12           0       -7.156524    0.540964    0.134779
      2          6           0       -4.877925   -1.955847    0.537158
      3          6           0       -4.716463    2.817668    1.149658
      4          6           0       -9.282242    3.057719   -0.388180
      5          6           0       -9.465085   -1.724246   -0.886145
      6          7           0       -5.039221    0.420632    0.738579
      7          6           0       -4.331278   -0.764814    0.779267
      8          6           0       -2.934604   -0.376976    1.262743
      9          6           0       -2.945617    1.054870    1.736126
     10          6           0       -4.320072    1.493091    1.170586
     11          6           0       -2.961138    1.208579    3.225851
     12          6           0       -1.950228   -0.677151    0.055104
     13          6           0       -0.531607   -0.533485    0.496409
     14          6           0        0.478930   -0.605108   -0.602069
     15          8           0        0.240004   -0.946996   -1.742097
     16          8           0        1.744262   -0.513897   -0.132207
     17          7           0       -6.993677    2.494822    0.272228
     18          6           0       -5.974782    3.320990    0.722215
     19          6           0       -6.443175    4.708287    0.854385
     20          6           0       -7.628496    4.896345    0.401742
     21          6           0       -8.114312    3.535422    0.015853
     22          6           0       -5.415043    5.852740    1.092912
     23          6           0       -8.528462    6.026870    0.256404
     24          6           0       -8.371982    7.192737    0.938510
     25          7           0       -9.108389    0.755607   -0.528591
     26          6           0       -9.803479    1.897890   -0.726962
     27          6           0      -11.098229    1.513142   -1.239348
     28          6           0      -11.125353    0.133835   -1.268896
     29          6           0       -9.885427   -0.293032   -0.935210
     30          6           0      -12.174030    2.495513   -1.488102
     31          6           0      -12.275990   -0.675882   -1.776751
     32          6           0      -12.179803   -0.993899   -3.349817
     33          7           0       -7.169226   -1.427182   -0.195477
     34          6           0       -8.253759   -2.261301   -0.590164
     35          6           0       -7.795415   -3.600433   -0.503316
     36          6           0       -6.530737   -3.544641   -0.059589
     37          6           0       -6.171399   -2.224856    0.167610
     38          6           0       -8.587907   -4.745198   -0.852867
     39          6           0       -5.312844   -4.365917    0.264555
     40          8           0       -5.263333   -5.602890    0.124301
     41          6           0       -4.176523   -3.347607    0.550006
     42          6           0       -3.590518   -3.734062    1.987754
     43          8           0       -3.716293   -3.098570    3.019162
     44          8           0       -2.700866   -4.738852    1.785419
     45          6           0       -2.327346   -5.379689    3.039680
     46          6           0        2.788561   -0.636134   -1.114407
     47          6           0        4.187706   -0.389012   -0.539786
     48          6           0        5.106845    0.462777   -1.034393
     49          6           0        4.984933    1.256209   -2.116889
     50          6           0        6.392907    0.486548   -0.235414
     51          6           0        7.591094   -0.293910   -0.840885
     52          6           0        8.855217   -0.275925   -0.032604
     53          6           0       10.131829   -0.484109   -0.951222
     54          6           0       10.136432   -1.954842   -1.588290
     55          6           0       11.373973   -0.316688   -0.043656
     56          6           0       12.746611   -0.476978   -0.805128
     57          6           0       13.842931   -0.021445    0.119971
     58          6           0       15.296517   -0.104900   -0.441650
     59          6           0       15.676829   -1.550077   -1.020310
     60          6           0       16.299991    0.508673    0.381921
     61          6           0       17.722204    0.516343   -0.201992
     62          6           0       18.729697    1.154458    0.774130
     63          6           0       20.171281    1.299581    0.339748
     64          6           0       20.306849    2.111427   -1.013091
     65          6           0       21.020667    1.854351    1.454368
     66          1           0       -4.053883    3.590334    1.318926
     67          1           0      -10.193112    3.746472   -0.313945
     68          1           0      -10.100056   -2.469158   -1.340392
     69          1           0       -2.567339   -1.075831    2.040752
     70          1           0       -2.231155    1.611815    1.268641
     71          1           0       -1.881930    0.954508    3.649329
     72          1           0       -3.208248    2.344878    3.616549
     73          1           0       -3.769236    0.518497    3.708110
     74          1           0       -2.192475   -1.748883   -0.460829
     75          1           0       -2.111214    0.000831   -0.830368
     76          1           0       -0.275048    0.421057    0.895940
     77          1           0       -0.249704   -1.018933    1.242089
     78          1           0       -5.819065    6.774141    0.595962
     79          1           0       -5.411627    6.097733    2.126657
     80          1           0       -4.376126    5.732508    0.613923
     81          1           0       -9.308512    5.867500   -0.515836
     82          1           0       -9.035853    7.957648    0.886250
     83          1           0       -7.608813    7.424794    1.632679
     84          1           0      -12.014661    3.309183   -2.152764
     85          1           0      -13.015135    2.040823   -1.770825
     86          1           0      -12.343518    3.022142   -0.451798
     87          1           0      -12.436312   -1.706830   -1.416932
     88          1           0      -13.213986   -0.276613   -1.519186
     89          1           0      -12.941757   -1.720027   -3.653572
     90          1           0      -12.091897   -0.185586   -3.925326
     91          1           0      -11.247525   -1.666604   -3.572921
     92          1           0       -9.179710   -4.602079   -1.824411
     93          1           0       -7.893237   -5.542330   -0.729264
     94          1           0       -9.398885   -4.739651    0.030119
     95          1           0       -3.162067   -3.227515   -0.133419
     96          1           0       -1.587009   -4.663939    3.638523
     97          1           0       -3.195779   -5.716367    3.551578
     98          1           0       -1.693898   -6.174456    2.868755
     99          1           0        2.851257   -1.618224   -1.586028
    100          1           0        2.510041   -0.048952   -1.906971
    101          1           0        4.520600   -0.946637    0.199100
    102          1           0        3.881681    1.279705   -2.520803
    103          1           0        5.385227    2.227377   -2.252990
    104          1           0        5.321699    0.843599   -2.908325
    105          1           0        6.677876    1.470218   -0.145576
    106          1           0        6.169934    0.311714    0.869534
    107          1           0        7.314422   -1.547246   -1.011520
    108          1           0        7.795130    0.334891   -1.757326
    109          1           0        9.079841    0.646892    0.399593
    110          1           0        8.866270   -0.930831    0.878867
    111          1           0       10.125038    0.143351   -1.761731
    112          1           0        9.307905   -2.286872   -2.378289
    113          1           0       10.929369   -1.872174   -2.270397
    114          1           0       10.464239   -2.755551   -0.671607
    115          1           0       11.190125    0.741848    0.504576
    116          1           0       11.296242   -1.025365    0.801663
    117          1           0       12.681275   -1.568292   -1.239989
    118          1           0       13.010572    0.177639   -1.693801
    119          1           0       13.412333    1.031908    0.472008
    120          1           0       13.954803   -0.762783    0.998090
    121          1           0       15.137092    0.354394   -1.622529
    122          1           0       16.047774   -2.197411   -0.292050
    123          1           0       14.526601   -1.932528   -1.533920
    124          1           0       16.414336   -1.649512   -1.881661
    125          1           0       16.119094    1.592784    0.633862
    126          1           0       16.087195   -0.134555    1.344734
    127          1           0       18.031317   -0.420294   -0.451180
    128          1           0       17.605417    0.987913   -1.137574
    129          1           0       18.216374    2.087553    1.031282
    130          1           0       18.788403    0.580045    1.724685
    131          1           0       20.497617    0.312370    0.149958
    132          1           0       19.923339    3.194756   -0.824353
    133          1           0       21.383259    2.125758   -1.276435
    134          1           0       19.665686    1.713960   -1.756171
    135          1           0       20.849156    1.399097    2.448243
    136          1           0       22.051705    1.992776    0.881628
    137          1           0       20.775802    2.990154    1.644075
 ---------------------------------------------------------------------

 SCF Done:  E(RCAM-B3LYP) =  -2932.63078087     A.U. after   15 cycles

 Excitation energies and oscillator strengths:

 Excited State   1:      Singlet-A      2.2434 eV  552.66 nm  f=0.1721  <S**2>=0.000
     240 -> 242       -0.11698
     240 -> 243        0.28704
     241 -> 242        0.61133
     241 -> 243        0.12744
 This state for optimization and/or second-order correction.
 Total Energy, E(TD-HF/TD-KS) =  -2932.54833773
 Copying the excited state density for this state as the 1-particle RhoCI density.

 The electronic state is 1-A.
 Alpha  occ. eigenvalues --  -46.82807 -19.26951 -19.25817 -19.22000 -19.20974
 Alpha  occ. eigenvalues --  -19.20396 -14.40469 -14.39463 -14.38521 -14.37642
 Alpha  occ. eigenvalues --  -10.40154 -10.38706 -10.36118 -10.31489 -10.30657
 Alpha  occ. eigenvalues --  -10.30655 -10.30613 -10.30385 -10.30173 -10.29035
 Alpha  occ. eigenvalues --  -10.28286 -10.28266 -10.28155 -10.28119 -10.28104
 Alpha  occ. eigenvalues --  -10.28081 -10.27715 -10.27678 -10.27602 -10.27550
 Alpha  occ. eigenvalues --  -10.27449 -10.27030 -10.26936 -10.26782 -10.26759
 Alpha  occ. eigenvalues --  -10.26725 -10.26646 -10.26568 -10.26489 -10.26486
 Alpha  occ. eigenvalues --  -10.26425 -10.26269 -10.26132 -10.26080 -10.26024
 Alpha  occ. eigenvalues --  -10.26014 -10.25882 -10.25754 -10.25713 -10.25610
 Alpha  occ. eigenvalues --  -10.25564 -10.25314 -10.25215 -10.25081 -10.24838
 Alpha  occ. eigenvalues --  -10.24740 -10.24731 -10.24660 -10.24532 -10.24508
 Alpha  occ. eigenvalues --  -10.24342 -10.24228 -10.24226 -10.23867 -10.23791
 Alpha  occ. eigenvalues --   -3.11980  -1.86678  -1.86210  -1.86176  -1.18082
 Alpha  occ. eigenvalues --   -1.17911  -1.09871  -1.09558  -1.08633  -1.04549
 Alpha  occ. eigenvalues --   -1.02951  -1.02806  -0.99924  -0.92705  -0.92600
 Alpha  occ. eigenvalues --   -0.90912  -0.90697  -0.89753  -0.89544  -0.89110
 Alpha  occ. eigenvalues --   -0.88810  -0.88328  -0.87509  -0.87186  -0.86167
 Alpha  occ. eigenvalues --   -0.85232  -0.84299  -0.83476  -0.83051  -0.82673
 Alpha  occ. eigenvalues --   -0.82247  -0.81290  -0.80972  -0.79924  -0.78917
 Alpha  occ. eigenvalues --   -0.78111  -0.77279  -0.77031  -0.76105  -0.75210
 Alpha  occ. eigenvalues --   -0.74925  -0.74559  -0.74165  -0.73285  -0.72690
 Alpha  occ. eigenvalues --   -0.71306  -0.70470  -0.70255  -0.69751  -0.69213
 Alpha  occ. eigenvalues --   -0.67448  -0.66667  -0.65691  -0.65320  -0.64217
 Alpha  occ. eigenvalues --   -0.64091  -0.63873  -0.63532  -0.63120  -0.61973
 Alpha  occ. eigenvalues --   -0.61650  -0.60905  -0.60479  -0.60283  -0.59800
 Alpha  occ. eigenvalues --   -0.58618  -0.58109  -0.57731  -0.56685  -0.56424
 Alpha  occ. eigenvalues --   -0.56231  -0.56069  -0.55763  -0.55377  -0.55207
 Alpha  occ. eigenvalues --   -0.54752  -0.54367  -0.53966  -0.53725  -0.53260
 Alpha  occ. eigenvalues --   -0.52630  -0.52465  -0.52211  -0.51961  -0.51762
 Alpha  occ. eigenvalues --   -0.51562  -0.51408  -0.51286  -0.50755  -0.50663
 Alpha  occ. eigenvalues --   -0.50605  -0.50397  -0.50056  -0.49850  -0.49632
 Alpha  occ. eigenvalues --   -0.49515  -0.49347  -0.48944  -0.48872  -0.48365
 Alpha  occ. eigenvalues --   -0.48280  -0.47725  -0.47607  -0.47406  -0.46960
 Alpha  occ. eigenvalues --   -0.46834  -0.46567  -0.46226  -0.46116  -0.45941
 Alpha  occ. eigenvalues --   -0.45667  -0.45501  -0.45276  -0.45152  -0.44909
 Alpha  occ. eigenvalues --   -0.44813  -0.44394  -0.44136  -0.44019  -0.43929
 Alpha  occ. eigenvalues --   -0.43751  -0.43653  -0.43394  -0.43105  -0.43055
 Alpha  occ. eigenvalues --   -0.42886  -0.42722  -0.42532  -0.42355  -0.42308
 Alpha  occ. eigenvalues --   -0.42125  -0.42019  -0.41844  -0.41735  -0.41387
 Alpha  occ. eigenvalues --   -0.41083  -0.40984  -0.40722  -0.40592  -0.39929
 Alpha  occ. eigenvalues --   -0.39906  -0.39840  -0.39760  -0.39120  -0.39023
 Alpha  occ. eigenvalues --   -0.38860  -0.38763  -0.38377  -0.37930  -0.37825
 Alpha  occ. eigenvalues --   -0.37690  -0.37340  -0.37243  -0.36753  -0.36691
 Alpha  occ. eigenvalues --   -0.36471  -0.36355  -0.36299  -0.36093  -0.35709
 Alpha  occ. eigenvalues --   -0.35257  -0.34815  -0.34027  -0.33857  -0.33362
 Alpha  occ. eigenvalues --   -0.32858  -0.32771  -0.32247  -0.30870  -0.30368
 Alpha  occ. eigenvalues --   -0.29462  -0.28804  -0.28373  -0.26786  -0.23221
 Alpha  occ. eigenvalues --   -0.21357
 Alpha virt. eigenvalues --   -0.05479  -0.03236   0.01246   0.03720   0.05472
 Alpha virt. eigenvalues --    0.06275   0.06544   0.06726   0.07080   0.08096
 Alpha virt. eigenvalues --    0.08270   0.11051   0.11263   0.11445   0.12103

 Mulliken charges:
               1
     1  Mg   0.807246
     2  C    0.087767
     3  C   -0.192835
     4  C   -0.225303
     5  C   -0.168655
     6  N   -0.650962
     7  C    0.320045
     8  C   -0.173896
     9  C   -0.101718
    10  C    0.325563
    11  C   -0.290736
    12  C   -0.185635
    13  C   -0.236285
    14  C    0.590451
    15  O   -0.477784
    16  O   -0.485884
    17  N   -0.683158
    18  C    0.341369
    19  C   -0.077559
    20  C    0.162294
    21  C    0.218126
    22  C   -0.382721
    23  C   -0.072604
    24  C   -0.239485
    25  N   -0.699457
    26  C    0.312618
    27  C    0.000911
    28  C    0.048972
    29  C    0.272308
    30  C   -0.369434
    31  C   -0.249264
    32  C   -0.311884
    33  N   -0.756322
    34  C    0.286496
    35  C    0.014920
    36  C    0.013303
    37  C    0.320027
    38  C   -0.376596
    39  C    0.395807
    40  O   -0.471022
    41  C   -0.321535
    42  C    0.602343
    43  O   -0.453208
    44  O   -0.444750
    45  C   -0.081332
    46  C    0.023905
    47  C   -0.132496
    48  C    0.166609
    49  C   -0.402526
    50  C   -0.251953
    51  C   -0.146930
    52  C   -0.167069
    53  C   -0.059656
    54  C   -0.309659
    55  C   -0.181892
    56  C   -0.180388
    57  C   -0.149149
    58  C   -0.053181
    59  C   -0.303246
    60  C   -0.153211
    61  C   -0.187452
    62  C   -0.165857
    63  C   -0.054400
    64  C   -0.313064
    65  C   -0.298597
    66  H    0.067414
    67  H    0.073593
    68  H    0.088540
    69  H    0.124256
    70  H    0.112753
    71  H    0.090504
    72  H    0.094177
    73  H    0.126446
    74  H    0.095962
    75  H    0.121511
    76  H    0.130359
    77  H    0.141768
    78  H    0.115286
    79  H    0.127913
    80  H    0.115935
    81  H    0.108592
    82  H    0.107135
    83  H    0.110026
    84  H    0.122445
    85  H    0.115043
    86  H    0.100468
    87  H    0.097065
    88  H    0.106757
    89  H    0.099867
    90  H    0.124404
    91  H    0.084722
    92  H    0.124708
    93  H    0.155366
    94  H    0.117551
    95  H    0.160715
    96  H    0.109779
    97  H    0.141622
    98  H    0.134167
    99  H    0.123607
   100  H    0.118044
   101  H    0.079523
   102  H    0.094324
   103  H    0.120133
   104  H    0.150009
   105  H    0.102220
   106  H    0.090820
   107  H    0.072037
   108  H    0.089109
   109  H    0.091381
   110  H    0.088600
   111  H    0.096442
   112  H    0.092208
   113  H    0.113277
   114  H    0.074866
   115  H    0.066044
   116  H    0.104233
   117  H    0.098326
   118  H    0.092821
   119  H    0.092622
   120  H    0.076647
   121  H    0.024930
   122  H    0.107631
   123  H    0.061340
   124  H    0.107475
   125  H    0.090475
   126  H    0.072046
   127  H    0.099119
   128  H    0.103806
   129  H    0.081685
   130  H    0.081716
   131  H    0.095291
   132  H    0.089028
   133  H    0.098421
   134  H    0.112946
   135  H    0.109207
   136  H    0.087011
   137  H    0.083401
 Sum of Mulliken charges =   0.00000

 Dipole moment (field-independent basis, Debye):
    X=              2.4731    Y=              3.9520    Z=              1.0045  Tot=              4.7690
 Quadrupole moment (field-independent basis, Debye-Ang):
   XX=           -353.6076   YY=           -384.6860   ZZ=           -395.1890
   XY=            -18.3652   XZ=              0.7966   YZ=             -5.0741

 Normal termination of Gaussian 09 at Thu Jul  4 01:11:40 2019.
