 Gaussian 09, Revision D.01,
 Gaussian 09:  ES64L-G09RevD.01 24-Apr-2013

 -------------------------------------
 # td=(NStates=1) CAM-B3LYP/6-31G(d,p)
 -------------------------------------

 --
 TD
 --
 Symbolic Z-matrix:
 Charge =  0 Multiplicity = 1

                         Standard orientation:
 ---------------------------------------------------------------------
 Center     Atomic      Atomic             Coordinates (Angstroms)
 Number     Number       Type             X           Y           Z
 ---------------------------------------------------------------------
      1         12           0       -7.091122    0.628555    0.024753
      2          6           0       -4.764802   -1.899473    0.478606
      3          6           0       -4.815994    2.807109    1.154478
      4          6           0       -9.402211    3.081193   -0.383578
      5          6           0       -9.565912   -1.669347   -0.868729
      6          7           0       -5.128853    0.374879    0.714089
      7          6           0       -4.355435   -0.718869    0.860303
      8          6           0       -2.940216   -0.443391    1.184330
      9          6           0       -3.079381    1.044099    1.706043
     10          6           0       -4.470653    1.405704    1.153731
     11          6           0       -2.882019    1.277226    3.168638
     12          6           0       -1.884586   -0.651580    0.048662
     13          6           0       -0.411132   -0.426116    0.476339
     14          6           0        0.476213   -0.671797   -0.616391
     15          8           0        0.186009   -1.148830   -1.660726
     16          8           0        1.725822   -0.390065   -0.259806
     17          7           0       -7.112952    2.598609    0.316337
     18          6           0       -6.044167    3.353086    0.729288
     19          6           0       -6.434020    4.834685    0.729301
     20          6           0       -7.727337    4.875160    0.394660
     21          6           0       -8.156018    3.469461    0.052232
     22          6           0       -5.518217    5.923156    1.060895
     23          6           0       -8.462779    6.016693    0.135488
     24          6           0       -8.562424    7.183264    0.848296
     25          7           0       -9.049315    0.635807   -0.546385
     26          6           0       -9.826116    1.893061   -0.634946
     27          6           0      -11.175459    1.479032   -1.106712
     28          6           0      -11.249714    0.216028   -1.235956
     29          6           0       -9.875372   -0.360734   -0.943295
     30          6           0      -12.296588    2.590339   -1.325138
     31          6           0      -12.411747   -0.602769   -1.831377
     32          6           0      -12.237364   -1.044052   -3.272021
     33          7           0       -7.268934   -1.379198   -0.135143
     34          6           0       -8.357288   -2.241526   -0.528750
     35          6           0       -7.956842   -3.551423   -0.401040
     36          6           0       -6.628980   -3.485946   -0.084218
     37          6           0       -6.215072   -2.240590    0.056531
     38          6           0       -8.795466   -4.801018   -0.640839
     39          6           0       -5.485909   -4.310919    0.317705
     40          8           0       -5.233586   -5.520432    0.301615
     41          6           0       -4.225956   -3.413462    0.461442
     42          6           0       -3.546944   -3.716341    1.866301
     43          8           0       -3.871992   -3.265948    2.969301
     44          8           0       -2.620454   -4.610414    1.743459
     45          6           0       -2.141540   -5.177772    2.992201
     46          6           0        2.786670   -0.695651   -1.241213
     47          6           0        4.140441   -0.590407   -0.565564
     48          6           0        5.137294    0.196328   -0.931616
     49          6           0        5.170224    1.127974   -2.156502
     50          6           0        6.369998    0.170170   -0.020833
     51          6           0        7.660123   -0.298722   -0.903754
     52          6           0        9.084911   -0.114659   -0.173408
     53          6           0       10.213699   -0.678434   -0.906907
     54          6           0       10.169189   -2.181625   -1.336640
     55          6           0       11.412781   -0.384143   -0.047729
     56          6           0       12.799038   -0.406430   -0.763516
     57          6           0       14.009799   -0.068963    0.168134
     58          6           0       15.347286   -0.238347   -0.589069
     59          6           0       15.699239   -1.509937   -1.111913
     60          6           0       16.435540    0.358102    0.394105
     61          6           0       17.865941    0.596417   -0.163268
     62          6           0       18.864293    1.265395    0.798242
     63          6           0       20.300997    1.452161    0.286235
     64          6           0       20.432598    2.322864   -0.981453
     65          6           0       21.165249    2.093818    1.441343
     66          1           0       -3.954023    3.469089    1.532938
     67          1           0      -10.120426    3.927739   -0.453454
     68          1           0      -10.403155   -2.268553   -1.341269
     69          1           0       -2.584228   -1.085435    1.953686
     70          1           0       -2.356903    1.622302    1.275316
     71          1           0       -1.961479    0.964772    3.404708
     72          1           0       -3.004937    2.294854    3.500490
     73          1           0       -3.543932    0.562435    3.825581
     74          1           0       -2.090557   -1.669101   -0.484062
     75          1           0       -2.027063   -0.144439   -0.882967
     76          1           0       -0.241640    0.498272    0.945095
     77          1           0       -0.060565   -1.056134    1.352034
     78          1           0       -5.825728    6.815895    0.456969
     79          1           0       -5.376959    6.352109    2.152386
     80          1           0       -4.430471    5.583075    0.811040
     81          1           0       -9.087923    6.091004   -0.730667
     82          1           0       -9.190278    8.012441    0.615303
     83          1           0       -8.004546    7.457388    1.676889
     84          1           0      -11.839109    3.148068   -2.131786
     85          1           0      -13.186190    1.998251   -1.581440
     86          1           0      -12.437968    3.152020   -0.239535
     87          1           0      -12.870110   -1.453516   -1.114577
     88          1           0      -13.392182    0.203189   -1.835877
     89          1           0      -12.895475   -1.705999   -3.669646
     90          1           0      -12.339487   -0.417861   -4.057848
     91          1           0      -11.412855   -1.742464   -3.678051
     92          1           0       -9.051021   -4.801045   -1.566832
     93          1           0       -8.412906   -5.833360   -0.539087
     94          1           0       -9.640554   -4.721910   -0.141988
     95          1           0       -3.662487   -3.673659   -0.519600
     96          1           0       -1.685158   -4.297116    3.444442
     97          1           0       -2.905204   -5.582473    3.532234
     98          1           0       -1.359772   -5.953632    2.838324
     99          1           0        2.871556   -1.783181   -1.670029
    100          1           0        2.434887   -0.001903   -2.141971
    101          1           0        4.238159   -1.286157    0.345869
    102          1           0        4.133004    1.566805   -2.531038
    103          1           0        6.071149    1.878283   -2.122676
    104          1           0        5.503622    0.616523   -3.047231
    105          1           0        6.461934    1.256880    0.367776
    106          1           0        6.366757   -0.640004    0.619431
    107          1           0        7.297656   -1.320138   -1.117751
    108          1           0        7.846547    0.286644   -1.856726
    109          1           0        9.265002    0.873987    0.108555
    110          1           0        9.090169   -0.745046    0.754796
    111          1           0       10.210114   -0.297854   -1.942567
    112          1           0        9.331336   -2.482507   -2.112716
    113          1           0       11.257123   -2.488804   -1.606893
    114          1           0       10.023308   -2.574784   -0.333026
    115          1           0       11.241467    0.686230    0.482387
    116          1           0       11.313422   -1.052936    0.721577
    117          1           0       12.984349   -1.451992   -1.032392
    118          1           0       12.546250    0.141384   -1.636435
    119          1           0       13.988328    0.991617    0.658841
    120          1           0       13.987995   -0.862210    0.950122
    121          1           0       15.347925    0.598994   -1.297086
    122          1           0       15.871317   -2.136956   -0.271851
    123          1           0       15.058646   -2.051821   -1.879196
    124          1           0       16.714110   -1.489945   -1.770314
    125          1           0       15.854526    1.308430    0.528623
    126          1           0       16.320415   -0.202699    1.296835
    127          1           0       18.236200   -0.311499   -0.492917
    128          1           0       17.978374    1.246195   -0.998979
    129          1           0       18.315340    2.178806    1.077322
    130          1           0       18.884491    0.448892    1.650341
    131          1           0       20.848385    0.494086    0.196973
    132          1           0       20.199895    3.159665   -0.673768
    133          1           0       21.352410    2.238997   -1.534229
    134          1           0       19.580794    1.927726   -1.675375
    135          1           0       21.205626    1.626311    2.391556
    136          1           0       22.220128    2.420663    1.002578
    137          1           0       20.602845    3.190754    1.569849
 ---------------------------------------------------------------------

 SCF Done:  E(RCAM-B3LYP) =  -2932.63994430     A.U. after   18 cycles

 Excitation energies and oscillator strengths:

 Excited State   1:      Singlet-A      1.9824 eV  625.43 nm  f=0.3342  <S**2>=0.000
     240 -> 243        0.15562
     241 -> 242        0.68555
 This state for optimization and/or second-order correction.
 Total Energy, E(TD-HF/TD-KS) =  -2932.56709262
 Copying the excited state density for this state as the 1-particle RhoCI density.

 The electronic state is 1-A.
 Alpha  occ. eigenvalues --  -46.83182 -19.25921 -19.25687 -19.20222 -19.19276
 Alpha  occ. eigenvalues --  -19.18306 -14.42036 -14.40444 -14.39065 -14.37405
 Alpha  occ. eigenvalues --  -10.38581 -10.37934 -10.33467 -10.33443 -10.31629
 Alpha  occ. eigenvalues --  -10.31557 -10.30844 -10.30346 -10.29988 -10.29128
 Alpha  occ. eigenvalues --  -10.28791 -10.28621 -10.28107 -10.28031 -10.27845
 Alpha  occ. eigenvalues --  -10.27723 -10.27649 -10.27643 -10.27491 -10.27364
 Alpha  occ. eigenvalues --  -10.27329 -10.27060 -10.26950 -10.26949 -10.26857
 Alpha  occ. eigenvalues --  -10.26815 -10.26804 -10.26671 -10.26630 -10.26608
 Alpha  occ. eigenvalues --  -10.26466 -10.26446 -10.26434 -10.26371 -10.26218
 Alpha  occ. eigenvalues --  -10.26120 -10.26035 -10.25968 -10.25782 -10.25693
 Alpha  occ. eigenvalues --  -10.25672 -10.25663 -10.25209 -10.25141 -10.25128
 Alpha  occ. eigenvalues --  -10.25055 -10.25026 -10.25010 -10.24972 -10.24969
 Alpha  occ. eigenvalues --  -10.24212 -10.23866 -10.23508 -10.22717 -10.22356
 Alpha  occ. eigenvalues --   -3.12426  -1.87114  -1.86674  -1.86610  -1.18836
 Alpha  occ. eigenvalues --   -1.18775  -1.09625  -1.08435  -1.06945  -1.06426
 Alpha  occ. eigenvalues --   -1.03621  -1.01967  -1.00646  -0.91620  -0.91206
 Alpha  occ. eigenvalues --   -0.90832  -0.90674  -0.90332  -0.89857  -0.89091
 Alpha  occ. eigenvalues --   -0.88689  -0.88374  -0.87625  -0.86573  -0.85833
 Alpha  occ. eigenvalues --   -0.84640  -0.84119  -0.83509  -0.82976  -0.82814
 Alpha  occ. eigenvalues --   -0.81849  -0.81321  -0.81213  -0.79732  -0.78516
 Alpha  occ. eigenvalues --   -0.78347  -0.77126  -0.76535  -0.76326  -0.76178
 Alpha  occ. eigenvalues --   -0.75637  -0.74980  -0.74514  -0.73614  -0.73003
 Alpha  occ. eigenvalues --   -0.71685  -0.71100  -0.69646  -0.69465  -0.68799
 Alpha  occ. eigenvalues --   -0.67190  -0.66632  -0.66033  -0.64641  -0.64342
 Alpha  occ. eigenvalues --   -0.63189  -0.63011  -0.62545  -0.62404  -0.62004
 Alpha  occ. eigenvalues --   -0.61832  -0.61064  -0.60532  -0.60032  -0.59484
 Alpha  occ. eigenvalues --   -0.58115  -0.57901  -0.57044  -0.56546  -0.56300
 Alpha  occ. eigenvalues --   -0.56241  -0.55683  -0.55421  -0.55322  -0.55066
 Alpha  occ. eigenvalues --   -0.54887  -0.54012  -0.53723  -0.53504  -0.53342
 Alpha  occ. eigenvalues --   -0.53095  -0.52567  -0.52228  -0.52097  -0.51909
 Alpha  occ. eigenvalues --   -0.51627  -0.51369  -0.50992  -0.50512  -0.50474
 Alpha  occ. eigenvalues --   -0.50278  -0.50117  -0.49767  -0.49593  -0.49406
 Alpha  occ. eigenvalues --   -0.49248  -0.48866  -0.48715  -0.48614  -0.48301
 Alpha  occ. eigenvalues --   -0.47900  -0.47565  -0.47545  -0.47238  -0.46963
 Alpha  occ. eigenvalues --   -0.46795  -0.46589  -0.46435  -0.46276  -0.45948
 Alpha  occ. eigenvalues --   -0.45815  -0.45720  -0.45619  -0.45399  -0.44784
 Alpha  occ. eigenvalues --   -0.44647  -0.44615  -0.44593  -0.44401  -0.43891
 Alpha  occ. eigenvalues --   -0.43805  -0.43767  -0.43527  -0.43405  -0.43076
 Alpha  occ. eigenvalues --   -0.42909  -0.42841  -0.42505  -0.42273  -0.42185
 Alpha  occ. eigenvalues --   -0.41963  -0.41542  -0.41406  -0.41337  -0.41269
 Alpha  occ. eigenvalues --   -0.41204  -0.40959  -0.40810  -0.40338  -0.40148
 Alpha  occ. eigenvalues --   -0.40077  -0.39725  -0.39473  -0.39205  -0.39193
 Alpha  occ. eigenvalues --   -0.38748  -0.38406  -0.38138  -0.37949  -0.37809
 Alpha  occ. eigenvalues --   -0.37533  -0.37220  -0.37019  -0.36555  -0.36506
 Alpha  occ. eigenvalues --   -0.36331  -0.35757  -0.35727  -0.35525  -0.35371
 Alpha  occ. eigenvalues --   -0.35006  -0.34952  -0.34526  -0.33758  -0.32962
 Alpha  occ. eigenvalues --   -0.32819  -0.32429  -0.32204  -0.31471  -0.29679
 Alpha  occ. eigenvalues --   -0.29655  -0.28641  -0.28488  -0.27513  -0.24158
 Alpha  occ. eigenvalues --   -0.20577
 Alpha virt. eigenvalues --   -0.06786  -0.01118   0.02547   0.03986   0.05876
 Alpha virt. eigenvalues --    0.06592   0.06878   0.07538   0.07785   0.08092
 Alpha virt. eigenvalues --    0.09026   0.10628   0.11312   0.11485   0.11753

 Mulliken charges:
               1
     1  Mg   0.808019
     2  C    0.040358
     3  C   -0.232112
     4  C   -0.209119
     5  C   -0.169886
     6  N   -0.631375
     7  C    0.297193
     8  C   -0.145482
     9  C   -0.156047
    10  C    0.382125
    11  C   -0.309189
    12  C   -0.190394
    13  C   -0.279069
    14  C    0.627924
    15  O   -0.470260
    16  O   -0.488656
    17  N   -0.728755
    18  C    0.330146
    19  C    0.068156
    20  C    0.048348
    21  C    0.307565
    22  C   -0.384883
    23  C   -0.136622
    24  C   -0.241689
    25  N   -0.690814
    26  C    0.310918
    27  C    0.013467
    28  C    0.041712
    29  C    0.302173
    30  C   -0.332872
    31  C   -0.243302
    32  C   -0.314907
    33  N   -0.717462
    34  C    0.238012
    35  C    0.012210
    36  C    0.000157
    37  C    0.266579
    38  C   -0.353147
    39  C    0.356867
    40  O   -0.490602
    41  C   -0.285652
    42  C    0.617656
    43  O   -0.512659
    44  O   -0.420917
    45  C   -0.081878
    46  C    0.019316
    47  C   -0.163428
    48  C    0.154615
    49  C   -0.370931
    50  C   -0.225947
    51  C   -0.205795
    52  C   -0.159656
    53  C   -0.067841
    54  C   -0.308064
    55  C   -0.178252
    56  C   -0.178239
    57  C   -0.178798
    58  C   -0.058051
    59  C   -0.302259
    60  C   -0.180168
    61  C   -0.186283
    62  C   -0.164253
    63  C   -0.071172
    64  C   -0.293605
    65  C   -0.292509
    66  H    0.088974
    67  H    0.094985
    68  H    0.089974
    69  H    0.120326
    70  H    0.109614
    71  H    0.119534
    72  H    0.111513
    73  H    0.111222
    74  H    0.117910
    75  H    0.121420
    76  H    0.140430
    77  H    0.137327
    78  H    0.125404
    79  H    0.117802
    80  H    0.105733
    81  H    0.104941
    82  H    0.107952
    83  H    0.104574
    84  H    0.134583
    85  H    0.110244
    86  H    0.107625
    87  H    0.106482
    88  H    0.071605
    89  H    0.114873
    90  H    0.120461
    91  H    0.094228
    92  H    0.131553
    93  H    0.135134
    94  H    0.122861
    95  H    0.161545
    96  H    0.127398
    97  H    0.150346
    98  H    0.120488
    99  H    0.122216
   100  H    0.111585
   101  H    0.097107
   102  H    0.110130
   103  H    0.104387
   104  H    0.134849
   105  H    0.099122
   106  H    0.114014
   107  H    0.100249
   108  H    0.083941
   109  H    0.106255
   110  H    0.073337
   111  H    0.075661
   112  H    0.101725
   113  H    0.097982
   114  H    0.094946
   115  H    0.063522
   116  H    0.096804
   117  H    0.096272
   118  H    0.103004
   119  H    0.084847
   120  H    0.087327
   121  H    0.088967
   122  H    0.103951
   123  H    0.098180
   124  H    0.085160
   125  H    0.079910
   126  H    0.089840
   127  H    0.099775
   128  H    0.090366
   129  H    0.092827
   130  H    0.075889
   131  H    0.089126
   132  H    0.117397
   133  H    0.109874
   134  H    0.082907
   135  H    0.114589
   136  H    0.083383
   137  H    0.058997
 Sum of Mulliken charges =   0.00000

 Dipole moment (field-independent basis, Debye):
    X=              2.4314    Y=              6.1285    Z=             -0.7009  Tot=              6.6304
 Quadrupole moment (field-independent basis, Debye-Ang):
   XX=           -343.2693   YY=           -389.7158   ZZ=           -393.1606
   XY=            -41.4815   XZ=             15.0042   YZ=             -0.1234

 Normal termination of Gaussian 09 at Thu Jul  4 07:53:40 2019.
