 Gaussian 09, Revision D.01,
 Gaussian 09:  ES64L-G09RevD.01 24-Apr-2013

 -------------------------------------
 # td=(NStates=1) CAM-B3LYP/6-31G(d,p)
 -------------------------------------

 --
 TD
 --
 Symbolic Z-matrix:
 Charge =  0 Multiplicity = 1

                         Standard orientation:
 ---------------------------------------------------------------------
 Center     Atomic      Atomic             Coordinates (Angstroms)
 Number     Number       Type             X           Y           Z
 ---------------------------------------------------------------------
      1         12           0       -7.073428    0.549163    0.177233
      2          6           0       -4.828452   -1.989162    0.501198
      3          6           0       -4.838043    2.849140    1.138621
      4          6           0       -9.402402    3.085821   -0.395569
      5          6           0       -9.572189   -1.730345   -0.887001
      6          7           0       -5.064807    0.402735    0.676369
      7          6           0       -4.320768   -0.713690    0.773819
      8          6           0       -2.884220   -0.415514    1.041055
      9          6           0       -2.975331    1.110758    1.654097
     10          6           0       -4.314469    1.508925    1.166347
     11          6           0       -2.828306    1.198604    3.139628
     12          6           0       -1.852764   -0.612840   -0.027279
     13          6           0       -0.434717   -0.351609    0.493171
     14          6           0        0.528548   -0.591051   -0.665828
     15          8           0        0.244896   -1.040975   -1.784432
     16          8           0        1.793720   -0.450946   -0.209619
     17          7           0       -7.127758    2.597617    0.316318
     18          6           0       -6.123649    3.361339    0.735271
     19          6           0       -6.349459    4.759877    0.695243
     20          6           0       -7.713592    4.830647    0.352385
     21          6           0       -8.115030    3.465193    0.030926
     22          6           0       -5.477085    5.781743    1.100202
     23          6           0       -8.559477    6.003122    0.223812
     24          6           0       -8.558359    7.088853    1.061078
     25          7           0       -9.158419    0.701226   -0.443949
     26          6           0       -9.882571    1.790498   -0.645476
     27          6           0      -11.208972    1.485647   -1.062961
     28          6           0      -11.195666    0.047996   -1.169488
     29          6           0       -9.910434   -0.406876   -0.857770
     30          6           0      -12.322280    2.379164   -1.377844
     31          6           0      -12.390391   -0.770623   -1.687012
     32          6           0      -12.364379   -0.964565   -3.346106
     33          7           0       -7.261719   -1.477322   -0.098639
     34          6           0       -8.229254   -2.246525   -0.534301
     35          6           0       -7.791308   -3.669963   -0.526911
     36          6           0       -6.438599   -3.614010   -0.016852
     37          6           0       -6.128416   -2.268643    0.165685
     38          6           0       -8.652442   -4.865854   -0.989405
     39          6           0       -5.232908   -4.395382    0.226413
     40          8           0       -5.129442   -5.599104    0.249130
     41          6           0       -4.150519   -3.315292    0.597739
     42          6           0       -3.591031   -3.713431    1.904444
     43          8           0       -3.855051   -3.146425    2.941451
     44          8           0       -2.701281   -4.697851    1.757873
     45          6           0       -2.085443   -5.131021    2.970907
     46          6           0        2.826970   -0.610329   -1.266620
     47          6           0        4.111245   -0.397671   -0.547265
     48          6           0        5.074534    0.406323   -0.890392
     49          6           0        5.035875    1.361964   -2.130712
     50          6           0        6.387924    0.495211   -0.166614
     51          6           0        7.578866    0.081777   -1.020319
     52          6           0        8.913265    0.102250   -0.171233
     53          6           0       10.199088   -0.461173   -0.979728
     54          6           0       10.018199   -1.990328   -1.274852
     55          6           0       11.420052   -0.286054   -0.114186
     56          6           0       12.746149   -0.538449   -0.706691
     57          6           0       14.017372   -0.220186    0.169887
     58          6           0       15.393704   -0.202875   -0.394249
     59          6           0       15.754712   -1.614834   -0.967904
     60          6           0       16.426822    0.256098    0.537889
     61          6           0       17.740583    0.626497   -0.205927
     62          6           0       18.801337    0.967677    0.754127
     63          6           0       20.222792    1.276503    0.220937
     64          6           0       20.225745    2.256842   -1.079195
     65          6           0       21.165323    1.830491    1.322381
     66          1           0       -3.967919    3.483866    1.454227
     67          1           0      -10.054675    3.998245   -0.548215
     68          1           0      -10.290450   -2.450846   -1.350707
     69          1           0       -2.659086   -1.107310    1.814171
     70          1           0       -2.369131    1.660901    1.299147
     71          1           0       -1.788194    0.940452    3.655885
     72          1           0       -3.081053    2.115005    3.589502
     73          1           0       -3.677504    0.491993    3.364156
     74          1           0       -1.914836   -1.587475   -0.451395
     75          1           0       -2.059424    0.115942   -0.843099
     76          1           0       -0.274154    0.550580    0.965612
     77          1           0       -0.009954   -1.036686    1.365354
     78          1           0       -5.883072    6.878104    0.812700
     79          1           0       -5.397338    5.903366    2.135066
     80          1           0       -4.590708    5.599669    0.481812
     81          1           0       -9.406709    5.927580   -0.523232
     82          1           0       -9.113113    7.934881    0.902006
     83          1           0       -7.780153    7.168029    1.812152
     84          1           0      -12.060661    3.019639   -2.231489
     85          1           0      -13.115901    2.067357   -1.964608
     86          1           0      -12.863222    3.127630   -0.647487
     87          1           0      -12.329055   -1.765530   -1.086221
     88          1           0      -13.421616   -0.241445   -1.309008
     89          1           0      -13.317221   -1.558756   -3.462782
     90          1           0      -12.589597    0.122478   -3.892567
     91          1           0      -11.482839   -1.437771   -3.640942
     92          1           0       -9.117922   -4.377236   -1.896092
     93          1           0       -8.008004   -5.805663   -1.230233
     94          1           0       -9.306442   -5.101798    0.014090
     95          1           0       -3.588445   -3.590113   -0.111853
     96          1           0       -1.390695   -4.553152    3.517360
     97          1           0       -2.859299   -5.560182    3.607467
     98          1           0       -1.538191   -6.117648    2.644007
     99          1           0        2.648601   -1.507484   -1.793376
    100          1           0        2.478290    0.252582   -1.960512
    101          1           0        4.376214   -1.026221    0.367425
    102          1           0        3.947778    1.732430   -2.635304
    103          1           0        5.471057    2.320266   -1.829541
    104          1           0        5.581503    0.948598   -3.042600
    105          1           0        6.569210    1.636205    0.236339
    106          1           0        6.466719   -0.025965    0.608211
    107          1           0        7.594377   -0.946699   -1.291478
    108          1           0        7.693521    0.547000   -2.113302
    109          1           0        9.053281    1.097295    0.013116
    110          1           0        8.584624   -0.442710    0.688945
    111          1           0       10.207491    0.141722   -1.706041
    112          1           0        8.943904   -2.167792   -1.797648
    113          1           0       10.971444   -2.353101   -1.865184
    114          1           0       10.007515   -2.570583   -0.250431
    115          1           0       11.157407    0.720178    0.371082
    116          1           0       11.258067   -0.861259    0.861788
    117          1           0       12.699364   -1.568672   -1.069430
    118          1           0       12.782944    0.257419   -1.535998
    119          1           0       13.643829    0.761682    0.737668
    120          1           0       14.116929   -0.873910    0.977007
    121          1           0       15.301072    0.582020   -1.221683
    122          1           0       15.580535   -2.735687   -0.307380
    123          1           0       14.955138   -1.675967   -1.851344
    124          1           0       16.702650   -1.652575   -1.469641
    125          1           0       16.160452    1.211005    0.997814
    126          1           0       16.526123   -0.346955    1.271422
    127          1           0       18.063990   -0.342399   -0.541671
    128          1           0       17.568735    1.380945   -1.019085
    129          1           0       18.465416    2.045477    1.101751
    130          1           0       18.751161    0.468896    1.785193
    131          1           0       20.807496    0.466379   -0.052643
    132          1           0       20.068196    3.295356   -0.679328
    133          1           0       21.368434    2.035503   -1.364864
    134          1           0       19.579453    1.963716   -1.703719
    135          1           0       21.167783    1.111916    2.135935
    136          1           0       22.402483    1.856213    1.047311
    137          1           0       20.733633    2.849723    1.514284
 ---------------------------------------------------------------------

 SCF Done:  E(RCAM-B3LYP) =  -2932.58869891     A.U. after   18 cycles

 Excitation energies and oscillator strengths:

 Excited State   1:      Singlet-A      1.9494 eV  636.00 nm  f=0.2763  <S**2>=0.000
     240 -> 242       -0.10672
     240 -> 243       -0.22564
     241 -> 242        0.65453
 This state for optimization and/or second-order correction.
 Total Energy, E(TD-HF/TD-KS) =  -2932.51705892
 Copying the excited state density for this state as the 1-particle RhoCI density.

 The electronic state is 1-A.
 Alpha  occ. eigenvalues --  -46.84933 -19.26727 -19.25826 -19.20971 -19.20261
 Alpha  occ. eigenvalues --  -19.20234 -14.41852 -14.39515 -14.38866 -14.38369
 Alpha  occ. eigenvalues --  -10.39215 -10.38648 -10.34759 -10.32238 -10.31330
 Alpha  occ. eigenvalues --  -10.31322 -10.30402 -10.29875 -10.29335 -10.29095
 Alpha  occ. eigenvalues --  -10.28657 -10.28637 -10.28339 -10.28287 -10.28143
 Alpha  occ. eigenvalues --  -10.28057 -10.28035 -10.28003 -10.27942 -10.27843
 Alpha  occ. eigenvalues --  -10.27821 -10.27599 -10.27493 -10.27310 -10.27189
 Alpha  occ. eigenvalues --  -10.26974 -10.26874 -10.26799 -10.26552 -10.26393
 Alpha  occ. eigenvalues --  -10.26380 -10.26311 -10.26304 -10.26257 -10.26247
 Alpha  occ. eigenvalues --  -10.26170 -10.26131 -10.26081 -10.26081 -10.26027
 Alpha  occ. eigenvalues --  -10.26008 -10.25957 -10.25905 -10.25899 -10.25786
 Alpha  occ. eigenvalues --  -10.25581 -10.25552 -10.25355 -10.25252 -10.25234
 Alpha  occ. eigenvalues --  -10.24961 -10.24880 -10.24635 -10.24584 -10.23072
 Alpha  occ. eigenvalues --   -3.13769  -1.88495  -1.87973  -1.87965  -1.18793
 Alpha  occ. eigenvalues --   -1.17070  -1.11354  -1.09286  -1.07935  -1.05369
 Alpha  occ. eigenvalues --   -1.03845  -1.03105  -1.02400  -0.93832  -0.91967
 Alpha  occ. eigenvalues --   -0.91613  -0.90549  -0.90092  -0.89907  -0.88885
 Alpha  occ. eigenvalues --   -0.88215  -0.88100  -0.86705  -0.86474  -0.86021
 Alpha  occ. eigenvalues --   -0.85064  -0.84342  -0.83861  -0.83491  -0.82248
 Alpha  occ. eigenvalues --   -0.81352  -0.80903  -0.80217  -0.79464  -0.78162
 Alpha  occ. eigenvalues --   -0.77905  -0.77583  -0.76346  -0.75788  -0.75504
 Alpha  occ. eigenvalues --   -0.74967  -0.74833  -0.74226  -0.73873  -0.72120
 Alpha  occ. eigenvalues --   -0.71528  -0.70658  -0.69840  -0.69149  -0.68456
 Alpha  occ. eigenvalues --   -0.67640  -0.66902  -0.66588  -0.65575  -0.64823
 Alpha  occ. eigenvalues --   -0.64363  -0.63917  -0.63227  -0.63013  -0.62626
 Alpha  occ. eigenvalues --   -0.62098  -0.60948  -0.60611  -0.60046  -0.59609
 Alpha  occ. eigenvalues --   -0.59254  -0.58244  -0.57734  -0.57448  -0.56610
 Alpha  occ. eigenvalues --   -0.56103  -0.55759  -0.55376  -0.55360  -0.54795
 Alpha  occ. eigenvalues --   -0.54448  -0.54072  -0.53988  -0.53900  -0.53468
 Alpha  occ. eigenvalues --   -0.53220  -0.52955  -0.52672  -0.52207  -0.52025
 Alpha  occ. eigenvalues --   -0.51531  -0.51376  -0.51056  -0.50876  -0.50705
 Alpha  occ. eigenvalues --   -0.50412  -0.50070  -0.49883  -0.49636  -0.49512
 Alpha  occ. eigenvalues --   -0.49208  -0.49090  -0.48856  -0.48539  -0.48051
 Alpha  occ. eigenvalues --   -0.48026  -0.47736  -0.47228  -0.47012  -0.46932
 Alpha  occ. eigenvalues --   -0.46903  -0.46598  -0.46339  -0.46130  -0.46111
 Alpha  occ. eigenvalues --   -0.45761  -0.45526  -0.45234  -0.44920  -0.44896
 Alpha  occ. eigenvalues --   -0.44811  -0.44606  -0.44501  -0.44329  -0.43917
 Alpha  occ. eigenvalues --   -0.43813  -0.43762  -0.43486  -0.43250  -0.43021
 Alpha  occ. eigenvalues --   -0.42829  -0.42700  -0.42666  -0.42579  -0.42071
 Alpha  occ. eigenvalues --   -0.41829  -0.41669  -0.41619  -0.41463  -0.41304
 Alpha  occ. eigenvalues --   -0.41201  -0.40862  -0.40793  -0.40716  -0.40304
 Alpha  occ. eigenvalues --   -0.40232  -0.40147  -0.39842  -0.39741  -0.39117
 Alpha  occ. eigenvalues --   -0.38938  -0.38911  -0.38642  -0.38114  -0.37563
 Alpha  occ. eigenvalues --   -0.37314  -0.37309  -0.36907  -0.36470  -0.36441
 Alpha  occ. eigenvalues --   -0.36419  -0.35976  -0.35811  -0.35622  -0.35566
 Alpha  occ. eigenvalues --   -0.35201  -0.35185  -0.34580  -0.34124  -0.33963
 Alpha  occ. eigenvalues --   -0.33529  -0.32810  -0.32137  -0.31163  -0.31086
 Alpha  occ. eigenvalues --   -0.29705  -0.28341  -0.27581  -0.26665  -0.22930
 Alpha  occ. eigenvalues --   -0.20612
 Alpha virt. eigenvalues --   -0.06582  -0.03063   0.01511   0.03888   0.05694
 Alpha virt. eigenvalues --    0.06237   0.06493   0.06578   0.06719   0.07363
 Alpha virt. eigenvalues --    0.08685   0.10805   0.11732   0.11764   0.11842

 Mulliken charges:
               1
     1  Mg   0.823056
     2  C    0.071035
     3  C   -0.223029
     4  C   -0.177113
     5  C   -0.185237
     6  N   -0.655027
     7  C    0.322000
     8  C   -0.167897
     9  C   -0.100338
    10  C    0.282503
    11  C   -0.303956
    12  C   -0.159097
    13  C   -0.271891
    14  C    0.619811
    15  O   -0.494502
    16  O   -0.494909
    17  N   -0.697687
    18  C    0.332432
    19  C    0.063927
    20  C    0.000364
    21  C    0.302017
    22  C   -0.386327
    23  C   -0.102258
    24  C   -0.235279
    25  N   -0.699518
    26  C    0.324349
    27  C    0.053395
    28  C   -0.000949
    29  C    0.333955
    30  C   -0.402801
    31  C   -0.246358
    32  C   -0.296825
    33  N   -0.724288
    34  C    0.289646
    35  C   -0.047713
    36  C    0.032315
    37  C    0.268346
    38  C   -0.345197
    39  C    0.311816
    40  O   -0.452506
    41  C   -0.292956
    42  C    0.640110
    43  O   -0.487845
    44  O   -0.441115
    45  C   -0.093856
    46  C    0.010362
    47  C   -0.138796
    48  C    0.142811
    49  C   -0.357972
    50  C   -0.189724
    51  C   -0.203157
    52  C   -0.203168
    53  C   -0.031528
    54  C   -0.301010
    55  C   -0.176472
    56  C   -0.168035
    57  C   -0.166001
    58  C   -0.058982
    59  C   -0.305834
    60  C   -0.158575
    61  C   -0.178773
    62  C   -0.167700
    63  C   -0.084446
    64  C   -0.293331
    65  C   -0.295130
    66  H    0.076565
    67  H    0.087990
    68  H    0.101497
    69  H    0.121951
    70  H    0.081937
    71  H    0.094971
    72  H    0.118541
    73  H    0.123191
    74  H    0.134154
    75  H    0.116914
    76  H    0.142306
    77  H    0.128513
    78  H    0.099583
    79  H    0.140458
    80  H    0.123402
    81  H    0.094262
    82  H    0.109793
    83  H    0.097519
    84  H    0.113501
    85  H    0.121192
    86  H    0.108634
    87  H    0.095407
    88  H    0.092669
    89  H    0.112311
    90  H    0.091459
    91  H    0.128113
    92  H    0.121772
    93  H    0.140229
    94  H    0.124020
    95  H    0.154480
    96  H    0.135917
    97  H    0.136523
    98  H    0.109742
    99  H    0.151221
   100  H    0.121435
   101  H    0.089894
   102  H    0.082198
   103  H    0.118527
   104  H    0.123679
   105  H    0.076255
   106  H    0.099800
   107  H    0.103588
   108  H    0.075085
   109  H    0.104074
   110  H    0.094832
   111  H    0.095238
   112  H    0.086623
   113  H    0.096048
   114  H    0.096765
   115  H    0.072642
   116  H    0.074896
   117  H    0.101087
   118  H    0.081229
   119  H    0.068973
   120  H    0.093247
   121  H    0.076193
   122  H    0.070714
   123  H    0.089833
   124  H    0.119463
   125  H    0.084662
   126  H    0.098488
   127  H    0.099268
   128  H    0.098921
   129  H    0.058238
   130  H    0.089233
   131  H    0.097048
   132  H    0.096695
   133  H    0.087720
   134  H    0.115094
   135  H    0.107528
   136  H    0.065004
   137  H    0.099900
 Sum of Mulliken charges =   0.00000

 Dipole moment (field-independent basis, Debye):
    X=              2.8385    Y=              4.5315    Z=              0.0872  Tot=              5.3478
 Quadrupole moment (field-independent basis, Debye-Ang):
   XX=           -359.3508   YY=           -393.8443   ZZ=           -397.5379
   XY=            -32.5640   XZ=             18.0190   YZ=             -1.4292

 Normal termination of Gaussian 09 at Thu Jul  4 20:10:33 2019.
