 Gaussian 16, Revision A.03,
 Gaussian 16:  ES64L-G16RevA.03 25-Dec-2016

 ----------------------------------------------------------------------
 # td=(NStates=1) iop(3/107=0140000000,3/108=0140000000) CAM-B3LYP/6-31
 G(d,p)
 ----------------------------------------------------------------------

 --
 TD
 --
 Symbolic Z-matrix:
 Charge =  0 Multiplicity = 1

                         Standard orientation:
 ---------------------------------------------------------------------
 Center     Atomic      Atomic             Coordinates (Angstroms)
 Number     Number       Type             X           Y           Z
 ---------------------------------------------------------------------
      1         12           0       -7.269721    0.555780    0.211991
      2          6           0       -4.771389   -1.963597    0.432953
      3          6           0       -4.772981    2.764577    1.207938
      4          6           0       -9.443948    3.101617   -0.433730
      5          6           0       -9.541975   -1.698167   -0.839357
      6          7           0       -5.136397    0.383189    0.747236
      7          6           0       -4.289969   -0.700565    0.719719
      8          6           0       -2.931756   -0.389936    1.212960
      9          6           0       -3.041049    1.134294    1.689846
     10          6           0       -4.411650    1.493257    1.141384
     11          6           0       -2.981187    1.136466    3.223308
     12          6           0       -1.891835   -0.647395    0.172829
     13          6           0       -0.418155   -0.543122    0.640063
     14          6           0        0.561280   -0.688240   -0.466005
     15          8           0        0.259974   -0.942638   -1.654976
     16          8           0        1.833998   -0.485403   -0.128087
     17          7           0       -7.085615    2.635604    0.295052
     18          6           0       -5.960948    3.349454    0.717549
     19          6           0       -6.277587    4.766642    0.795973
     20          6           0       -7.681904    4.827604    0.297436
     21          6           0       -8.091969    3.482421    0.075607
     22          6           0       -5.436123    5.938058    1.091605
     23          6           0       -8.536979    6.023131    0.168308
     24          6           0       -8.452715    7.237784    0.656551
     25          7           0       -9.153183    0.745964   -0.561882
     26          6           0       -9.890692    1.844677   -0.616267
     27          6           0      -11.217587    1.477900   -1.114204
     28          6           0      -11.290688    0.134790   -1.249009
     29          6           0       -9.954024   -0.363768   -0.788996
     30          6           0      -12.287242    2.538658   -1.336199
     31          6           0      -12.368078   -0.721639   -1.848028
     32          6           0      -12.118818   -1.018699   -3.333250
     33          7           0       -7.190841   -1.373379   -0.228310
     34          6           0       -8.278321   -2.107515   -0.480226
     35          6           0       -7.837376   -3.590869   -0.482655
     36          6           0       -6.459925   -3.599401   -0.097006
     37          6           0       -6.111632   -2.132968    0.063536
     38          6           0       -8.708994   -4.799091   -0.768096
     39          6           0       -5.291879   -4.381215    0.101858
     40          8           0       -5.155817   -5.543544   -0.070336
     41          6           0       -4.125024   -3.422218    0.549200
     42          6           0       -3.654200   -3.679373    1.872362
     43          8           0       -3.890499   -3.093940    2.979396
     44          8           0       -2.839972   -4.686273    1.759346
     45          6           0       -2.378500   -5.331836    3.080627
     46          6           0        2.826514   -0.824964   -1.158588
     47          6           0        4.127705   -0.621694   -0.587097
     48          6           0        5.038789    0.219129   -0.899599
     49          6           0        4.954821    1.183861   -2.019807
     50          6           0        6.378646    0.470078   -0.100111
     51          6           0        7.591972   -0.226438   -0.828216
     52          6           0        8.899471    0.010454   -0.157433
     53          6           0       10.097780   -0.460806   -0.970498
     54          6           0       10.064098   -1.843198   -1.533409
     55          6           0       11.392952   -0.241596   -0.168197
     56          6           0       12.749520   -0.435147   -0.807517
     57          6           0       13.986652   -0.275666    0.151062
     58          6           0       15.416727   -0.211446   -0.595580
     59          6           0       15.728974   -1.620079   -1.065239
     60          6           0       16.387328    0.428834    0.527609
     61          6           0       17.813896    0.573746   -0.115519
     62          6           0       18.960171    1.196155    0.799689
     63          6           0       20.361740    1.283371    0.255230
     64          6           0       20.334091    2.120672   -0.976989
     65          6           0       21.300547    2.012126    1.397050
     66          1           0       -3.918492    3.405774    1.508889
     67          1           0      -10.081275    4.049323   -0.368081
     68          1           0      -10.362242   -2.458302   -1.303765
     69          1           0       -2.544347   -0.932675    2.017890
     70          1           0       -2.235180    1.650055    1.195787
     71          1           0       -1.974931    0.825777    3.674532
     72          1           0       -3.342983    2.235971    3.596226
     73          1           0       -3.601569    0.345542    3.621310
     74          1           0       -1.962100   -1.810080   -0.350407
     75          1           0       -2.065120   -0.148306   -0.768557
     76          1           0       -0.167181    0.575055    1.155670
     77          1           0       -0.244085   -1.426750    1.476024
     78          1           0       -5.759374    6.892470    0.467612
     79          1           0       -5.264088    6.167970    2.010306
     80          1           0       -4.265230    5.884604    0.603875
     81          1           0       -9.262372    5.891380   -0.390942
     82          1           0       -9.004803    8.226065    0.349808
     83          1           0       -7.566960    7.460918    1.336613
     84          1           0      -12.039880    3.185341   -2.315940
     85          1           0      -13.308249    2.032225   -1.521288
     86          1           0      -12.280076    3.249602   -0.280676
     87          1           0      -12.594586   -1.722236   -1.222597
     88          1           0      -13.382323   -0.196553   -1.873426
     89          1           0      -12.976291   -1.557264   -3.769756
     90          1           0      -12.055107    0.027550   -3.877468
     91          1           0      -11.081483   -1.652521   -3.272923
     92          1           0       -9.382885   -4.697024   -1.548665
     93          1           0       -8.080442   -5.722139   -0.971799
     94          1           0       -9.412206   -5.080770    0.193895
     95          1           0       -3.406768   -3.532811   -0.283790
     96          1           0       -1.751088   -4.609413    3.611910
     97          1           0       -3.203147   -5.710884    3.653934
     98          1           0       -1.857922   -6.204323    2.631445
     99          1           0        2.649739   -1.999236   -1.268714
    100          1           0        2.632721   -0.224300   -2.085515
    101          1           0        4.477982   -1.238411    0.239058
    102          1           0        4.106202    1.391172   -2.460887
    103          1           0        5.283781    2.122929   -1.760128
    104          1           0        5.508734    0.820553   -2.896352
    105          1           0        6.549356    1.640211    0.034123
    106          1           0        6.081081    0.075636    0.790771
    107          1           0        7.236091   -1.203502   -1.023968
    108          1           0        7.647288   -0.013539   -1.815185
    109          1           0        8.919816    1.068837    0.113234
    110          1           0        8.808646   -0.759747    0.643693
    111          1           0       10.287211    0.276470   -1.834039
    112          1           0        9.276937   -1.854461   -2.175595
    113          1           0       10.799627   -2.087491   -2.303781
    114          1           0       10.125946   -2.751161   -0.741602
    115          1           0       11.099410    0.686500    0.241138
    116          1           0       11.315339   -0.909455    0.735601
    117          1           0       12.808620   -1.410363   -1.151710
    118          1           0       12.670218    0.104825   -1.789789
    119          1           0       13.989023    0.732388    0.538547
    120          1           0       13.796411   -0.866667    0.942291
    121          1           0       15.692151    0.518738   -1.312059
    122          1           0       15.983405   -2.202645   -0.166821
    123          1           0       14.984322   -2.411704   -1.656703
    124          1           0       16.581416   -1.447851   -1.837225
    125          1           0       15.819980    1.255027    1.088181
    126          1           0       16.360285   -0.552432    1.410975
    127          1           0       18.109292   -0.272646   -0.661870
    128          1           0       17.654177    1.225140   -1.153068
    129          1           0       18.712873    2.272079    0.803053
    130          1           0       19.014651    0.586155    1.882883
    131          1           0       20.832453    0.193133    0.130702
    132          1           0       19.754375    3.161535   -0.733928
    133          1           0       21.440181    2.378425   -1.325392
    134          1           0       19.775870    1.721342   -1.964085
    135          1           0       21.378965    1.558183    2.544305
    136          1           0       22.257998    1.862820    0.846634
    137          1           0       21.150192    3.260660    1.523733
 ---------------------------------------------------------------------

 SCF Done:  E(RCAM-B3LYP) =  -2933.40209841     A.U. after   16 cycles

 Excitation energies and oscillator strengths:

 Excited State   1:      Singlet-A      1.9449 eV  637.47 nm  f=0.3103  <S**2>=0.000
     240 -> 243       -0.19195
     241 -> 242        0.67746
 This state for optimization and/or second-order correction.
 Total Energy, E(TD-HF/TD-DFT) =  -2933.33062296
 Copying the excited state density for this state as the 1-particle RhoCI density.

 The electronic state is 1-A.
 Alpha  occ. eigenvalues --  -46.80348 -19.22633 -19.21735 -19.16604 -19.15664
 Alpha  occ. eigenvalues --  -19.15521 -14.37637 -14.36201 -14.35373 -14.34741
 Alpha  occ. eigenvalues --  -10.34181 -10.34114 -10.30568 -10.28334 -10.28055
 Alpha  occ. eigenvalues --  -10.26274 -10.26245 -10.26199 -10.25640 -10.25565
 Alpha  occ. eigenvalues --  -10.25552 -10.24693 -10.24645 -10.24582 -10.24489
 Alpha  occ. eigenvalues --  -10.24372 -10.24081 -10.23995 -10.23928 -10.23841
 Alpha  occ. eigenvalues --  -10.23741 -10.23735 -10.23509 -10.23273 -10.23246
 Alpha  occ. eigenvalues --  -10.23135 -10.23128 -10.22998 -10.22683 -10.22665
 Alpha  occ. eigenvalues --  -10.22445 -10.22335 -10.22314 -10.22301 -10.22293
 Alpha  occ. eigenvalues --  -10.22177 -10.22155 -10.22058 -10.21999 -10.21966
 Alpha  occ. eigenvalues --  -10.21941 -10.21938 -10.21838 -10.21634 -10.21379
 Alpha  occ. eigenvalues --  -10.21075 -10.21042 -10.20241 -10.20152 -10.20125
 Alpha  occ. eigenvalues --  -10.20063 -10.19981 -10.19897 -10.19302 -10.18834
 Alpha  occ. eigenvalues --   -3.08923  -1.83853  -1.83386  -1.83337  -1.12983
 Alpha  occ. eigenvalues --   -1.12524  -1.08573  -1.01813  -1.00943  -0.99631
 Alpha  occ. eigenvalues --   -0.98682  -0.98028  -0.96821  -0.87591  -0.87024
 Alpha  occ. eigenvalues --   -0.85587  -0.84756  -0.84188  -0.84030  -0.83393
 Alpha  occ. eigenvalues --   -0.82945  -0.82749  -0.82675  -0.81351  -0.80999
 Alpha  occ. eigenvalues --   -0.80244  -0.79546  -0.78674  -0.77763  -0.77478
 Alpha  occ. eigenvalues --   -0.76972  -0.76704  -0.75750  -0.74733  -0.73793
 Alpha  occ. eigenvalues --   -0.73086  -0.72604  -0.72332  -0.71092  -0.70922
 Alpha  occ. eigenvalues --   -0.69875  -0.69339  -0.68741  -0.68686  -0.68079
 Alpha  occ. eigenvalues --   -0.66280  -0.66073  -0.64879  -0.64703  -0.64010
 Alpha  occ. eigenvalues --   -0.63111  -0.62103  -0.61284  -0.60830  -0.60688
 Alpha  occ. eigenvalues --   -0.59879  -0.58497  -0.58441  -0.57915  -0.57673
 Alpha  occ. eigenvalues --   -0.56731  -0.56447  -0.56180  -0.55651  -0.55252
 Alpha  occ. eigenvalues --   -0.54900  -0.54436  -0.54051  -0.53634  -0.52500
 Alpha  occ. eigenvalues --   -0.52228  -0.51858  -0.51646  -0.50990  -0.50803
 Alpha  occ. eigenvalues --   -0.50105  -0.49760  -0.49338  -0.49101  -0.49001
 Alpha  occ. eigenvalues --   -0.48691  -0.48564  -0.48225  -0.48221  -0.47830
 Alpha  occ. eigenvalues --   -0.47320  -0.46979  -0.46879  -0.46725  -0.46698
 Alpha  occ. eigenvalues --   -0.46582  -0.46165  -0.45900  -0.45835  -0.45514
 Alpha  occ. eigenvalues --   -0.45388  -0.45151  -0.45064  -0.44719  -0.44674
 Alpha  occ. eigenvalues --   -0.44537  -0.44064  -0.43971  -0.43434  -0.42867
 Alpha  occ. eigenvalues --   -0.42681  -0.42624  -0.42578  -0.42490  -0.42180
 Alpha  occ. eigenvalues --   -0.42017  -0.41798  -0.41694  -0.41472  -0.41275
 Alpha  occ. eigenvalues --   -0.41159  -0.41030  -0.40862  -0.40840  -0.40752
 Alpha  occ. eigenvalues --   -0.40554  -0.40275  -0.39980  -0.39605  -0.39448
 Alpha  occ. eigenvalues --   -0.39434  -0.39214  -0.38892  -0.38788  -0.38713
 Alpha  occ. eigenvalues --   -0.38573  -0.38458  -0.38375  -0.38193  -0.38064
 Alpha  occ. eigenvalues --   -0.37866  -0.37414  -0.37366  -0.37264  -0.37028
 Alpha  occ. eigenvalues --   -0.36811  -0.36609  -0.36542  -0.36235  -0.36163
 Alpha  occ. eigenvalues --   -0.35508  -0.35262  -0.34375  -0.34223  -0.34049
 Alpha  occ. eigenvalues --   -0.33947  -0.33577  -0.33391  -0.33343  -0.32748
 Alpha  occ. eigenvalues --   -0.32740  -0.32590  -0.32433  -0.32291  -0.32064
 Alpha  occ. eigenvalues --   -0.31953  -0.31822  -0.31607  -0.30047  -0.29792
 Alpha  occ. eigenvalues --   -0.29612  -0.29479  -0.29200  -0.28821  -0.27896
 Alpha  occ. eigenvalues --   -0.27518  -0.27358  -0.26356  -0.23681  -0.21761
 Alpha  occ. eigenvalues --   -0.19836
 Alpha virt. eigenvalues --   -0.07579  -0.03380  -0.00696   0.02716   0.03088
 Alpha virt. eigenvalues --    0.03254   0.03628   0.04496   0.05681   0.06130
 Alpha virt. eigenvalues --    0.06803   0.07895   0.08572   0.09410   0.09668

 Mulliken charges:
               1
     1  Mg   0.833641
     2  C    0.031644
     3  C   -0.168304
     4  C   -0.171717
     5  C   -0.170072
     6  N   -0.640452
     7  C    0.329126
     8  C   -0.147104
     9  C   -0.139272
    10  C    0.344915
    11  C   -0.304707
    12  C   -0.176731
    13  C   -0.254668
    14  C    0.621404
    15  O   -0.499736
    16  O   -0.464895
    17  N   -0.712361
    18  C    0.272181
    19  C    0.030983
    20  C   -0.029385
    21  C    0.307409
    22  C   -0.378510
    23  C   -0.011215
    24  C   -0.272419
    25  N   -0.698281
    26  C    0.360057
    27  C    0.027348
    28  C    0.062302
    29  C    0.274076
    30  C   -0.360358
    31  C   -0.265267
    32  C   -0.277915
    33  N   -0.754740
    34  C    0.312960
    35  C    0.001100
    36  C    0.052343
    37  C    0.305064
    38  C   -0.379369
    39  C    0.323362
    40  O   -0.429666
    41  C   -0.306230
    42  C    0.645045
    43  O   -0.532065
    44  O   -0.437144
    45  C   -0.100835
    46  C    0.016784
    47  C   -0.105343
    48  C    0.100429
    49  C   -0.361698
    50  C   -0.219269
    51  C   -0.185818
    52  C   -0.157104
    53  C   -0.078679
    54  C   -0.300294
    55  C   -0.153720
    56  C   -0.184079
    57  C   -0.176167
    58  C   -0.064541
    59  C   -0.282844
    60  C   -0.156171
    61  C   -0.191331
    62  C   -0.129211
    63  C   -0.051931
    64  C   -0.286557
    65  C   -0.291789
    66  H    0.085188
    67  H    0.091524
    68  H    0.098163
    69  H    0.115306
    70  H    0.103568
    71  H    0.100138
    72  H    0.087495
    73  H    0.141449
    74  H    0.076653
    75  H    0.130471
    76  H    0.111746
    77  H    0.120185
    78  H    0.117074
    79  H    0.138514
    80  H    0.068471
    81  H    0.059482
    82  H    0.099076
    83  H    0.082897
    84  H    0.112906
    85  H    0.107067
    86  H    0.098274
    87  H    0.089245
    88  H    0.095439
    89  H    0.110979
    90  H    0.103461
    91  H    0.089805
    92  H    0.129974
    93  H    0.142206
    94  H    0.108943
    95  H    0.174317
    96  H    0.146363
    97  H    0.153067
    98  H    0.135679
    99  H    0.108311
   100  H    0.131566
   101  H    0.072293
   102  H    0.112454
   103  H    0.115327
   104  H    0.115828
   105  H    0.081434
   106  H    0.107401
   107  H    0.103465
   108  H    0.099363
   109  H    0.100870
   110  H    0.098394
   111  H    0.067036
   112  H    0.103557
   113  H    0.104472
   114  H    0.082423
   115  H    0.081089
   116  H    0.061613
   117  H    0.103184
   118  H    0.076120
   119  H    0.086187
   120  H    0.105781
   121  H    0.098098
   122  H    0.107585
   123  H    0.084668
   124  H    0.081411
   125  H    0.105262
   126  H    0.032214
   127  H    0.114917
   128  H    0.052562
   129  H    0.094785
   130  H    0.069160
   131  H    0.078662
   132  H    0.087961
   133  H    0.087025
   134  H    0.096969
   135  H    0.090436
   136  H    0.106219
   137  H    0.076563
 Sum of Mulliken charges =  -0.00000

 Dipole moment (field-independent basis, Debye):
    X=              2.2125    Y=              0.7746    Z=              0.5219  Tot=              2.4016
 Quadrupole moment (field-independent basis, Debye-Ang):
   XX=           -335.9434   YY=           -392.5428   ZZ=           -398.2990
   XY=             -0.1250   XZ=              3.0598   YZ=             -8.0538

 Normal termination of Gaussian 16 at Sat Sep 14 22:18:40 2019.
