 Gaussian 16, Revision A.03,
 Gaussian 16:  ES64L-G16RevA.03 25-Dec-2016

 ----------------------------------------------------------------------
 # td=(NStates=1) iop(3/107=0140000000,3/108=0140000000) CAM-B3LYP/6-31
 G(d,p)
 ----------------------------------------------------------------------

 --
 TD
 --
 Symbolic Z-matrix:
 Charge =  0 Multiplicity = 1

                         Standard orientation:
 ---------------------------------------------------------------------
 Center     Atomic      Atomic             Coordinates (Angstroms)
 Number     Number       Type             X           Y           Z
 ---------------------------------------------------------------------
      1         12           0       -7.186063    0.603564    0.090901
      2          6           0       -4.809470   -1.958150    0.447135
      3          6           0       -4.798036    2.894042    1.167244
      4          6           0       -9.324564    3.077872   -0.478101
      5          6           0       -9.572481   -1.728128   -0.722016
      6          7           0       -5.127024    0.418286    0.635119
      7          6           0       -4.339218   -0.722123    0.756649
      8          6           0       -2.884979   -0.455096    1.195715
      9          6           0       -2.967968    1.035206    1.663661
     10          6           0       -4.362575    1.506872    1.080637
     11          6           0       -2.920141    1.094854    3.243810
     12          6           0       -1.947271   -0.640484   -0.036784
     13          6           0       -0.476750   -0.405462    0.453857
     14          6           0        0.566317   -0.586280   -0.693166
     15          8           0        0.202199   -0.741191   -1.850886
     16          8           0        1.714026   -0.520261   -0.283972
     17          7           0       -7.115863    2.678624    0.371492
     18          6           0       -6.040139    3.411470    0.861162
     19          6           0       -6.407546    4.790792    0.850980
     20          6           0       -7.675125    4.847566    0.351358
     21          6           0       -8.061761    3.519367    0.067469
     22          6           0       -5.376421    5.888799    1.195706
     23          6           0       -8.502532    6.064223    0.111874
     24          6           0       -8.322899    7.154766    0.823116
     25          7           0       -9.112663    0.711644   -0.512922
     26          6           0       -9.899818    1.928853   -0.512563
     27          6           0      -11.193744    1.488618   -0.940173
     28          6           0      -11.203369    0.137666   -1.176758
     29          6           0      -10.005295   -0.368254   -0.831793
     30          6           0      -12.330691    2.459166   -1.414439
     31          6           0      -12.386761   -0.752536   -1.841553
     32          6           0      -12.095176   -1.147942   -3.261771
     33          7           0       -7.240401   -1.390394   -0.156928
     34          6           0       -8.334030   -2.221791   -0.402852
     35          6           0       -7.854084   -3.581686   -0.503012
     36          6           0       -6.504670   -3.602502   -0.097461
     37          6           0       -6.192386   -2.264770    0.129449
     38          6           0       -8.581017   -4.827747   -0.902382
     39          6           0       -5.321209   -4.392465    0.057773
     40          8           0       -5.115695   -5.594059    0.221361
     41          6           0       -4.138750   -3.320415    0.510682
     42          6           0       -3.562480   -3.794027    1.809840
     43          8           0       -3.693465   -3.048888    2.769661
     44          8           0       -2.755805   -4.813395    1.748776
     45          6           0       -2.338979   -5.288718    3.031581
     46          6           0        2.765840   -0.594973   -1.331114
     47          6           0        4.072776   -0.398889   -0.708594
     48          6           0        5.015186    0.356196   -1.107088
     49          6           0        4.990325    1.257233   -2.390990
     50          6           0        6.381165    0.531363   -0.252734
     51          6           0        7.623277   -0.106677   -0.939173
     52          6           0        8.856014   -0.134581   -0.091720
     53          6           0       10.173321   -0.717846   -0.740277
     54          6           0       10.123420   -2.189138   -0.877994
     55          6           0       11.385081   -0.217137    0.064532
     56          6           0       12.782169   -0.666439   -0.664541
     57          6           0       14.040964   -0.136893    0.254138
     58          6           0       15.322060   -0.258452   -0.448778
     59          6           0       15.596553   -1.760287   -0.680399
     60          6           0       16.458626    0.434837    0.431333
     61          6           0       17.848198    0.468682   -0.294563
     62          6           0       18.854770    1.263973    0.606746
     63          6           0       20.314968    1.395606    0.179065
     64          6           0       20.374400    2.218987   -1.160977
     65          6           0       21.159481    2.038020    1.298820
     66          1           0       -3.997352    3.395430    1.652504
     67          1           0      -10.236617    3.927849   -0.401783
     68          1           0      -10.399830   -2.379149   -0.904935
     69          1           0       -2.560757   -0.993213    1.954077
     70          1           0       -2.150117    1.758692    1.327995
     71          1           0       -2.073726    0.930945    3.766394
     72          1           0       -3.029670    2.161737    3.591269
     73          1           0       -3.697500    0.436209    3.624513
     74          1           0       -2.081431   -1.794962   -0.156694
     75          1           0       -2.180086   -0.041468   -0.814787
     76          1           0       -0.501428    0.617403    0.790508
     77          1           0        0.085009   -1.072235    1.343005
     78          1           0       -5.479671    6.984373    0.919093
     79          1           0       -5.399524    5.848785    2.317948
     80          1           0       -4.421958    5.649543    0.833828
     81          1           0       -9.238030    6.099020   -0.601441
     82          1           0       -8.986726    8.195277    0.719612
     83          1           0       -7.729169    7.267997    1.887325
     84          1           0      -11.956059    2.989956   -2.313258
     85          1           0      -13.206790    1.956063   -1.647617
     86          1           0      -12.710104    3.072094   -0.506459
     87          1           0      -12.470783   -1.673550   -1.240983
     88          1           0      -13.538831   -0.392621   -1.345561
     89          1           0      -12.932269   -1.675841   -3.865590
     90          1           0      -12.109334   -0.206331   -3.909399
     91          1           0      -11.069777   -1.439889   -3.288196
     92          1           0       -9.303255   -4.752706   -1.717602
     93          1           0       -7.910572   -5.752814   -1.031593
     94          1           0       -9.150087   -5.014321   -0.026634
     95          1           0       -3.408570   -3.672526   -0.164084
     96          1           0       -1.863542   -4.571512    3.494811
     97          1           0       -3.168425   -5.615747    3.722698
     98          1           0       -1.687599   -6.084910    2.581171
     99          1           0        2.668451   -1.569950   -2.071814
    100          1           0        2.641907    0.360475   -2.062215
    101          1           0        4.249569   -0.891913    0.203929
    102          1           0        3.827600    1.256651   -2.394112
    103          1           0        5.386973    2.249990   -2.142935
    104          1           0        5.604634    1.073147   -3.119625
    105          1           0        6.488598    1.738461   -0.258318
    106          1           0        6.105467    0.206740    0.727318
    107          1           0        7.286847   -1.203043   -1.117359
    108          1           0        7.716918    0.450273   -2.000628
    109          1           0        8.946427    0.898567    0.333372
    110          1           0        8.599846   -0.591312    0.820145
    111          1           0       10.283986   -0.193958   -1.917138
    112          1           0        9.336587   -2.509795   -1.624719
    113          1           0       10.969304   -2.596967   -1.440578
    114          1           0        9.938727   -2.786509   -0.079161
    115          1           0       11.491819    0.756638    0.290874
    116          1           0       11.299332   -0.557308    1.229852
    117          1           0       12.933819   -1.634116   -0.593861
    118          1           0       12.691108   -0.244869   -1.736522
    119          1           0       13.849395    0.924382    0.506697
    120          1           0       13.970464   -0.588727    1.236913
    121          1           0       15.224771    0.135481   -1.388116
    122          1           0       15.570146   -2.450936    0.173430
    123          1           0       14.776404   -2.131816   -1.329836
    124          1           0       16.704297   -2.081568   -1.064223
    125          1           0       16.119313    1.424765    0.681306
    126          1           0       16.578880   -0.083491    1.448670
    127          1           0       18.365698   -0.404406   -0.331311
    128          1           0       17.812420    0.774858   -1.344228
    129          1           0       18.208703    2.165616    0.922564
    130          1           0       18.775930    0.776625    1.669142
    131          1           0       20.782326    0.414097    0.050053
    132          1           0       19.797391    3.207614   -1.107384
    133          1           0       21.351342    2.550989   -1.661857
    134          1           0       19.740499    1.854036   -2.008918
    135          1           0       21.132486    1.338847    2.110551
    136          1           0       22.298791    2.136578    1.028646
    137          1           0       20.796283    3.089884    1.640186
 ---------------------------------------------------------------------

 SCF Done:  E(RCAM-B3LYP) =  -2933.45193413     A.U. after   16 cycles

 Excitation energies and oscillator strengths:

 Excited State   1:      Singlet-A      1.9109 eV  648.82 nm  f=0.2583  <S**2>=0.000
     240 -> 243       -0.19775
     241 -> 242        0.67442
 This state for optimization and/or second-order correction.
 Total Energy, E(TD-HF/TD-DFT) =  -2933.38170904
 Copying the excited state density for this state as the 1-particle RhoCI density.

 The electronic state is 1-A.
 Alpha  occ. eigenvalues --  -46.79173 -19.24143 -19.22446 -19.16186 -19.15018
 Alpha  occ. eigenvalues --  -19.14212 -14.38167 -14.35033 -14.34692 -14.33798
 Alpha  occ. eigenvalues --  -10.33295 -10.33048 -10.30649 -10.30511 -10.27190
 Alpha  occ. eigenvalues --  -10.26287 -10.25872 -10.24978 -10.24739 -10.24725
 Alpha  occ. eigenvalues --  -10.24593 -10.24525 -10.24485 -10.24263 -10.24195
 Alpha  occ. eigenvalues --  -10.24128 -10.23509 -10.23498 -10.23311 -10.23244
 Alpha  occ. eigenvalues --  -10.23243 -10.23199 -10.22911 -10.22837 -10.22831
 Alpha  occ. eigenvalues --  -10.22724 -10.22656 -10.22170 -10.22116 -10.22112
 Alpha  occ. eigenvalues --  -10.22022 -10.21971 -10.21851 -10.21756 -10.21694
 Alpha  occ. eigenvalues --  -10.21676 -10.21672 -10.21646 -10.21563 -10.21528
 Alpha  occ. eigenvalues --  -10.21487 -10.21437 -10.21372 -10.21242 -10.21235
 Alpha  occ. eigenvalues --  -10.21100 -10.21089 -10.21049 -10.20963 -10.20936
 Alpha  occ. eigenvalues --  -10.20915 -10.20602 -10.20571 -10.19993 -10.19873
 Alpha  occ. eigenvalues --   -3.07763  -1.82707  -1.82207  -1.82189  -1.17766
 Alpha  occ. eigenvalues --   -1.14632  -1.05304  -1.03637  -1.02957  -0.99705
 Alpha  occ. eigenvalues --   -0.97955  -0.96603  -0.95385  -0.86916  -0.86720
 Alpha  occ. eigenvalues --   -0.85150  -0.84324  -0.84091  -0.84019  -0.83485
 Alpha  occ. eigenvalues --   -0.82949  -0.82505  -0.81864  -0.81202  -0.80659
 Alpha  occ. eigenvalues --   -0.79664  -0.78978  -0.78541  -0.77840  -0.77659
 Alpha  occ. eigenvalues --   -0.76994  -0.76913  -0.75946  -0.74925  -0.73599
 Alpha  occ. eigenvalues --   -0.73029  -0.72564  -0.72259  -0.71777  -0.70599
 Alpha  occ. eigenvalues --   -0.70364  -0.70297  -0.69698  -0.68908  -0.68296
 Alpha  occ. eigenvalues --   -0.66988  -0.65638  -0.65008  -0.64273  -0.64023
 Alpha  occ. eigenvalues --   -0.62345  -0.61598  -0.61172  -0.60889  -0.60518
 Alpha  occ. eigenvalues --   -0.60220  -0.60036  -0.59665  -0.59070  -0.58541
 Alpha  occ. eigenvalues --   -0.58345  -0.56896  -0.56600  -0.55686  -0.55090
 Alpha  occ. eigenvalues --   -0.54445  -0.54240  -0.53321  -0.53026  -0.52781
 Alpha  occ. eigenvalues --   -0.52417  -0.52227  -0.51404  -0.51040  -0.50197
 Alpha  occ. eigenvalues --   -0.50130  -0.49658  -0.49574  -0.49190  -0.48821
 Alpha  occ. eigenvalues --   -0.48706  -0.48493  -0.48173  -0.47804  -0.47629
 Alpha  occ. eigenvalues --   -0.47520  -0.47329  -0.46841  -0.46820  -0.46586
 Alpha  occ. eigenvalues --   -0.46310  -0.46076  -0.45996  -0.45921  -0.45703
 Alpha  occ. eigenvalues --   -0.45404  -0.45265  -0.44941  -0.44713  -0.44583
 Alpha  occ. eigenvalues --   -0.44295  -0.43847  -0.43667  -0.43514  -0.43436
 Alpha  occ. eigenvalues --   -0.43322  -0.42782  -0.42740  -0.42706  -0.42608
 Alpha  occ. eigenvalues --   -0.42240  -0.42130  -0.41926  -0.41784  -0.41692
 Alpha  occ. eigenvalues --   -0.41607  -0.41163  -0.40932  -0.40561  -0.40525
 Alpha  occ. eigenvalues --   -0.40189  -0.40135  -0.39876  -0.39688  -0.39343
 Alpha  occ. eigenvalues --   -0.39052  -0.38857  -0.38788  -0.38772  -0.38647
 Alpha  occ. eigenvalues --   -0.38307  -0.38157  -0.38059  -0.37783  -0.37776
 Alpha  occ. eigenvalues --   -0.37650  -0.37493  -0.37331  -0.37161  -0.37125
 Alpha  occ. eigenvalues --   -0.36696  -0.36554  -0.36348  -0.35890  -0.35812
 Alpha  occ. eigenvalues --   -0.35545  -0.35209  -0.34962  -0.34874  -0.34493
 Alpha  occ. eigenvalues --   -0.33982  -0.33914  -0.33824  -0.33677  -0.33379
 Alpha  occ. eigenvalues --   -0.33277  -0.33206  -0.32878  -0.32832  -0.32572
 Alpha  occ. eigenvalues --   -0.32441  -0.32318  -0.31565  -0.30247  -0.30174
 Alpha  occ. eigenvalues --   -0.30056  -0.29470  -0.29026  -0.28660  -0.27751
 Alpha  occ. eigenvalues --   -0.26651  -0.26358  -0.25146  -0.24889  -0.22151
 Alpha  occ. eigenvalues --   -0.19490
 Alpha virt. eigenvalues --   -0.07406  -0.04046  -0.00335   0.02725   0.04612
 Alpha virt. eigenvalues --    0.04790   0.04867   0.05398   0.05882   0.06486
 Alpha virt. eigenvalues --    0.06900   0.08955   0.09272   0.09748   0.09829

 Mulliken charges:
               1
     1  Mg   0.807435
     2  C    0.093179
     3  C   -0.185799
     4  C   -0.188411
     5  C   -0.185141
     6  N   -0.624460
     7  C    0.290117
     8  C   -0.109905
     9  C   -0.164414
    10  C    0.305747
    11  C   -0.318049
    12  C   -0.138936
    13  C   -0.279758
    14  C    0.593310
    15  O   -0.510153
    16  O   -0.387752
    17  N   -0.695355
    18  C    0.306080
    19  C    0.020968
    20  C   -0.011763
    21  C    0.320620
    22  C   -0.367329
    23  C   -0.046776
    24  C   -0.238405
    25  N   -0.704580
    26  C    0.326900
    27  C   -0.027360
    28  C    0.044012
    29  C    0.294625
    30  C   -0.368527
    31  C   -0.223122
    32  C   -0.308149
    33  N   -0.710597
    34  C    0.320343
    35  C   -0.005319
    36  C    0.092420
    37  C    0.251754
    38  C   -0.387652
    39  C    0.297468
    40  O   -0.457420
    41  C   -0.353743
    42  C    0.637597
    43  O   -0.497863
    44  O   -0.423167
    45  C   -0.087605
    46  C   -0.024872
    47  C   -0.094681
    48  C    0.086970
    49  C   -0.338569
    50  C   -0.220836
    51  C   -0.148879
    52  C   -0.173301
    53  C   -0.026112
    54  C   -0.314345
    55  C   -0.168402
    56  C   -0.194591
    57  C   -0.191981
    58  C   -0.033809
    59  C   -0.320293
    60  C   -0.185049
    61  C   -0.172428
    62  C   -0.178707
    63  C   -0.042469
    64  C   -0.319726
    65  C   -0.302002
    66  H    0.080432
    67  H    0.065563
    68  H    0.080081
    69  H    0.120976
    70  H    0.090497
    71  H    0.123190
    72  H    0.088882
    73  H    0.132621
    74  H    0.103573
    75  H    0.129670
    76  H    0.127271
    77  H    0.096142
    78  H    0.120321
    79  H    0.119081
    80  H    0.123427
    81  H    0.098298
    82  H    0.075757
    83  H    0.089625
    84  H    0.128508
    85  H    0.121662
    86  H    0.104429
    87  H    0.110327
    88  H    0.065634
    89  H    0.109218
    90  H    0.103672
    91  H    0.129419
    92  H    0.121608
    93  H    0.139771
    94  H    0.143869
    95  H    0.154535
    96  H    0.142241
    97  H    0.130857
    98  H    0.124590
    99  H    0.140508
   100  H    0.121547
   101  H    0.087903
   102  H    0.091560
   103  H    0.106940
   104  H    0.134760
   105  H    0.074933
   106  H    0.096841
   107  H    0.089177
   108  H    0.073187
   109  H    0.082579
   110  H    0.100938
   111  H    0.040905
   112  H    0.095023
   113  H    0.106898
   114  H    0.118066
   115  H    0.107775
   116  H    0.051868
   117  H    0.123789
   118  H    0.085308
   119  H    0.077079
   120  H    0.096770
   121  H    0.098493
   122  H    0.100572
   123  H    0.099883
   124  H    0.075640
   125  H    0.094183
   126  H    0.084519
   127  H    0.108730
   128  H    0.092540
   129  H    0.079696
   130  H    0.067254
   131  H    0.095854
   132  H    0.092625
   133  H    0.093839
   134  H    0.096001
   135  H    0.107175
   136  H    0.085607
   137  H    0.096310
 Sum of Mulliken charges =  -0.00000

 Dipole moment (field-independent basis, Debye):
    X=              2.8306    Y=              2.1539    Z=              1.2874  Tot=              3.7827
 Quadrupole moment (field-independent basis, Debye-Ang):
   XX=           -353.9543   YY=           -394.5767   ZZ=           -394.3151
   XY=            -13.0682   XZ=             10.8290   YZ=             -1.5039

 Normal termination of Gaussian 16 at Wed Sep 11 01:36:13 2019.
