 Gaussian 16, Revision A.03,
 Gaussian 16:  ES64L-G16RevA.03 25-Dec-2016

 ----------------------------------------------------------------------
 # td=(NStates=1) iop(3/107=0140000000,3/108=0140000000) CAM-B3LYP/6-31
 G(d,p)
 ----------------------------------------------------------------------

 --
 TD
 --
 Symbolic Z-matrix:
 Charge =  0 Multiplicity = 1

                         Standard orientation:
 ---------------------------------------------------------------------
 Center     Atomic      Atomic             Coordinates (Angstroms)
 Number     Number       Type             X           Y           Z
 ---------------------------------------------------------------------
      1         12           0       -7.169818    0.634741    0.105325
      2          6           0       -4.878024   -1.961563    0.495716
      3          6           0       -4.785839    2.850930    1.203801
      4          6           0       -9.504880    3.117009   -0.459873
      5          6           0       -9.547116   -1.646982   -0.868368
      6          7           0       -5.125736    0.374148    0.763346
      7          6           0       -4.321638   -0.774580    0.839139
      8          6           0       -2.944660   -0.376973    1.291332
      9          6           0       -3.031531    1.065131    1.696533
     10          6           0       -4.457485    1.499563    1.258540
     11          6           0       -2.942044    1.241028    3.183242
     12          6           0       -1.927161   -0.662775    0.148874
     13          6           0       -0.384100   -0.537870    0.614876
     14          6           0        0.561782   -0.706047   -0.543980
     15          8           0        0.294096   -1.054037   -1.662456
     16          8           0        1.722137   -0.411325   -0.159056
     17          7           0       -7.159300    2.633050    0.259444
     18          6           0       -6.072187    3.362996    0.874915
     19          6           0       -6.432823    4.745602    0.929702
     20          6           0       -7.657531    4.788629    0.441861
     21          6           0       -8.168231    3.421609    0.108121
     22          6           0       -5.453339    5.932358    1.395554
     23          6           0       -8.502992    6.012186    0.162522
     24          6           0       -8.377783    7.301494    0.698809
     25          7           0       -9.044010    0.679431   -0.602077
     26          6           0       -9.851272    1.842172   -0.793463
     27          6           0      -11.198315    1.505901   -1.223094
     28          6           0      -11.176387    0.130511   -1.398793
     29          6           0       -9.795044   -0.321529   -0.987049
     30          6           0      -12.334121    2.439267   -1.577180
     31          6           0      -12.291228   -0.720565   -1.851274
     32          6           0      -12.195537   -1.192857   -3.452484
     33          7           0       -7.233549   -1.345668   -0.228489
     34          6           0       -8.198083   -2.192688   -0.532630
     35          6           0       -7.845570   -3.665376   -0.503538
     36          6           0       -6.502882   -3.548925   -0.064715
     37          6           0       -6.198500   -2.162164    0.084938
     38          6           0       -8.593603   -4.819655   -0.882173
     39          6           0       -5.418929   -4.461556    0.243819
     40          8           0       -5.316104   -5.575862    0.199571
     41          6           0       -4.206970   -3.419781    0.534759
     42          6           0       -3.554318   -3.800360    1.918120
     43          8           0       -3.830919   -3.276378    2.927264
     44          8           0       -2.774528   -4.854922    1.701407
     45          6           0       -2.117233   -5.285615    2.996889
     46          6           0        2.757835   -0.483391   -1.130108
     47          6           0        4.163951   -0.303033   -0.435371
     48          6           0        5.069706    0.544614   -0.934139
     49          6           0        4.906230    1.363289   -2.067442
     50          6           0        6.432092    0.553147   -0.167895
     51          6           0        7.540419   -0.149176   -0.960365
     52          6           0        8.934780   -0.014663   -0.085303
     53          6           0       10.217002   -0.513074   -0.853326
     54          6           0       10.155407   -1.946694   -1.391556
     55          6           0       11.464002   -0.191926    0.067667
     56          6           0       12.817884   -0.453575   -0.616506
     57          6           0       14.089196   -0.170874    0.271411
     58          6           0       15.390194   -0.374945   -0.528729
     59          6           0       15.704021   -1.806697   -0.963500
     60          6           0       16.440043    0.258145    0.359308
     61          6           0       17.882419    0.469102   -0.208763
     62          6           0       18.795536    1.181314    0.781749
     63          6           0       20.234486    1.394614    0.198610
     64          6           0       20.193649    2.121517   -1.140514
     65          6           0       21.249717    2.032951    1.055673
     66          1           0       -4.129211    3.497262    1.686284
     67          1           0      -10.288439    3.865287   -0.436571
     68          1           0      -10.387667   -2.233932   -1.226790
     69          1           0       -2.734436   -1.055800    2.147999
     70          1           0       -2.149339    1.649461    1.223551
     71          1           0       -1.853650    1.024891    3.479535
     72          1           0       -3.200548    2.190076    3.619643
     73          1           0       -3.699129    0.578047    3.865906
     74          1           0       -2.055871   -1.693701   -0.439899
     75          1           0       -2.055370    0.039459   -0.841382
     76          1           0       -0.201780    0.479267    1.109796
     77          1           0       -0.208950   -1.399227    1.322553
     78          1           0       -5.657217    6.874276    0.705075
     79          1           0       -5.396129    6.132250    2.455538
     80          1           0       -4.412434    5.640648    1.299264
     81          1           0       -9.423024    6.001519   -0.399196
     82          1           0       -9.049825    8.127664    0.236617
     83          1           0       -7.673249    7.733553    1.496035
     84          1           0      -12.326458    3.118398   -2.534317
     85          1           0      -13.366657    1.763042   -1.748385
     86          1           0      -12.414317    3.170532   -0.713718
     87          1           0      -12.528400   -1.582660   -0.964709
     88          1           0      -13.199465   -0.138779   -1.612265
     89          1           0      -13.275940   -1.574770   -3.601419
     90          1           0      -12.171170   -0.408367   -3.988810
     91          1           0      -11.419459   -2.057313   -3.429969
     92          1           0       -8.595626   -4.661206   -2.009600
     93          1           0       -7.896652   -5.649001   -0.366862
     94          1           0       -9.467092   -4.780466   -0.362848
     95          1           0       -3.523536   -3.588069   -0.341396
     96          1           0       -2.085590   -4.360452    3.845183
     97          1           0       -2.906046   -5.931430    3.492340
     98          1           0       -1.340992   -6.087126    2.804667
     99          1           0        2.682426   -1.593173   -1.604608
    100          1           0        2.676406    0.223997   -1.915976
    101          1           0        4.362317   -0.965982    0.442322
    102          1           0        3.917597    0.844303   -2.660899
    103          1           0        4.916030    2.442578   -1.796933
    104          1           0        5.820725    1.272486   -2.833431
    105          1           0        6.589005    1.582544    0.081071
    106          1           0        6.232857    0.044922    0.863359
    107          1           0        7.356551   -1.144361   -1.127145
    108          1           0        7.810227    0.214445   -2.047273
    109          1           0        9.050461    1.010844    0.231643
    110          1           0        8.958123   -0.773509    0.940235
    111          1           0       10.247885    0.135237   -1.684691
    112          1           0        9.455889   -2.142518   -2.069024
    113          1           0       10.942918   -2.033711   -2.244737
    114          1           0       10.326879   -2.773119   -0.584038
    115          1           0       11.354039    0.806936    0.339361
    116          1           0       11.502707   -0.895584    0.776959
    117          1           0       12.775604   -1.548187   -0.888353
    118          1           0       12.855899    0.074865   -1.410375
    119          1           0       14.151737    0.943679    0.530605
    120          1           0       13.971574   -0.624968    1.195312
    121          1           0       15.126410    0.250481   -1.365827
    122          1           0       15.530596   -2.443954   -0.180308
    123          1           0       14.938239   -1.822157   -1.741900
    124          1           0       16.550702   -1.968755   -1.486950
    125          1           0       16.261490    1.316773    0.714159
    126          1           0       16.523251   -0.469181    1.113009
    127          1           0       18.294219   -0.559560   -0.439853
    128          1           0       17.637706    1.054697   -1.109746
    129          1           0       18.073208    2.170821    0.781764
    130          1           0       18.577152    0.814911    1.632542
    131          1           0       20.702415    0.466745   -0.010556
    132          1           0       19.717264    3.099392   -1.118237
    133          1           0       21.197014    2.516095   -1.540290
    134          1           0       19.742738    1.477991   -1.926044
    135          1           0       21.150608    1.582920    2.169579
    136          1           0       22.411600    1.917963    0.721681
    137          1           0       21.121740    3.131323    1.412339
 ---------------------------------------------------------------------

 SCF Done:  E(RCAM-B3LYP) =  -2933.42658152     A.U. after   16 cycles

 Excitation energies and oscillator strengths:

 Excited State   1:      Singlet-A      1.8767 eV  660.66 nm  f=0.3134  <S**2>=0.000
     240 -> 243        0.19317
     241 -> 242        0.68257
 This state for optimization and/or second-order correction.
 Total Energy, E(TD-HF/TD-DFT) =  -2933.35761483
 Copying the excited state density for this state as the 1-particle RhoCI density.

 The electronic state is 1-A.
 Alpha  occ. eigenvalues --  -46.79239 -19.22669 -19.22598 -19.16952 -19.16776
 Alpha  occ. eigenvalues --  -19.15112 -14.37416 -14.35360 -14.35293 -14.34643
 Alpha  occ. eigenvalues --  -10.33959 -10.33144 -10.29680 -10.28951 -10.28138
 Alpha  occ. eigenvalues --  -10.25829 -10.25273 -10.25160 -10.25109 -10.25102
 Alpha  occ. eigenvalues --  -10.24475 -10.24340 -10.23983 -10.23889 -10.23822
 Alpha  occ. eigenvalues --  -10.23751 -10.23625 -10.23492 -10.23315 -10.23250
 Alpha  occ. eigenvalues --  -10.23158 -10.22870 -10.22826 -10.22805 -10.22799
 Alpha  occ. eigenvalues --  -10.22571 -10.22524 -10.22475 -10.22443 -10.22415
 Alpha  occ. eigenvalues --  -10.22315 -10.22201 -10.22177 -10.22121 -10.22095
 Alpha  occ. eigenvalues --  -10.22001 -10.21960 -10.21902 -10.21870 -10.21786
 Alpha  occ. eigenvalues --  -10.21751 -10.21696 -10.21510 -10.21401 -10.20923
 Alpha  occ. eigenvalues --  -10.20874 -10.20694 -10.20256 -10.20198 -10.20142
 Alpha  occ. eigenvalues --  -10.20118 -10.19637 -10.19056 -10.19035 -10.18595
 Alpha  occ. eigenvalues --   -3.08007  -1.82936  -1.82461  -1.82446  -1.16838
 Alpha  occ. eigenvalues --   -1.13789  -1.12279  -1.05752  -1.04371  -0.99768
 Alpha  occ. eigenvalues --   -0.98668  -0.97458  -0.96504  -0.86413  -0.86119
 Alpha  occ. eigenvalues --   -0.85736  -0.84281  -0.83816  -0.83609  -0.83260
 Alpha  occ. eigenvalues --   -0.83125  -0.82937  -0.81948  -0.81799  -0.80959
 Alpha  occ. eigenvalues --   -0.79386  -0.78483  -0.77916  -0.77064  -0.76548
 Alpha  occ. eigenvalues --   -0.76102  -0.75772  -0.75398  -0.75206  -0.73169
 Alpha  occ. eigenvalues --   -0.72190  -0.72110  -0.71704  -0.71292  -0.70715
 Alpha  occ. eigenvalues --   -0.70251  -0.69908  -0.69797  -0.68608  -0.67732
 Alpha  occ. eigenvalues --   -0.66824  -0.65577  -0.64864  -0.63666  -0.63180
 Alpha  occ. eigenvalues --   -0.62427  -0.60998  -0.60587  -0.60323  -0.59914
 Alpha  occ. eigenvalues --   -0.59440  -0.59129  -0.59104  -0.59007  -0.58287
 Alpha  occ. eigenvalues --   -0.57520  -0.55677  -0.55518  -0.54998  -0.54670
 Alpha  occ. eigenvalues --   -0.54454  -0.53674  -0.53443  -0.53148  -0.52599
 Alpha  occ. eigenvalues --   -0.52099  -0.51461  -0.51162  -0.50679  -0.50637
 Alpha  occ. eigenvalues --   -0.50485  -0.50350  -0.49946  -0.49716  -0.49332
 Alpha  occ. eigenvalues --   -0.48861  -0.48607  -0.48464  -0.48226  -0.47908
 Alpha  occ. eigenvalues --   -0.47769  -0.47344  -0.47134  -0.46837  -0.46726
 Alpha  occ. eigenvalues --   -0.46546  -0.46252  -0.45965  -0.45894  -0.45679
 Alpha  occ. eigenvalues --   -0.45268  -0.45140  -0.45056  -0.44648  -0.44368
 Alpha  occ. eigenvalues --   -0.44352  -0.44040  -0.43910  -0.43859  -0.43741
 Alpha  occ. eigenvalues --   -0.43415  -0.43077  -0.42983  -0.42844  -0.42726
 Alpha  occ. eigenvalues --   -0.42274  -0.42092  -0.42032  -0.41532  -0.41418
 Alpha  occ. eigenvalues --   -0.41038  -0.40994  -0.40782  -0.40738  -0.40552
 Alpha  occ. eigenvalues --   -0.40471  -0.40412  -0.40201  -0.39910  -0.39728
 Alpha  occ. eigenvalues --   -0.39425  -0.39296  -0.39171  -0.39109  -0.38936
 Alpha  occ. eigenvalues --   -0.38538  -0.38464  -0.38300  -0.37984  -0.37830
 Alpha  occ. eigenvalues --   -0.37695  -0.37601  -0.36924  -0.36898  -0.36863
 Alpha  occ. eigenvalues --   -0.36400  -0.36237  -0.36007  -0.35789  -0.35741
 Alpha  occ. eigenvalues --   -0.35252  -0.35209  -0.35018  -0.34891  -0.34596
 Alpha  occ. eigenvalues --   -0.34416  -0.34259  -0.33549  -0.33504  -0.33183
 Alpha  occ. eigenvalues --   -0.33007  -0.32805  -0.32650  -0.32522  -0.32200
 Alpha  occ. eigenvalues --   -0.32129  -0.31785  -0.31385  -0.30675  -0.30049
 Alpha  occ. eigenvalues --   -0.29957  -0.29635  -0.29257  -0.28719  -0.26966
 Alpha  occ. eigenvalues --   -0.26868  -0.26140  -0.25736  -0.24712  -0.21221
 Alpha  occ. eigenvalues --   -0.18701
 Alpha virt. eigenvalues --   -0.06835  -0.02619   0.00910   0.02815   0.04182
 Alpha virt. eigenvalues --    0.04965   0.05280   0.05815   0.06062   0.06240
 Alpha virt. eigenvalues --    0.07168   0.08955   0.09621   0.09860   0.09931

 Mulliken charges:
               1
     1  Mg   0.819734
     2  C    0.051222
     3  C   -0.144317
     4  C   -0.180450
     5  C   -0.198922
     6  N   -0.633391
     7  C    0.280954
     8  C   -0.123290
     9  C   -0.136031
    10  C    0.309479
    11  C   -0.308336
    12  C   -0.185770
    13  C   -0.271124
    14  C    0.595595
    15  O   -0.490733
    16  O   -0.402329
    17  N   -0.699642
    18  C    0.235397
    19  C    0.066071
    20  C   -0.028485
    21  C    0.331794
    22  C   -0.374185
    23  C   -0.092384
    24  C   -0.257128
    25  N   -0.701186
    26  C    0.286268
    27  C    0.064034
    28  C    0.033293
    29  C    0.364173
    30  C   -0.368210
    31  C   -0.293220
    32  C   -0.292877
    33  N   -0.684431
    34  C    0.237552
    35  C    0.026749
    36  C   -0.026181
    37  C    0.319223
    38  C   -0.370489
    39  C    0.357279
    40  O   -0.379101
    41  C   -0.342977
    42  C    0.626503
    43  O   -0.454163
    44  O   -0.436790
    45  C   -0.134226
    46  C    0.002027
    47  C   -0.128024
    48  C    0.143042
    49  C   -0.361807
    50  C   -0.221811
    51  C   -0.173504
    52  C   -0.159416
    53  C   -0.067761
    54  C   -0.308029
    55  C   -0.164980
    56  C   -0.189504
    57  C   -0.178431
    58  C   -0.072303
    59  C   -0.307011
    60  C   -0.172395
    61  C   -0.197185
    62  C   -0.139697
    63  C   -0.022820
    64  C   -0.317966
    65  C   -0.306000
    66  H    0.076882
    67  H    0.087662
    68  H    0.071166
    69  H    0.125030
    70  H    0.099845
    71  H    0.092875
    72  H    0.111925
    73  H    0.102652
    74  H    0.110655
    75  H    0.098078
    76  H    0.120385
    77  H    0.133853
    78  H    0.120712
    79  H    0.127962
    80  H    0.112466
    81  H    0.091663
    82  H    0.085318
    83  H    0.101201
    84  H    0.119632
    85  H    0.090484
    86  H    0.116052
    87  H    0.078139
    88  H    0.101493
    89  H    0.099750
    90  H    0.136090
    91  H    0.120365
    92  H    0.139224
    93  H    0.135304
    94  H    0.139240
    95  H    0.146252
    96  H    0.146446
    97  H    0.133332
    98  H    0.136793
    99  H    0.109079
   100  H    0.116908
   101  H    0.089627
   102  H    0.091076
   103  H    0.127993
   104  H    0.105476
   105  H    0.100912
   106  H    0.096048
   107  H    0.120844
   108  H    0.077588
   109  H    0.095886
   110  H    0.047441
   111  H    0.082844
   112  H    0.112410
   113  H    0.083859
   114  H    0.095402
   115  H    0.089939
   116  H    0.099249
   117  H    0.088268
   118  H    0.092146
   119  H    0.078136
   120  H    0.089980
   121  H    0.080076
   122  H    0.110618
   123  H    0.105184
   124  H    0.114981
   125  H    0.072074
   126  H    0.088708
   127  H    0.072712
   128  H    0.096405
   129  H    0.056582
   130  H    0.100987
   131  H    0.106087
   132  H    0.105644
   133  H    0.086429
   134  H    0.104060
   135  H    0.069157
   136  H    0.086667
   137  H    0.092209
 Sum of Mulliken charges =  -0.00000

 Dipole moment (field-independent basis, Debye):
    X=              2.1637    Y=              2.1767    Z=              0.5452  Tot=              3.1172
 Quadrupole moment (field-independent basis, Debye-Ang):
   XX=           -359.9330   YY=           -393.8956   ZZ=           -393.3867
   XY=            -13.8174   XZ=              5.4424   YZ=             -4.3366

 Normal termination of Gaussian 16 at Wed Sep  4 16:42:16 2019.
