 Gaussian 09, Revision D.01,
 Gaussian 09:  ES64L-G09RevD.01 24-Apr-2013

 -------------------------------------
 # td=(NStates=1) CAM-B3LYP/6-31G(d,p)
 -------------------------------------

 --
 TD
 --
 Symbolic Z-matrix:
 Charge =  0 Multiplicity = 1

                         Standard orientation:
 ---------------------------------------------------------------------
 Center     Atomic      Atomic             Coordinates (Angstroms)
 Number     Number       Type             X           Y           Z
 ---------------------------------------------------------------------
      1         12           0       -7.233882    0.617690    0.136108
      2          6           0       -4.885374   -1.850265    0.555426
      3          6           0       -4.715326    2.871181    1.027907
      4          6           0       -9.350666    3.040413   -0.351214
      5          6           0       -9.568869   -1.657209   -0.773788
      6          7           0       -5.060540    0.444010    0.657052
      7          6           0       -4.385922   -0.649796    0.678035
      8          6           0       -2.985348   -0.324528    1.226921
      9          6           0       -3.046441    1.149565    1.659928
     10          6           0       -4.423257    1.531532    0.994595
     11          6           0       -2.895250    1.294805    3.194988
     12          6           0       -1.941633   -0.710802    0.072082
     13          6           0       -0.430329   -0.494532    0.450960
     14          6           0        0.506255   -0.636652   -0.552390
     15          8           0        0.233050   -0.903659   -1.729674
     16          8           0        1.784690   -0.344609   -0.207319
     17          7           0       -7.067622    2.598976    0.220319
     18          6           0       -5.990700    3.306897    0.666154
     19          6           0       -6.358858    4.739248    0.696638
     20          6           0       -7.685731    4.821770    0.301069
     21          6           0       -8.107537    3.475440   -0.046619
     22          6           0       -5.475122    5.926243    1.200832
     23          6           0       -8.503515    5.986905    0.166938
     24          6           0       -8.372569    7.132615    0.775127
     25          7           0       -9.103363    0.687524   -0.461854
     26          6           0       -9.839977    1.780116   -0.726647
     27          6           0      -11.153838    1.484170   -1.150684
     28          6           0      -11.243618    0.080981   -1.217084
     29          6           0       -9.922730   -0.323644   -0.846795
     30          6           0      -12.275603    2.401990   -1.418375
     31          6           0      -12.382238   -0.727422   -1.738776
     32          6           0      -12.186771   -1.297159   -3.245608
     33          7           0       -7.176390   -1.409639   -0.201219
     34          6           0       -8.347471   -2.221869   -0.492592
     35          6           0       -7.855098   -3.588055   -0.515505
     36          6           0       -6.496092   -3.538722   -0.161887
     37          6           0       -6.150180   -2.184773    0.069025
     38          6           0       -8.751634   -4.708650   -0.935768
     39          6           0       -5.286880   -4.375046    0.212997
     40          8           0       -5.219925   -5.500536    0.198668
     41          6           0       -4.093228   -3.214153    0.543071
     42          6           0       -3.580775   -3.643471    1.862356
     43          8           0       -3.924010   -3.053473    2.929428
     44          8           0       -2.799454   -4.636618    1.865510
     45          6           0       -2.345244   -5.270103    3.115238
     46          6           0        2.814542   -0.551022   -1.174010
     47          6           0        4.095086   -0.452405   -0.528087
     48          6           0        5.129044    0.301924   -0.829633
     49          6           0        5.067143    1.243407   -2.081666
     50          6           0        6.404875    0.308708   -0.080120
     51          6           0        7.635414   -0.297959   -0.876086
     52          6           0        8.857194   -0.332405   -0.033853
     53          6           0       10.214780   -0.615166   -0.746731
     54          6           0       10.025710   -2.030222   -1.348908
     55          6           0       11.456685   -0.403230    0.029229
     56          6           0       12.780086   -0.558765   -0.739365
     57          6           0       14.015752   -0.201363    0.183929
     58          6           0       15.370071   -0.197949   -0.536698
     59          6           0       15.887106   -1.637067   -0.929285
     60          6           0       16.379350    0.477718    0.380732
     61          6           0       17.864019    0.576999   -0.193577
     62          6           0       18.785512    1.275876    0.682671
     63          6           0       20.257657    1.411142    0.231405
     64          6           0       20.364335    2.034804   -1.122834
     65          6           0       21.111706    2.100673    1.303627
     66          1           0       -3.891005    3.582742    1.286875
     67          1           0      -10.141950    3.751967   -0.563121
     68          1           0      -10.378887   -2.464413   -1.107352
     69          1           0       -2.822838   -1.038551    2.037718
     70          1           0       -2.250320    1.524067    1.143096
     71          1           0       -1.993646    0.769891    3.637406
     72          1           0       -3.082249    2.235596    3.626235
     73          1           0       -3.691353    0.772056    3.763200
     74          1           0       -2.193220   -1.700362   -0.347374
     75          1           0       -1.921450   -0.054923   -0.623068
     76          1           0       -0.198272    0.627741    0.795197
     77          1           0       -0.194560   -1.363387    1.158726
     78          1           0       -5.689033    6.679067    0.669032
     79          1           0       -5.818184    6.139716    2.339963
     80          1           0       -4.326972    5.767135    1.152795
     81          1           0       -9.403745    5.816513   -0.309993
     82          1           0       -9.223042    7.817328    0.550386
     83          1           0       -7.560191    7.310052    1.526435
     84          1           0      -12.155492    2.921236   -2.432281
     85          1           0      -13.079184    1.871956   -1.383003
     86          1           0      -12.172471    3.352495   -0.676123
     87          1           0      -12.608878   -1.401531   -0.887433
     88          1           0      -13.359753   -0.070449   -1.823664
     89          1           0      -12.940817   -1.886396   -3.590367
     90          1           0      -12.108201   -0.535585   -3.894047
     91          1           0      -11.184971   -1.970251   -3.218266
     92          1           0       -9.100201   -4.410133   -1.872824
     93          1           0       -8.106893   -5.664069   -0.942644
     94          1           0       -9.814758   -4.917255   -0.350801
     95          1           0       -3.306961   -3.292227   -0.198165
     96          1           0       -1.548825   -4.630278    3.747179
     97          1           0       -3.119538   -5.334821    3.676870
     98          1           0       -1.885481   -6.379030    2.879832
     99          1           0        2.777774   -1.417469   -1.796310
    100          1           0        2.727284    0.101226   -1.915394
    101          1           0        4.146825   -0.936519    0.534828
    102          1           0        4.047458    1.447146   -2.428238
    103          1           0        5.643577    2.243591   -1.943734
    104          1           0        5.614558    0.801464   -3.041989
    105          1           0        6.599750    1.286196    0.277526
    106          1           0        6.224458   -0.174979    0.818756
    107          1           0        7.338803   -1.361821   -1.290046
    108          1           0        7.845874    0.229965   -1.828815
    109          1           0        8.763050    0.675615    0.308724
    110          1           0        9.004171   -0.903298    1.008944
    111          1           0       10.515061    0.028414   -1.616616
    112          1           0        9.108340   -2.205881   -1.907416
    113          1           0       10.825165   -2.231242   -2.009575
    114          1           0       10.115721   -2.612019   -0.471654
    115          1           0       11.441635    0.668609    0.366729
    116          1           0       11.552339   -0.961784    0.945909
    117          1           0       12.947362   -1.666460   -1.053226
    118          1           0       12.947595   -0.101144   -1.716466
    119          1           0       13.692434    0.642856    0.556531
    120          1           0       14.090287   -0.964115    0.939843
    121          1           0       15.320170    0.263393   -1.595877
    122          1           0       15.746655   -2.204598    0.006334
    123          1           0       15.318871   -1.884276   -1.863281
    124          1           0       16.705567   -1.531169   -1.604258
    125          1           0       15.864098    1.430171    0.823407
    126          1           0       16.376017   -0.193379    1.360025
    127          1           0       18.307427   -0.637624   -0.238459
    128          1           0       17.997620    1.083763   -1.319490
    129          1           0       18.348634    2.215717    0.961818
    130          1           0       18.815762    0.587331    1.463905
    131          1           0       20.632244    0.309592    0.168253
    132          1           0       19.846025    3.009159   -0.986931
    133          1           0       21.447139    2.213941   -1.145249
    134          1           0       20.017213    1.425490   -1.923792
    135          1           0       20.886547    1.743910    2.298957
    136          1           0       22.209304    2.050503    1.086884
    137          1           0       20.600731    3.192308    1.088969
 ---------------------------------------------------------------------

 SCF Done:  E(RCAM-B3LYP) =  -2932.63967692     A.U. after   15 cycles

 Excitation energies and oscillator strengths:

 Excited State   1:      Singlet-A      2.2469 eV  551.79 nm  f=0.1931  <S**2>=0.000
     240 -> 243        0.28921
     241 -> 242        0.63635
 This state for optimization and/or second-order correction.
 Total Energy, E(TD-HF/TD-KS) =  -2932.55710367
 Copying the excited state density for this state as the 1-particle RhoCI density.

 The electronic state is 1-A.
 Alpha  occ. eigenvalues --  -46.83468 -19.27399 -19.25806 -19.22218 -19.19528
 Alpha  occ. eigenvalues --  -19.18027 -14.40276 -14.39266 -14.38869 -14.38287
 Alpha  occ. eigenvalues --  -10.38154 -10.38150 -10.35941 -10.33371 -10.30313
 Alpha  occ. eigenvalues --  -10.30148 -10.29717 -10.29021 -10.28666 -10.28607
 Alpha  occ. eigenvalues --  -10.28455 -10.28392 -10.28285 -10.28268 -10.28251
 Alpha  occ. eigenvalues --  -10.28011 -10.28008 -10.27944 -10.27830 -10.27189
 Alpha  occ. eigenvalues --  -10.27162 -10.27058 -10.26961 -10.26864 -10.26861
 Alpha  occ. eigenvalues --  -10.26857 -10.26530 -10.26232 -10.26178 -10.26135
 Alpha  occ. eigenvalues --  -10.26022 -10.25991 -10.25985 -10.25983 -10.25851
 Alpha  occ. eigenvalues --  -10.25780 -10.25737 -10.25662 -10.25577 -10.25574
 Alpha  occ. eigenvalues --  -10.25563 -10.25554 -10.25434 -10.25429 -10.25392
 Alpha  occ. eigenvalues --  -10.25379 -10.25288 -10.25105 -10.25096 -10.25063
 Alpha  occ. eigenvalues --  -10.24519 -10.23968 -10.23673 -10.23020 -10.22844
 Alpha  occ. eigenvalues --   -3.12691  -1.87383  -1.86955  -1.86853  -1.20022
 Alpha  occ. eigenvalues --   -1.17665  -1.17418  -1.07499  -1.06228  -1.05317
 Alpha  occ. eigenvalues --   -1.04519  -1.02894  -1.02216  -0.91643  -0.91535
 Alpha  occ. eigenvalues --   -0.90692  -0.90228  -0.89777  -0.89625  -0.89001
 Alpha  occ. eigenvalues --   -0.88588  -0.88400  -0.87758  -0.86940  -0.86517
 Alpha  occ. eigenvalues --   -0.85248  -0.84518  -0.83736  -0.83339  -0.82874
 Alpha  occ. eigenvalues --   -0.82167  -0.81855  -0.81016  -0.80056  -0.78424
 Alpha  occ. eigenvalues --   -0.78190  -0.77730  -0.76766  -0.76070  -0.75756
 Alpha  occ. eigenvalues --   -0.75710  -0.75604  -0.74635  -0.73732  -0.72848
 Alpha  occ. eigenvalues --   -0.72065  -0.71489  -0.70898  -0.69127  -0.67664
 Alpha  occ. eigenvalues --   -0.66849  -0.66351  -0.66099  -0.65103  -0.64572
 Alpha  occ. eigenvalues --   -0.64478  -0.63953  -0.62837  -0.62637  -0.60982
 Alpha  occ. eigenvalues --   -0.60897  -0.60601  -0.60069  -0.59480  -0.59071
 Alpha  occ. eigenvalues --   -0.58603  -0.58004  -0.57711  -0.57344  -0.56847
 Alpha  occ. eigenvalues --   -0.56229  -0.56129  -0.55714  -0.55156  -0.54929
 Alpha  occ. eigenvalues --   -0.54628  -0.54556  -0.54157  -0.53773  -0.53430
 Alpha  occ. eigenvalues --   -0.53264  -0.52662  -0.52514  -0.52206  -0.51884
 Alpha  occ. eigenvalues --   -0.51821  -0.51389  -0.51263  -0.50889  -0.50665
 Alpha  occ. eigenvalues --   -0.50479  -0.50284  -0.49991  -0.49891  -0.49742
 Alpha  occ. eigenvalues --   -0.49598  -0.49323  -0.48614  -0.48474  -0.48224
 Alpha  occ. eigenvalues --   -0.48171  -0.47951  -0.47766  -0.47627  -0.47455
 Alpha  occ. eigenvalues --   -0.47171  -0.47026  -0.46519  -0.46226  -0.46087
 Alpha  occ. eigenvalues --   -0.45735  -0.45666  -0.45425  -0.45258  -0.44976
 Alpha  occ. eigenvalues --   -0.44882  -0.44681  -0.44620  -0.44544  -0.44089
 Alpha  occ. eigenvalues --   -0.44022  -0.43938  -0.43677  -0.43571  -0.43236
 Alpha  occ. eigenvalues --   -0.42984  -0.42810  -0.42779  -0.42773  -0.42474
 Alpha  occ. eigenvalues --   -0.42196  -0.42093  -0.41776  -0.41513  -0.41446
 Alpha  occ. eigenvalues --   -0.41327  -0.41081  -0.40822  -0.40670  -0.40303
 Alpha  occ. eigenvalues --   -0.40154  -0.39411  -0.39402  -0.39251  -0.38693
 Alpha  occ. eigenvalues --   -0.38494  -0.38374  -0.38132  -0.38008  -0.37721
 Alpha  occ. eigenvalues --   -0.37613  -0.37214  -0.36986  -0.36783  -0.36156
 Alpha  occ. eigenvalues --   -0.35736  -0.35691  -0.35586  -0.35368  -0.35328
 Alpha  occ. eigenvalues --   -0.34803  -0.34746  -0.34533  -0.33619  -0.32612
 Alpha  occ. eigenvalues --   -0.32520  -0.32298  -0.31613  -0.31224  -0.29566
 Alpha  occ. eigenvalues --   -0.29470  -0.28923  -0.28028  -0.27306  -0.23090
 Alpha  occ. eigenvalues --   -0.21580
 Alpha virt. eigenvalues --   -0.05664  -0.03021   0.02957   0.05118   0.05540
 Alpha virt. eigenvalues --    0.06433   0.06896   0.07216   0.07881   0.08279
 Alpha virt. eigenvalues --    0.09436   0.10571   0.11093   0.11898   0.11986

 Mulliken charges:
               1
     1  Mg   0.840604
     2  C    0.127371
     3  C   -0.182451
     4  C   -0.186142
     5  C   -0.199356
     6  N   -0.623529
     7  C    0.318676
     8  C   -0.198119
     9  C   -0.117526
    10  C    0.326088
    11  C   -0.325022
    12  C   -0.162339
    13  C   -0.289794
    14  C    0.627055
    15  O   -0.503520
    16  O   -0.490173
    17  N   -0.743257
    18  C    0.336084
    19  C   -0.036587
    20  C    0.033244
    21  C    0.309045
    22  C   -0.348810
    23  C   -0.046909
    24  C   -0.251277
    25  N   -0.695977
    26  C    0.296735
    27  C   -0.000967
    28  C    0.053299
    29  C    0.293714
    30  C   -0.345626
    31  C   -0.256932
    32  C   -0.299486
    33  N   -0.741352
    34  C    0.264981
    35  C    0.019886
    36  C   -0.037172
    37  C    0.305653
    38  C   -0.377115
    39  C    0.369281
    40  O   -0.366302
    41  C   -0.370082
    42  C    0.616374
    43  O   -0.533545
    44  O   -0.418005
    45  C   -0.071380
    46  C    0.046185
    47  C   -0.148013
    48  C    0.129912
    49  C   -0.369645
    50  C   -0.233479
    51  C   -0.180712
    52  C   -0.152085
    53  C   -0.073203
    54  C   -0.305518
    55  C   -0.177732
    56  C   -0.202987
    57  C   -0.162415
    58  C   -0.075408
    59  C   -0.304732
    60  C   -0.152793
    61  C   -0.161472
    62  C   -0.143890
    63  C   -0.076440
    64  C   -0.294742
    65  C   -0.284199
    66  H    0.099332
    67  H    0.071524
    68  H    0.090648
    69  H    0.130056
    70  H    0.097608
    71  H    0.110630
    72  H    0.110549
    73  H    0.121883
    74  H    0.113515
    75  H    0.123691
    76  H    0.133794
    77  H    0.137201
    78  H    0.141271
    79  H    0.108406
    80  H    0.103526
    81  H    0.083624
    82  H    0.098834
    83  H    0.101835
    84  H    0.114094
    85  H    0.116319
    86  H    0.094336
    87  H    0.116217
    88  H    0.088225
    89  H    0.119457
    90  H    0.129701
    91  H    0.087163
    92  H    0.139306
    93  H    0.133155
    94  H    0.105419
    95  H    0.153871
    96  H    0.118605
    97  H    0.159073
    98  H    0.121693
    99  H    0.133332
   100  H    0.112161
   101  H    0.078662
   102  H    0.118799
   103  H    0.102548
   104  H    0.099941
   105  H    0.106653
   106  H    0.106990
   107  H    0.084509
   108  H    0.109364
   109  H    0.092092
   110  H    0.076141
   111  H    0.073909
   112  H    0.102953
   113  H    0.100371
   114  H    0.101623
   115  H    0.088571
   116  H    0.088745
   117  H    0.082645
   118  H    0.093324
   119  H    0.100967
   120  H    0.089932
   121  H    0.065743
   122  H    0.107906
   123  H    0.087612
   124  H    0.118707
   125  H    0.080697
   126  H    0.069725
   127  H    0.058623
   128  H    0.059199
   129  H    0.086462
   130  H    0.099213
   131  H    0.059114
   132  H    0.093475
   133  H    0.098276
   134  H    0.116422
   135  H    0.110866
   136  H    0.102480
   137  H    0.070722
 Sum of Mulliken charges =   0.00000

 Dipole moment (field-independent basis, Debye):
    X=              0.2714    Y=              2.6207    Z=              0.7345  Tot=              2.7352
 Quadrupole moment (field-independent basis, Debye-Ang):
   XX=           -337.4272   YY=           -386.2736   ZZ=           -393.7831
   XY=            -15.8369   XZ=             15.1787   YZ=             -2.9068

 Normal termination of Gaussian 09 at Fri Jul  5 13:25:02 2019.
