 Gaussian 16, Revision A.03,
 Gaussian 16:  ES64L-G16RevA.03 25-Dec-2016

 -------------------------------------
 # td=(NStates=1) CAM-B3LYP/6-31G(d,p)
 -------------------------------------

 --
 TD
 --
 Symbolic Z-matrix:
 Charge =  0 Multiplicity = 1

                         Standard orientation:
 ---------------------------------------------------------------------
 Center     Atomic      Atomic             Coordinates (Angstroms)
 Number     Number       Type             X           Y           Z
 ---------------------------------------------------------------------
      1         12           0       -7.179354    0.571539    0.108110
      2          6           0       -4.910075   -1.941870    0.493556
      3          6           0       -4.792515    2.823181    1.064831
      4          6           0       -9.386252    3.011877   -0.426854
      5          6           0       -9.477380   -1.783695   -0.865486
      6          7           0       -5.126585    0.399479    0.765414
      7          6           0       -4.377695   -0.719305    0.771891
      8          6           0       -2.949617   -0.357696    1.162995
      9          6           0       -3.052007    1.082751    1.695559
     10          6           0       -4.356803    1.525925    1.141017
     11          6           0       -2.958928    1.310471    3.229556
     12          6           0       -1.851933   -0.521985    0.079598
     13          6           0       -0.465873   -0.286186    0.654598
     14          6           0        0.530810   -0.492495   -0.576195
     15          8           0        0.223969   -0.826183   -1.683559
     16          8           0        1.866608   -0.363153   -0.190695
     17          7           0       -7.076303    2.539296    0.372965
     18          6           0       -6.012986    3.305821    0.807435
     19          6           0       -6.487394    4.814152    0.795361
     20          6           0       -7.759374    4.784718    0.287038
     21          6           0       -8.201868    3.462273    0.046103
     22          6           0       -5.525901    5.882794    1.065100
     23          6           0       -8.570940    5.964641    0.053798
     24          6           0       -8.643060    7.070582    0.829160
     25          7           0       -9.096199    0.634801   -0.512892
     26          6           0       -9.860396    1.773798   -0.715201
     27          6           0      -11.128799    1.373727   -1.168231
     28          6           0      -11.127044    0.101065   -1.253903
     29          6           0       -9.914613   -0.440154   -0.773825
     30          6           0      -12.277887    2.338083   -1.444937
     31          6           0      -12.384366   -0.901988   -1.587127
     32          6           0      -12.284837   -1.277137   -3.077873
     33          7           0       -7.247251   -1.456200   -0.186669
     34          6           0       -8.257035   -2.303398   -0.526160
     35          6           0       -7.774816   -3.687510   -0.374748
     36          6           0       -6.418887   -3.669105   -0.156803
     37          6           0       -6.197541   -2.206078    0.131575
     38          6           0       -8.645858   -4.886842   -0.687691
     39          6           0       -5.295702   -4.463350    0.166278
     40          8           0       -5.154537   -5.605475    0.231452
     41          6           0       -4.141017   -3.303165    0.545392
     42          6           0       -3.483484   -3.656651    1.897869
     43          8           0       -3.676969   -3.067884    2.938736
     44          8           0       -2.593253   -4.640052    1.743121
     45          6           0       -2.048671   -5.102117    2.906158
     46          6           0        2.747381   -0.399020   -1.262346
     47          6           0        4.135587   -0.225882   -0.622631
     48          6           0        5.146227    0.438304   -1.123210
     49          6           0        5.189642    1.245173   -2.401264
     50          6           0        6.400476    0.526282   -0.257445
     51          6           0        7.590879   -0.043842   -1.027837
     52          6           0        8.804916    0.097165   -0.238801
     53          6           0       10.141293   -0.378860   -1.038833
     54          6           0        9.909486   -1.885231   -1.513307
     55          6           0       11.412107   -0.175483   -0.163176
     56          6           0       12.776272   -0.442003   -0.805686
     57          6           0       13.907315   -0.256429    0.157012
     58          6           0       15.323738   -0.228612   -0.454795
     59          6           0       15.722422   -1.645990   -0.883303
     60          6           0       16.387675    0.409641    0.446400
     61          6           0       17.796716    0.574190   -0.069244
     62          6           0       18.860998    1.031674    0.931906
     63          6           0       20.292419    1.108506    0.354873
     64          6           0       20.390202    2.018069   -0.835962
     65          6           0       21.258974    1.684729    1.446746
     66          1           0       -4.131859    3.640097    1.527556
     67          1           0      -10.159048    3.840748   -0.247595
     68          1           0      -10.374370   -2.431708   -1.051194
     69          1           0       -2.735410   -1.101575    1.896514
     70          1           0       -2.428021    1.795356    1.335455
     71          1           0       -2.058364    0.930950    3.561070
     72          1           0       -3.170082    2.413587    3.222047
     73          1           0       -3.835232    0.936482    3.731233
     74          1           0       -1.922712   -1.555498   -0.426338
     75          1           0       -2.154515   -0.000813   -0.848584
     76          1           0       -0.343070    0.655506    0.893586
     77          1           0       -0.388339   -1.010064    1.461650
     78          1           0       -6.107876    6.889207    0.871798
     79          1           0       -5.594745    5.721834    2.121238
     80          1           0       -4.591819    5.680487    0.476265
     81          1           0       -9.242028    6.073097   -0.683546
     82          1           0       -9.304435    7.823495    0.710713
     83          1           0       -8.147475    7.144903    1.811547
     84          1           0      -12.024769    3.162042   -2.200714
     85          1           0      -13.451380    2.037232   -1.613428
     86          1           0      -12.403043    3.061880   -0.525112
     87          1           0      -12.428401   -1.687754   -1.192478
     88          1           0      -13.284015   -0.342176   -1.273568
     89          1           0      -13.282377   -1.835794   -3.323823
     90          1           0      -12.037883   -0.425183   -3.720021
     91          1           0      -11.574144   -2.260180   -3.045874
     92          1           0       -8.999568   -4.834017   -1.749987
     93          1           0       -8.044796   -5.611885   -0.603571
     94          1           0       -9.508901   -4.990569   -0.087191
     95          1           0       -3.309695   -3.541757   -0.266374
     96          1           0       -1.367126   -4.461851    3.272578
     97          1           0       -2.737506   -5.372289    3.660257
     98          1           0       -1.695591   -6.208277    2.672030
     99          1           0        2.664997   -1.219302   -1.788619
    100          1           0        2.343090    0.412999   -2.100134
    101          1           0        4.334447   -0.963744    0.258210
    102          1           0        3.999975    1.598477   -2.609642
    103          1           0        5.634397    2.240164   -2.251075
    104          1           0        5.852601    0.878558   -3.178338
    105          1           0        6.415431    1.769097    0.005823
    106          1           0        6.264108   -0.087907    0.661038
    107          1           0        7.288532   -1.068862   -1.174840
    108          1           0        7.941734    0.406391   -2.130646
    109          1           0        9.011337    1.237510    0.029462
    110          1           0        8.894829   -0.402590    0.679612
    111          1           0       10.104583    0.232263   -1.968693
    112          1           0        8.822163   -1.999736   -2.006337
    113          1           0       10.769115   -2.291259   -2.137295
    114          1           0        9.795532   -2.604713   -0.610211
    115          1           0       11.271125    0.792661    0.393921
    116          1           0       11.267644   -0.895326    0.741377
    117          1           0       12.727437   -1.400996   -0.976072
    118          1           0       13.045590    0.254082   -1.762992
    119          1           0       13.913969    0.793595    0.245218
    120          1           0       13.770505   -0.729427    1.129820
    121          1           0       15.338114    0.327203   -1.352636
    122          1           0       15.857449   -2.280562   -0.085661
    123          1           0       14.817973   -1.891964   -1.533790
    124          1           0       16.609896   -1.617950   -1.659957
    125          1           0       16.101121    1.318788    0.462605
    126          1           0       16.371277   -0.118837    1.478395
    127          1           0       18.132159   -0.289682   -0.563563
    128          1           0       17.838320    0.987469   -1.087011
    129          1           0       18.724878    2.039708    1.427047
    130          1           0       19.005581    0.321793    1.853962
    131          1           0       20.577525    0.109316    0.006059
    132          1           0       19.889795    2.983175   -0.776607
    133          1           0       21.403734    2.032730   -1.286194
    134          1           0       20.007915    1.417172   -1.783289
    135          1           0       21.380609    1.076047    2.355680
    136          1           0       22.253793    1.745210    1.263200
    137          1           0       20.821485    2.629739    1.810961
 ---------------------------------------------------------------------

 SCF Done:  E(RCAM-B3LYP) =  -2932.59878679     A.U. after   16 cycles

 Excitation energies and oscillator strengths:

 Excited State   1:      Singlet-A      2.1171 eV  585.62 nm  f=0.2270  <S**2>=0.000
     240 -> 243       -0.26852
     241 -> 242        0.64934
 This state for optimization and/or second-order correction.
 Total Energy, E(TD-HF/TD-DFT) =  -2932.52098382
 Copying the excited state density for this state as the 1-particle RhoCI density.

 The electronic state is 1-A.
 Alpha  occ. eigenvalues --  -46.83255 -19.26692 -19.25908 -19.22514 -19.21725
 Alpha  occ. eigenvalues --  -19.20835 -14.41304 -14.39437 -14.39292 -14.38519
 Alpha  occ. eigenvalues --  -10.40070 -10.39210 -10.35564 -10.31129 -10.31071
 Alpha  occ. eigenvalues --  -10.30449 -10.30212 -10.30206 -10.29332 -10.29121
 Alpha  occ. eigenvalues --  -10.29106 -10.28930 -10.28821 -10.28020 -10.27713
 Alpha  occ. eigenvalues --  -10.27654 -10.27631 -10.27619 -10.27617 -10.27499
 Alpha  occ. eigenvalues --  -10.27028 -10.26945 -10.26915 -10.26883 -10.26826
 Alpha  occ. eigenvalues --  -10.26742 -10.26677 -10.26657 -10.26630 -10.26613
 Alpha  occ. eigenvalues --  -10.26528 -10.26499 -10.26476 -10.26267 -10.26200
 Alpha  occ. eigenvalues --  -10.26047 -10.26031 -10.25963 -10.25892 -10.25658
 Alpha  occ. eigenvalues --  -10.25555 -10.25492 -10.25373 -10.25151 -10.24999
 Alpha  occ. eigenvalues --  -10.24963 -10.24796 -10.24551 -10.24409 -10.24382
 Alpha  occ. eigenvalues --  -10.24233 -10.24003 -10.23930 -10.23491 -10.23381
 Alpha  occ. eigenvalues --   -3.12431  -1.87135  -1.86673  -1.86610  -1.20145
 Alpha  occ. eigenvalues --   -1.18716  -1.15688  -1.10756  -1.09984  -1.04882
 Alpha  occ. eigenvalues --   -1.03375  -1.03053  -1.00214  -0.92160  -0.91364
 Alpha  occ. eigenvalues --   -0.91011  -0.90340  -0.89996  -0.89145  -0.88945
 Alpha  occ. eigenvalues --   -0.88326  -0.88077  -0.87666  -0.87496  -0.86194
 Alpha  occ. eigenvalues --   -0.85724  -0.84626  -0.83814  -0.83344  -0.82951
 Alpha  occ. eigenvalues --   -0.81909  -0.81683  -0.80934  -0.79820  -0.79115
 Alpha  occ. eigenvalues --   -0.78440  -0.76479  -0.76108  -0.75885  -0.75671
 Alpha  occ. eigenvalues --   -0.75224  -0.74890  -0.74297  -0.73137  -0.72558
 Alpha  occ. eigenvalues --   -0.72178  -0.70466  -0.69692  -0.69103  -0.68580
 Alpha  occ. eigenvalues --   -0.67754  -0.67268  -0.66071  -0.65993  -0.64713
 Alpha  occ. eigenvalues --   -0.64597  -0.64222  -0.63179  -0.62572  -0.62237
 Alpha  occ. eigenvalues --   -0.62001  -0.61033  -0.60693  -0.59746  -0.59448
 Alpha  occ. eigenvalues --   -0.58599  -0.58114  -0.58022  -0.57477  -0.57047
 Alpha  occ. eigenvalues --   -0.56265  -0.56035  -0.55739  -0.55361  -0.55269
 Alpha  occ. eigenvalues --   -0.54838  -0.54550  -0.54232  -0.54150  -0.53787
 Alpha  occ. eigenvalues --   -0.53505  -0.52723  -0.52429  -0.52328  -0.52067
 Alpha  occ. eigenvalues --   -0.51737  -0.51427  -0.51264  -0.50910  -0.50743
 Alpha  occ. eigenvalues --   -0.50706  -0.50313  -0.50190  -0.49940  -0.49820
 Alpha  occ. eigenvalues --   -0.49580  -0.49363  -0.49179  -0.49008  -0.48541
 Alpha  occ. eigenvalues --   -0.48406  -0.47959  -0.47942  -0.47579  -0.47484
 Alpha  occ. eigenvalues --   -0.47092  -0.46966  -0.46467  -0.46288  -0.46046
 Alpha  occ. eigenvalues --   -0.45806  -0.45592  -0.45348  -0.45218  -0.44954
 Alpha  occ. eigenvalues --   -0.44745  -0.44604  -0.44585  -0.44451  -0.44270
 Alpha  occ. eigenvalues --   -0.44135  -0.43927  -0.43734  -0.43648  -0.43446
 Alpha  occ. eigenvalues --   -0.43090  -0.42707  -0.42683  -0.42523  -0.42403
 Alpha  occ. eigenvalues --   -0.42018  -0.41868  -0.41429  -0.41304  -0.41265
 Alpha  occ. eigenvalues --   -0.40918  -0.40698  -0.40575  -0.40566  -0.40432
 Alpha  occ. eigenvalues --   -0.40231  -0.39599  -0.39559  -0.39221  -0.39056
 Alpha  occ. eigenvalues --   -0.38493  -0.38404  -0.38135  -0.37630  -0.37572
 Alpha  occ. eigenvalues --   -0.37409  -0.37042  -0.36921  -0.36877  -0.36542
 Alpha  occ. eigenvalues --   -0.36381  -0.36181  -0.35930  -0.35603  -0.35506
 Alpha  occ. eigenvalues --   -0.35283  -0.34884  -0.34531  -0.34199  -0.33804
 Alpha  occ. eigenvalues --   -0.33448  -0.33124  -0.32378  -0.31205  -0.30632
 Alpha  occ. eigenvalues --   -0.30033  -0.30019  -0.28927  -0.27304  -0.23645
 Alpha  occ. eigenvalues --   -0.20731
 Alpha virt. eigenvalues --   -0.05585  -0.03124   0.01493   0.04147   0.05601
 Alpha virt. eigenvalues --    0.05924   0.06512   0.06706   0.06999   0.07479
 Alpha virt. eigenvalues --    0.08906   0.10856   0.11184   0.11421   0.12037

 Mulliken charges:
               1
     1  Mg   0.806137
     2  C    0.062199
     3  C   -0.220846
     4  C   -0.203029
     5  C   -0.182569
     6  N   -0.651360
     7  C    0.334699
     8  C   -0.167182
     9  C   -0.147722
    10  C    0.329498
    11  C   -0.291602
    12  C   -0.194803
    13  C   -0.239645
    14  C    0.587016
    15  O   -0.436956
    16  O   -0.480418
    17  N   -0.720066
    18  C    0.332174
    19  C   -0.026889
    20  C    0.050412
    21  C    0.289686
    22  C   -0.358384
    23  C   -0.095996
    24  C   -0.242589
    25  N   -0.702066
    26  C    0.298922
    27  C    0.086526
    28  C   -0.033626
    29  C    0.268173
    30  C   -0.387077
    31  C   -0.169815
    32  C   -0.306313
    33  N   -0.706627
    34  C    0.314247
    35  C   -0.025105
    36  C    0.014054
    37  C    0.293001
    38  C   -0.349334
    39  C    0.364405
    40  O   -0.400161
    41  C   -0.354137
    42  C    0.617825
    43  O   -0.479292
    44  O   -0.417112
    45  C   -0.085371
    46  C    0.026928
    47  C   -0.159305
    48  C    0.145330
    49  C   -0.359932
    50  C   -0.213272
    51  C   -0.160493
    52  C   -0.166099
    53  C   -0.063688
    54  C   -0.312627
    55  C   -0.186421
    56  C   -0.154840
    57  C   -0.177205
    58  C   -0.100144
    59  C   -0.292915
    60  C   -0.139706
    61  C   -0.202891
    62  C   -0.150943
    63  C   -0.063307
    64  C   -0.296298
    65  C   -0.314010
    66  H    0.075901
    67  H    0.092386
    68  H    0.085633
    69  H    0.122331
    70  H    0.113902
    71  H    0.120992
    72  H    0.098157
    73  H    0.130018
    74  H    0.110332
    75  H    0.119456
    76  H    0.144003
    77  H    0.144730
    78  H    0.114838
    79  H    0.142499
    80  H    0.132293
    81  H    0.094263
    82  H    0.104842
    83  H    0.093893
    84  H    0.115694
    85  H    0.107984
    86  H    0.101893
    87  H    0.094224
    88  H    0.093737
    89  H    0.086207
    90  H    0.126509
    91  H    0.082930
    92  H    0.121827
    93  H    0.140646
    94  H    0.127984
    95  H    0.145175
    96  H    0.124449
    97  H    0.130825
    98  H    0.104157
    99  H    0.136596
   100  H    0.082863
   101  H    0.090103
   102  H    0.090719
   103  H    0.112789
   104  H    0.133229
   105  H    0.072841
   106  H    0.103034
   107  H    0.111833
   108  H    0.072159
   109  H    0.074764
   110  H    0.098575
   111  H    0.082211
   112  H    0.088459
   113  H    0.103818
   114  H    0.086323
   115  H    0.086679
   116  H    0.075626
   117  H    0.115080
   118  H    0.073249
   119  H    0.102569
   120  H    0.092817
   121  H    0.083688
   122  H    0.108999
   123  H    0.085110
   124  H    0.075521
   125  H    0.106161
   126  H    0.073950
   127  H    0.093029
   128  H    0.088012
   129  H    0.080351
   130  H    0.081540
   131  H    0.088134
   132  H    0.109230
   133  H    0.100286
   134  H    0.069522
   135  H    0.087372
   136  H    0.108714
   137  H    0.098291
 Sum of Mulliken charges =  -0.00000

 Dipole moment (field-independent basis, Debye):
    X=              1.3439    Y=              3.3488    Z=              0.9586  Tot=              3.7336
 Quadrupole moment (field-independent basis, Debye-Ang):
   XX=           -354.3064   YY=           -388.5438   ZZ=           -399.2896
   XY=            -15.8665   XZ=              0.3830   YZ=             -1.8065

 Normal termination of Gaussian 16 at Thu Jun 27 07:53:38 2019.
