 Gaussian 16, Revision A.03,
 Gaussian 16:  ES64L-G16RevA.03 25-Dec-2016

 ----------------------------------------------------------------------
 # td=(NStates=1) iop(3/107=0140000000,3/108=0140000000) CAM-B3LYP/6-31
 G(d,p)
 ----------------------------------------------------------------------

 --
 TD
 --
 Symbolic Z-matrix:
 Charge =  0 Multiplicity = 1

                         Standard orientation:
 ---------------------------------------------------------------------
 Center     Atomic      Atomic             Coordinates (Angstroms)
 Number     Number       Type             X           Y           Z
 ---------------------------------------------------------------------
      1         12           0       -6.995753    0.619086    0.116723
      2          6           0       -4.863393   -1.924506    0.409584
      3          6           0       -4.740805    2.760667    1.164451
      4          6           0       -9.436961    3.139269   -0.413730
      5          6           0       -9.555711   -1.687837   -0.863378
      6          7           0       -5.057683    0.399898    0.745310
      7          6           0       -4.285657   -0.710311    0.789614
      8          6           0       -2.918704   -0.448141    1.279099
      9          6           0       -2.957395    1.060772    1.746649
     10          6           0       -4.261020    1.445477    1.164006
     11          6           0       -2.989262    1.376230    3.310670
     12          6           0       -1.928961   -0.582558    0.170962
     13          6           0       -0.421838   -0.354987    0.575752
     14          6           0        0.523056   -0.803039   -0.514296
     15          8           0        0.294933   -1.076482   -1.702532
     16          8           0        1.860868   -0.683700   -0.090143
     17          7           0       -7.103152    2.673579    0.354325
     18          6           0       -6.059778    3.356384    0.740017
     19          6           0       -6.347861    4.662575    0.751990
     20          6           0       -7.635463    4.855436    0.364904
     21          6           0       -8.123238    3.489611    0.088758
     22          6           0       -5.410914    5.838509    1.136254
     23          6           0       -8.469180    6.078263    0.148551
     24          6           0       -8.317617    7.152443    0.731344
     25          7           0       -9.103021    0.737338   -0.577214
     26          6           0       -9.790282    1.822959   -0.786091
     27          6           0      -11.212154    1.560824   -1.124108
     28          6           0      -11.262494    0.237144   -1.245373
     29          6           0       -9.953358   -0.354295   -0.870037
     30          6           0      -12.156175    2.626008   -1.459400
     31          6           0      -12.495718   -0.573723   -1.630021
     32          6           0      -12.481107   -1.066085   -3.107676
     33          7           0       -7.254722   -1.331112   -0.170460
     34          6           0       -8.317153   -2.216438   -0.464731
     35          6           0       -7.807120   -3.552426   -0.476203
     36          6           0       -6.551485   -3.564791   -0.187864
     37          6           0       -6.252092   -2.163091    0.104612
     38          6           0       -8.661825   -4.770993   -0.877412
     39          6           0       -5.433067   -4.359358    0.186451
     40          8           0       -5.246504   -5.590254    0.155881
     41          6           0       -4.190984   -3.329130    0.433757
     42          6           0       -3.519555   -3.791920    1.764264
     43          8           0       -3.659913   -3.173889    2.850274
     44          8           0       -2.749329   -4.794082    1.675445
     45          6           0       -2.311228   -5.407169    2.977149
     46          6           0        2.838278   -0.854404   -1.219320
     47          6           0        4.161017   -0.493256   -0.540325
     48          6           0        5.157096    0.264920   -0.944751
     49          6           0        5.050753    1.067701   -2.130931
     50          6           0        6.442542    0.372571   -0.230657
     51          6           0        7.574311   -0.256151   -0.962220
     52          6           0        8.980384   -0.209408   -0.084563
     53          6           0       10.214010   -0.678996   -0.913143
     54          6           0       10.149477   -2.148078   -1.244523
     55          6           0       11.477401   -0.271872   -0.077291
     56          6           0       12.806983   -0.450058   -0.706288
     57          6           0       13.954533   -0.154709    0.206467
     58          6           0       15.294304   -0.249007   -0.495241
     59          6           0       15.729104   -1.643714   -0.845420
     60          6           0       16.335805    0.492532    0.423210
     61          6           0       17.712789    0.594809   -0.258088
     62          6           0       18.673375    1.293938    0.743578
     63          6           0       20.125879    1.521312    0.219586
     64          6           0       20.155396    2.186493   -1.126842
     65          6           0       21.043521    2.138563    1.314731
     66          1           0       -4.002822    3.284727    1.471188
     67          1           0      -10.325409    3.847045   -0.527317
     68          1           0      -10.327229   -2.274656   -1.131425
     69          1           0       -2.597227   -1.068471    2.214644
     70          1           0       -2.085205    1.567529    1.259813
     71          1           0       -1.932696    1.215901    3.577224
     72          1           0       -3.220172    2.359005    3.372114
     73          1           0       -3.601529    0.698709    4.034168
     74          1           0       -2.061195   -1.515058   -0.326175
     75          1           0       -2.299461    0.134486   -0.665813
     76          1           0       -0.082549    0.665440    0.724973
     77          1           0        0.006678   -0.770378    1.641737
     78          1           0       -5.693879    6.720800    0.467213
     79          1           0       -5.580003    6.237218    2.246778
     80          1           0       -4.339899    5.576011    1.073701
     81          1           0       -9.237525    5.916668   -0.574290
     82          1           0       -8.937610    7.849980    0.217941
     83          1           0       -7.757277    7.545470    1.542325
     84          1           0      -11.933014    3.208938   -2.310025
     85          1           0      -13.134435    2.267623   -1.959218
     86          1           0      -12.512293    3.149541   -0.617361
     87          1           0      -12.596066   -1.537410   -1.080660
     88          1           0      -13.350814    0.043618   -1.379169
     89          1           0      -13.511363   -1.668957   -3.313938
     90          1           0      -12.609505   -0.162553   -3.971599
     91          1           0      -11.510173   -1.209888   -3.340527
     92          1           0       -8.979219   -4.744632   -1.978563
     93          1           0       -7.988268   -5.592825   -0.674815
     94          1           0       -9.513439   -5.152524   -0.248661
     95          1           0       -3.413025   -3.599645   -0.161857
     96          1           0       -1.927149   -4.480355    3.524396
     97          1           0       -3.139552   -5.510697    3.569302
     98          1           0       -1.615864   -6.282040    2.702426
     99          1           0        2.721691   -1.785625   -1.636520
    100          1           0        2.620295   -0.297828   -2.036871
    101          1           0        4.286312   -1.041945    0.337418
    102          1           0        3.985588    1.432335   -2.438667
    103          1           0        5.655940    2.016619   -1.972586
    104          1           0        5.605280    0.624509   -3.148950
    105          1           0        6.570446    1.475939    0.102269
    106          1           0        6.483609   -0.185010    0.684388
    107          1           0        7.261800   -1.262091   -1.274916
    108          1           0        7.934304    0.324251   -1.847344
    109          1           0        9.130582    0.854078   -0.014448
    110          1           0        8.852393   -0.762743    0.781374
    111          1           0       10.196949   -0.124775   -1.879213
    112          1           0        9.003156   -2.263756   -1.743188
    113          1           0       11.011928   -2.221939   -2.043197
    114          1           0       10.386491   -2.749692   -0.312721
    115          1           0       11.514257    0.776853    0.530157
    116          1           0       11.527128   -0.892351    0.835119
    117          1           0       12.968141   -1.408853   -1.066669
    118          1           0       13.035238    0.242953   -1.626676
    119          1           0       13.772338    0.937026    0.530724
    120          1           0       13.886173   -0.860971    1.055016
    121          1           0       15.138339    0.377854   -1.270464
    122          1           0       15.796285   -2.327274    0.033921
    123          1           0       15.275453   -2.214345   -1.643533
    124          1           0       16.710716   -1.695949   -1.171796
    125          1           0       15.977611    1.592342    0.453585
    126          1           0       16.371341    0.035019    1.402133
    127          1           0       18.117904   -0.381208   -0.326206
    128          1           0       17.707194    1.328365   -1.118425
    129          1           0       18.256426    2.405909    0.920156
    130          1           0       18.529841    0.623037    1.634534
    131          1           0       20.667954    0.544097    0.111455
    132          1           0       19.641088    3.192230   -1.105792
    133          1           0       21.292794    2.152393   -1.726790
    134          1           0       19.752610    1.590663   -1.801616
    135          1           0       21.186992    1.587392    2.212256
    136          1           0       22.050997    2.264672    0.886870
    137          1           0       20.821489    3.189737    1.461951
 ---------------------------------------------------------------------

 SCF Done:  E(RCAM-B3LYP) =  -2933.52453732     A.U. after   16 cycles

 Excitation energies and oscillator strengths:

 Excited State   1:      Singlet-A      2.0432 eV  606.81 nm  f=0.2927  <S**2>=0.000
     240 -> 242       -0.10629
     240 -> 243       -0.22633
     241 -> 242        0.65715
 This state for optimization and/or second-order correction.
 Total Energy, E(TD-HF/TD-DFT) =  -2933.44945022
 Copying the excited state density for this state as the 1-particle RhoCI density.

 The electronic state is 1-A.
 Alpha  occ. eigenvalues --  -46.80762 -19.22536 -19.20953 -19.16931 -19.16068
 Alpha  occ. eigenvalues --  -19.14224 -14.37383 -14.35772 -14.34967 -14.34763
 Alpha  occ. eigenvalues --  -10.34838 -10.33409 -10.30639 -10.27845 -10.26037
 Alpha  occ. eigenvalues --  -10.25705 -10.25655 -10.25616 -10.25083 -10.24785
 Alpha  occ. eigenvalues --  -10.24656 -10.24608 -10.24558 -10.23911 -10.23793
 Alpha  occ. eigenvalues --  -10.23643 -10.23501 -10.23438 -10.23278 -10.23263
 Alpha  occ. eigenvalues --  -10.22827 -10.22791 -10.22714 -10.22539 -10.22533
 Alpha  occ. eigenvalues --  -10.22207 -10.22019 -10.21921 -10.21900 -10.21891
 Alpha  occ. eigenvalues --  -10.21749 -10.21747 -10.21666 -10.21600 -10.21573
 Alpha  occ. eigenvalues --  -10.21510 -10.21506 -10.21376 -10.21237 -10.21186
 Alpha  occ. eigenvalues --  -10.21134 -10.21055 -10.20927 -10.20657 -10.20576
 Alpha  occ. eigenvalues --  -10.20573 -10.20483 -10.20407 -10.20352 -10.20295
 Alpha  occ. eigenvalues --  -10.20160 -10.19724 -10.19502 -10.19499 -10.19236
 Alpha  occ. eigenvalues --   -3.09270  -1.84217  -1.83719  -1.83696  -1.14353
 Alpha  occ. eigenvalues --   -1.10182  -1.04372  -1.01959  -1.00921  -1.00756
 Alpha  occ. eigenvalues --   -0.99800  -0.98993  -0.97928  -0.86848  -0.86263
 Alpha  occ. eigenvalues --   -0.85994  -0.85263  -0.84534  -0.84166  -0.84063
 Alpha  occ. eigenvalues --   -0.83652  -0.83063  -0.82839  -0.82358  -0.80854
 Alpha  occ. eigenvalues --   -0.80221  -0.79584  -0.79032  -0.78405  -0.77961
 Alpha  occ. eigenvalues --   -0.77166  -0.76495  -0.75831  -0.75004  -0.73781
 Alpha  occ. eigenvalues --   -0.73080  -0.72258  -0.71788  -0.71641  -0.71177
 Alpha  occ. eigenvalues --   -0.70540  -0.70403  -0.69185  -0.68847  -0.68525
 Alpha  occ. eigenvalues --   -0.67571  -0.66195  -0.64942  -0.64786  -0.64178
 Alpha  occ. eigenvalues --   -0.62906  -0.62016  -0.61051  -0.60797  -0.59995
 Alpha  occ. eigenvalues --   -0.59676  -0.59474  -0.58990  -0.58584  -0.57966
 Alpha  occ. eigenvalues --   -0.57128  -0.56951  -0.56357  -0.56070  -0.55498
 Alpha  occ. eigenvalues --   -0.54697  -0.54306  -0.53361  -0.52430  -0.52301
 Alpha  occ. eigenvalues --   -0.52169  -0.51966  -0.51441  -0.51131  -0.50974
 Alpha  occ. eigenvalues --   -0.50848  -0.50628  -0.50226  -0.49693  -0.49227
 Alpha  occ. eigenvalues --   -0.48928  -0.48649  -0.48408  -0.47986  -0.47960
 Alpha  occ. eigenvalues --   -0.47869  -0.47438  -0.47266  -0.47022  -0.46865
 Alpha  occ. eigenvalues --   -0.46737  -0.46662  -0.46151  -0.46072  -0.45904
 Alpha  occ. eigenvalues --   -0.45641  -0.45489  -0.45019  -0.44924  -0.44718
 Alpha  occ. eigenvalues --   -0.44612  -0.44352  -0.44130  -0.43867  -0.43639
 Alpha  occ. eigenvalues --   -0.43308  -0.43190  -0.43134  -0.42671  -0.42486
 Alpha  occ. eigenvalues --   -0.42227  -0.42074  -0.41933  -0.41717  -0.41447
 Alpha  occ. eigenvalues --   -0.41300  -0.41125  -0.40702  -0.40666  -0.40592
 Alpha  occ. eigenvalues --   -0.40299  -0.40172  -0.39998  -0.39697  -0.39512
 Alpha  occ. eigenvalues --   -0.39325  -0.39231  -0.39174  -0.39081  -0.38977
 Alpha  occ. eigenvalues --   -0.38468  -0.38408  -0.38346  -0.38269  -0.38080
 Alpha  occ. eigenvalues --   -0.37678  -0.37550  -0.37238  -0.37118  -0.37028
 Alpha  occ. eigenvalues --   -0.36854  -0.36567  -0.36355  -0.36234  -0.35859
 Alpha  occ. eigenvalues --   -0.35518  -0.35430  -0.35179  -0.34646  -0.34562
 Alpha  occ. eigenvalues --   -0.34211  -0.34122  -0.33977  -0.33971  -0.33514
 Alpha  occ. eigenvalues --   -0.33492  -0.33197  -0.32877  -0.32592  -0.32379
 Alpha  occ. eigenvalues --   -0.32203  -0.31992  -0.31692  -0.30252  -0.30040
 Alpha  occ. eigenvalues --   -0.29993  -0.29310  -0.29202  -0.28393  -0.27817
 Alpha  occ. eigenvalues --   -0.27015  -0.26531  -0.26363  -0.25403  -0.21248
 Alpha  occ. eigenvalues --   -0.20073
 Alpha virt. eigenvalues --   -0.07234  -0.03134  -0.00177   0.02865   0.03745
 Alpha virt. eigenvalues --    0.04492   0.04526   0.04893   0.05394   0.06208
 Alpha virt. eigenvalues --    0.06466   0.09139   0.09332   0.09616   0.09663

 Mulliken charges:
               1
     1  Mg   0.826157
     2  C    0.022615
     3  C   -0.148347
     4  C   -0.159393
     5  C   -0.158421
     6  N   -0.646334
     7  C    0.345434
     8  C   -0.164879
     9  C   -0.153200
    10  C    0.315944
    11  C   -0.303905
    12  C   -0.179191
    13  C   -0.267140
    14  C    0.609848
    15  O   -0.483103
    16  O   -0.506836
    17  N   -0.708190
    18  C    0.347897
    19  C    0.010500
    20  C   -0.003766
    21  C    0.265079
    22  C   -0.370477
    23  C   -0.063889
    24  C   -0.209265
    25  N   -0.648541
    26  C    0.301433
    27  C    0.050137
    28  C    0.005995
    29  C    0.257158
    30  C   -0.407403
    31  C   -0.235421
    32  C   -0.296262
    33  N   -0.710968
    34  C    0.272676
    35  C   -0.022151
    36  C    0.104029
    37  C    0.282958
    38  C   -0.392586
    39  C    0.358138
    40  O   -0.478249
    41  C   -0.294555
    42  C    0.577296
    43  O   -0.532600
    44  O   -0.407638
    45  C   -0.098510
    46  C    0.023398
    47  C   -0.139101
    48  C    0.176546
    49  C   -0.373088
    50  C   -0.225976
    51  C   -0.195391
    52  C   -0.170712
    53  C   -0.066091
    54  C   -0.283842
    55  C   -0.163472
    56  C   -0.164910
    57  C   -0.172738
    58  C   -0.029510
    59  C   -0.333023
    60  C   -0.179895
    61  C   -0.179053
    62  C   -0.160372
    63  C   -0.046824
    64  C   -0.300017
    65  C   -0.315213
    66  H    0.030764
    67  H    0.097604
    68  H    0.073204
    69  H    0.133211
    70  H    0.106975
    71  H    0.102762
    72  H    0.125623
    73  H    0.127432
    74  H    0.132643
    75  H    0.113014
    76  H    0.155460
    77  H    0.128064
    78  H    0.116362
    79  H    0.098783
    80  H    0.108420
    81  H    0.089620
    82  H    0.083044
    83  H    0.107756
    84  H    0.140106
    85  H    0.101805
    86  H    0.133712
    87  H    0.107097
    88  H    0.103306
    89  H    0.103386
    90  H    0.056065
    91  H    0.132215
    92  H    0.121044
    93  H    0.143564
    94  H    0.120525
    95  H    0.149245
    96  H    0.140064
    97  H    0.157629
    98  H    0.138418
    99  H    0.135084
   100  H    0.121238
   101  H    0.081251
   102  H    0.110732
   103  H    0.102542
   104  H    0.095150
   105  H    0.088138
   106  H    0.101039
   107  H    0.099381
   108  H    0.089040
   109  H    0.103099
   110  H    0.096286
   111  H    0.081707
   112  H    0.084010
   113  H    0.096390
   114  H    0.102131
   115  H    0.063736
   116  H    0.085308
   117  H    0.100628
   118  H    0.061380
   119  H    0.073020
   120  H    0.078341
   121  H    0.087066
   122  H    0.093691
   123  H    0.105329
   124  H    0.110662
   125  H    0.078879
   126  H    0.091272
   127  H    0.103672
   128  H    0.093200
   129  H    0.060937
   130  H    0.083619
   131  H    0.077105
   132  H    0.097419
   133  H    0.057086
   134  H    0.132286
   135  H    0.107753
   136  H    0.092624
   137  H    0.096066
 Sum of Mulliken charges =  -0.00000

 Dipole moment (field-independent basis, Debye):
    X=              1.5160    Y=              3.2627    Z=              0.6453  Tot=              3.6551
 Quadrupole moment (field-independent basis, Debye-Ang):
   XX=           -341.1902   YY=           -393.9947   ZZ=           -395.4590
   XY=            -31.1120   XZ=              5.8023   YZ=             -7.5919

 Normal termination of Gaussian 16 at Fri Sep 13 16:40:51 2019.
