 Gaussian 09, Revision D.01,
 Gaussian 09:  ES64L-G09RevD.01 24-Apr-2013

 -------------------------------------
 # td=(NStates=1) CAM-B3LYP/6-31G(d,p)
 -------------------------------------

 --
 TD
 --
 Symbolic Z-matrix:
 Charge =  0 Multiplicity = 1

                         Standard orientation:
 ---------------------------------------------------------------------
 Center     Atomic      Atomic             Coordinates (Angstroms)
 Number     Number       Type             X           Y           Z
 ---------------------------------------------------------------------
      1         12           0       -7.177121    0.635959    0.154800
      2          6           0       -4.911731   -1.915845    0.454593
      3          6           0       -4.876174    2.782990    1.146873
      4          6           0       -9.504093    3.039446   -0.379852
      5          6           0       -9.586438   -1.705411   -0.828761
      6          7           0       -5.144208    0.379730    0.715830
      7          6           0       -4.315904   -0.733678    0.695201
      8          6           0       -2.980730   -0.380329    1.165982
      9          6           0       -3.088285    1.050571    1.596427
     10          6           0       -4.434728    1.504133    1.127891
     11          6           0       -2.870329    1.350318    3.062089
     12          6           0       -1.913977   -0.673377    0.131356
     13          6           0       -0.489065   -0.335699    0.617425
     14          6           0        0.497476   -0.649526   -0.519717
     15          8           0        0.279604   -1.198497   -1.582760
     16          8           0        1.825580   -0.280816   -0.080153
     17          7           0       -7.184680    2.605421    0.412419
     18          6           0       -6.083158    3.359479    0.783227
     19          6           0       -6.439282    4.854828    0.744468
     20          6           0       -7.742398    4.823623    0.197869
     21          6           0       -8.254210    3.468586    0.074378
     22          6           0       -5.571722    5.956346    1.090244
     23          6           0       -8.525090    6.047210   -0.093595
     24          6           0       -8.327866    7.244455    0.485558
     25          7           0       -9.091722    0.577356   -0.521291
     26          6           0       -9.940495    1.724236   -0.595869
     27          6           0      -11.282313    1.481213   -1.105975
     28          6           0      -11.381546    0.050206   -1.177939
     29          6           0      -10.063617   -0.449224   -0.916012
     30          6           0      -12.453463    2.400876   -1.336143
     31          6           0      -12.392716   -0.879013   -1.731832
     32          6           0      -12.361313   -1.246559   -3.265260
     33          7           0       -7.202247   -1.412057   -0.133860
     34          6           0       -8.308104   -2.282409   -0.474111
     35          6           0       -7.838441   -3.630640   -0.417531
     36          6           0       -6.495232   -3.546632   -0.083952
     37          6           0       -6.197930   -2.186000    0.154389
     38          6           0       -8.665709   -4.818068   -0.776751
     39          6           0       -5.289311   -4.349732    0.166927
     40          8           0       -5.138303   -5.551119    0.137154
     41          6           0       -4.167349   -3.208196    0.534439
     42          6           0       -3.647820   -3.608317    1.790964
     43          8           0       -3.804118   -3.016112    2.837285
     44          8           0       -2.798807   -4.592798    1.663473
     45          6           0       -2.147184   -5.111299    2.866056
     46          6           0        2.945007   -0.563873   -1.094113
     47          6           0        4.280917   -0.389353   -0.487902
     48          6           0        5.209849    0.464926   -0.819584
     49          6           0        5.058517    1.361556   -2.046336
     50          6           0        6.464379    0.276143   -0.042535
     51          6           0        7.640181   -0.232818   -0.897991
     52          6           0        8.924344   -0.171186   -0.045046
     53          6           0       10.202782   -0.696871   -0.813019
     54          6           0       10.069161   -2.110773   -1.231983
     55          6           0       11.517099   -0.337531   -0.052104
     56          6           0       12.860719   -0.498238   -0.807849
     57          6           0       14.024273   -0.165020    0.161086
     58          6           0       15.387529   -0.240780   -0.369101
     59          6           0       15.822149   -1.605418   -1.035720
     60          6           0       16.463074    0.338202    0.552773
     61          6           0       17.768737    0.682393   -0.279127
     62          6           0       18.784460    1.390997    0.699847
     63          6           0       20.277355    1.305232    0.246128
     64          6           0       20.479723    2.054118   -1.173384
     65          6           0       21.179104    1.911466    1.300704
     66          1           0       -4.126747    3.515949    1.383660
     67          1           0      -10.118773    3.742180   -0.367968
     68          1           0      -10.590738   -2.246669   -0.852790
     69          1           0       -2.766810   -1.296834    2.047087
     70          1           0       -2.174107    1.509260    1.125137
     71          1           0       -1.814030    1.083550    3.468604
     72          1           0       -3.213605    2.505808    2.980696
     73          1           0       -3.440648    0.768518    3.657213
     74          1           0       -1.905105   -1.687090   -0.214208
     75          1           0       -2.313079   -0.026344   -0.732431
     76          1           0       -0.392117    0.536456    0.989677
     77          1           0       -0.279451   -0.959995    1.546391
     78          1           0       -5.976666    6.652162    0.468461
     79          1           0       -5.461856    6.177651    2.339677
     80          1           0       -4.522759    5.593182    1.059026
     81          1           0       -9.173564    6.125658   -1.003189
     82          1           0       -9.033681    8.046178    0.160854
     83          1           0       -7.750693    7.225044    1.352950
     84          1           0      -12.374777    3.105800   -2.243748
     85          1           0      -13.368901    1.638645   -1.239557
     86          1           0      -12.313911    3.075801   -0.406852
     87          1           0      -12.202176   -1.896013   -1.209824
     88          1           0      -13.478154   -0.387048   -1.470268
     89          1           0      -13.063388   -1.880553   -3.450531
     90          1           0      -12.454199   -0.235663   -3.758707
     91          1           0      -11.232970   -1.653952   -3.526127
     92          1           0       -8.952781   -4.834002   -1.707370
     93          1           0       -7.998737   -5.638041   -0.725055
     94          1           0       -9.400547   -4.793041   -0.075228
     95          1           0       -3.320727   -3.385396   -0.374080
     96          1           0       -1.524134   -4.366057    3.100788
     97          1           0       -2.916570   -5.236313    3.752659
     98          1           0       -1.668663   -5.843246    2.315936
     99          1           0        2.810499   -1.517203   -1.547000
    100          1           0        2.946725    0.388678   -1.728469
    101          1           0        4.424980   -0.977976    0.425144
    102          1           0        4.106793    1.450532   -2.398376
    103          1           0        5.327772    2.370046   -1.826417
    104          1           0        5.807598    0.987748   -2.840464
    105          1           0        7.238648    1.375765    0.452089
    106          1           0        6.476088   -0.449776    0.708249
    107          1           0        7.667339   -1.431536   -1.071502
    108          1           0        7.858706    0.216347   -1.824605
    109          1           0        9.047115    0.912261    0.161046
    110          1           0        8.793627   -0.867101    0.823832
    111          1           0       10.222777   -0.090084   -1.833782
    112          1           0        9.368827   -2.238184   -1.811818
    113          1           0       10.954677   -2.561819   -1.806579
    114          1           0        9.865207   -2.931328   -0.407598
    115          1           0       11.364943    0.647515    0.156024
    116          1           0       11.558942   -0.947366    0.923603
    117          1           0       13.044548   -1.525481   -1.221020
    118          1           0       12.955600    0.062900   -1.793667
    119          1           0       14.090015    0.856413    0.499237
    120          1           0       14.065266   -0.779407    1.116144
    121          1           0       15.349023    0.412192   -1.245567
    122          1           0       15.775811   -2.327490   -0.290704
    123          1           0       15.182431   -2.083644   -1.925714
    124          1           0       16.733134   -1.422228   -1.601330
    125          1           0       16.160212    1.298909    1.141106
    126          1           0       16.851518   -0.351585    1.257015
    127          1           0       18.150967   -0.155119   -0.739855
    128          1           0       17.683265    1.322906   -1.170538
    129          1           0       18.529580    2.371566    0.453533
    130          1           0       18.669646    0.778429    1.519973
    131          1           0       20.476732    0.292782    0.077532
    132          1           0       20.104735    2.949390   -0.923308
    133          1           0       21.353999    2.261259   -1.703350
    134          1           0       19.731708    1.597284   -1.859297
    135          1           0       21.071162    1.504913    2.407293
    136          1           0       22.333925    1.821661    1.061986
    137          1           0       20.889651    3.061924    1.340186
 ---------------------------------------------------------------------

 SCF Done:  E(RCAM-B3LYP) =  -2932.54374321     A.U. after   15 cycles

 Excitation energies and oscillator strengths:

 Excited State   1:      Singlet-A      2.0649 eV  600.45 nm  f=0.2442  <S**2>=0.000
     240 -> 242       -0.14986
     240 -> 243        0.23352
     241 -> 242        0.63685
     241 -> 243        0.10501
 This state for optimization and/or second-order correction.
 Total Energy, E(TD-HF/TD-KS) =  -2932.46786108
 Copying the excited state density for this state as the 1-particle RhoCI density.

 The electronic state is 1-A.
 Alpha  occ. eigenvalues --  -46.83393 -19.25042 -19.24712 -19.22142 -19.20276
 Alpha  occ. eigenvalues --  -19.19210 -14.41196 -14.39780 -14.39502 -14.38282
 Alpha  occ. eigenvalues --  -10.40023 -10.37310 -10.34931 -10.31470 -10.31131
 Alpha  occ. eigenvalues --  -10.31047 -10.30416 -10.30086 -10.29740 -10.29318
 Alpha  occ. eigenvalues --  -10.29087 -10.28915 -10.28883 -10.28515 -10.28487
 Alpha  occ. eigenvalues --  -10.28399 -10.28097 -10.28037 -10.27847 -10.27784
 Alpha  occ. eigenvalues --  -10.27749 -10.27734 -10.27688 -10.27434 -10.27414
 Alpha  occ. eigenvalues --  -10.27391 -10.27319 -10.27237 -10.26972 -10.26752
 Alpha  occ. eigenvalues --  -10.26661 -10.26563 -10.26366 -10.26311 -10.26190
 Alpha  occ. eigenvalues --  -10.26097 -10.26026 -10.26000 -10.25893 -10.25777
 Alpha  occ. eigenvalues --  -10.25756 -10.25732 -10.25665 -10.25331 -10.25135
 Alpha  occ. eigenvalues --  -10.25050 -10.24917 -10.24667 -10.24411 -10.24138
 Alpha  occ. eigenvalues --  -10.24117 -10.23961 -10.23577 -10.23271 -10.22884
 Alpha  occ. eigenvalues --   -3.12522  -1.87221  -1.86772  -1.86703  -1.18593
 Alpha  occ. eigenvalues --   -1.14792  -1.10846  -1.08225  -1.06915  -1.04084
 Alpha  occ. eigenvalues --   -1.02721  -1.01916  -0.99926  -0.92638  -0.92304
 Alpha  occ. eigenvalues --   -0.90716  -0.90599  -0.89841  -0.89548  -0.89541
 Alpha  occ. eigenvalues --   -0.88383  -0.88313  -0.87910  -0.87506  -0.86188
 Alpha  occ. eigenvalues --   -0.85275  -0.84706  -0.84091  -0.83333  -0.83065
 Alpha  occ. eigenvalues --   -0.82215  -0.81566  -0.80782  -0.80305  -0.79315
 Alpha  occ. eigenvalues --   -0.78448  -0.77626  -0.77503  -0.76459  -0.76051
 Alpha  occ. eigenvalues --   -0.75683  -0.75490  -0.74463  -0.73155  -0.72496
 Alpha  occ. eigenvalues --   -0.71721  -0.70906  -0.69669  -0.69032  -0.67722
 Alpha  occ. eigenvalues --   -0.66589  -0.66503  -0.66174  -0.64748  -0.64178
 Alpha  occ. eigenvalues --   -0.63510  -0.63441  -0.62893  -0.62573  -0.61845
 Alpha  occ. eigenvalues --   -0.61743  -0.60618  -0.60160  -0.59999  -0.59211
 Alpha  occ. eigenvalues --   -0.58836  -0.58038  -0.57765  -0.57155  -0.56831
 Alpha  occ. eigenvalues --   -0.56260  -0.56034  -0.55914  -0.55420  -0.55020
 Alpha  occ. eigenvalues --   -0.54932  -0.54651  -0.54009  -0.53362  -0.53171
 Alpha  occ. eigenvalues --   -0.53034  -0.52728  -0.52234  -0.52204  -0.51895
 Alpha  occ. eigenvalues --   -0.51506  -0.51336  -0.51287  -0.50674  -0.50608
 Alpha  occ. eigenvalues --   -0.50284  -0.50033  -0.49931  -0.49704  -0.49516
 Alpha  occ. eigenvalues --   -0.49257  -0.49205  -0.48984  -0.48684  -0.48583
 Alpha  occ. eigenvalues --   -0.48301  -0.48035  -0.47946  -0.47584  -0.47420
 Alpha  occ. eigenvalues --   -0.47127  -0.47014  -0.46760  -0.46585  -0.46242
 Alpha  occ. eigenvalues --   -0.45894  -0.45400  -0.45311  -0.45146  -0.45043
 Alpha  occ. eigenvalues --   -0.44856  -0.44750  -0.44603  -0.44477  -0.44254
 Alpha  occ. eigenvalues --   -0.43904  -0.43615  -0.43440  -0.43293  -0.43113
 Alpha  occ. eigenvalues --   -0.43085  -0.42811  -0.42699  -0.42355  -0.42091
 Alpha  occ. eigenvalues --   -0.41935  -0.41704  -0.41602  -0.41265  -0.41123
 Alpha  occ. eigenvalues --   -0.41074  -0.41027  -0.40680  -0.40509  -0.40285
 Alpha  occ. eigenvalues --   -0.40282  -0.39801  -0.39591  -0.39421  -0.39230
 Alpha  occ. eigenvalues --   -0.38817  -0.38655  -0.38363  -0.38038  -0.37932
 Alpha  occ. eigenvalues --   -0.37732  -0.37069  -0.37045  -0.36802  -0.36676
 Alpha  occ. eigenvalues --   -0.36356  -0.36048  -0.35737  -0.35383  -0.35299
 Alpha  occ. eigenvalues --   -0.34969  -0.34743  -0.34613  -0.34333  -0.33589
 Alpha  occ. eigenvalues --   -0.33435  -0.32713  -0.31706  -0.31144  -0.30241
 Alpha  occ. eigenvalues --   -0.29175  -0.29016  -0.27942  -0.27418  -0.23173
 Alpha  occ. eigenvalues --   -0.21369
 Alpha virt. eigenvalues --   -0.06682  -0.03154   0.01753   0.03719   0.04860
 Alpha virt. eigenvalues --    0.05261   0.05641   0.06429   0.06903   0.07106
 Alpha virt. eigenvalues --    0.08399   0.10227   0.10819   0.10961   0.11184

 Mulliken charges:
               1
     1  Mg   0.798793
     2  C    0.082396
     3  C   -0.213774
     4  C   -0.123750
     5  C   -0.173387
     6  N   -0.670594
     7  C    0.341244
     8  C   -0.171997
     9  C   -0.164500
    10  C    0.377346
    11  C   -0.273146
    12  C   -0.172195
    13  C   -0.252069
    14  C    0.619206
    15  O   -0.454395
    16  O   -0.542757
    17  N   -0.739954
    18  C    0.318681
    19  C    0.054263
    20  C   -0.027064
    21  C    0.308176
    22  C   -0.368637
    23  C   -0.095318
    24  C   -0.253973
    25  N   -0.664495
    26  C    0.297424
    27  C    0.020285
    28  C    0.058809
    29  C    0.251622
    30  C   -0.361350
    31  C   -0.256866
    32  C   -0.274671
    33  N   -0.711904
    34  C    0.234827
    35  C   -0.027020
    36  C    0.008648
    37  C    0.354962
    38  C   -0.340218
    39  C    0.351505
    40  O   -0.453281
    41  C   -0.379001
    42  C    0.644163
    43  O   -0.505827
    44  O   -0.455742
    45  C   -0.079473
    46  C    0.032869
    47  C   -0.145269
    48  C    0.153526
    49  C   -0.374094
    50  C   -0.185104
    51  C   -0.181314
    52  C   -0.179627
    53  C   -0.072993
    54  C   -0.293325
    55  C   -0.147041
    56  C   -0.189115
    57  C   -0.157044
    58  C   -0.067617
    59  C   -0.319743
    60  C   -0.187452
    61  C   -0.217599
    62  C   -0.166459
    63  C   -0.072980
    64  C   -0.334193
    65  C   -0.281054
    66  H    0.074811
    67  H    0.050666
    68  H    0.064805
    69  H    0.111546
    70  H    0.104893
    71  H    0.093686
    72  H    0.084034
    73  H    0.139879
    74  H    0.126756
    75  H    0.101521
    76  H    0.138419
    77  H    0.134987
    78  H    0.140908
    79  H    0.098058
    80  H    0.122122
    81  H    0.096999
    82  H    0.105991
    83  H    0.119051
    84  H    0.127986
    85  H    0.111631
    86  H    0.118798
    87  H    0.102401
    88  H    0.078290
    89  H    0.127495
    90  H    0.109411
    91  H    0.094715
    92  H    0.134084
    93  H    0.139546
    94  H    0.131445
    95  H    0.152242
    96  H    0.134553
    97  H    0.139134
    98  H    0.143405
    99  H    0.143414
   100  H    0.100966
   101  H    0.090713
   102  H    0.128587
   103  H    0.126321
   104  H    0.119684
   105  H    0.020490
   106  H    0.120227
   107  H    0.075379
   108  H    0.102313
   109  H    0.089213
   110  H    0.094072
   111  H    0.058601
   112  H    0.118671
   113  H    0.088328
   114  H    0.072843
   115  H    0.102693
   116  H    0.083352
   117  H    0.096640
   118  H    0.084897
   119  H    0.092881
   120  H    0.073706
   121  H    0.083699
   122  H    0.110461
   123  H    0.077130
   124  H    0.108421
   125  H    0.088385
   126  H    0.102394
   127  H    0.102188
   128  H    0.085039
   129  H    0.110347
   130  H    0.104614
   131  H    0.092347
   132  H    0.109609
   133  H    0.110705
   134  H    0.093891
   135  H    0.085073
   136  H    0.087932
   137  H    0.080141
 Sum of Mulliken charges =   0.00000

 Dipole moment (field-independent basis, Debye):
    X=              0.6198    Y=              4.6304    Z=             -0.4860  Tot=              4.6969
 Quadrupole moment (field-independent basis, Debye-Ang):
   XX=           -342.6190   YY=           -392.5280   ZZ=           -396.6991
   XY=            -29.4724   XZ=              7.3366   YZ=             -5.2224

 Normal termination of Gaussian 09 at Fri Jul  5 22:34:43 2019.
