 Gaussian 09, Revision D.01,
 Gaussian 09:  ES64L-G09RevD.01 24-Apr-2013

 -------------------------------------
 # td=(NStates=1) CAM-B3LYP/6-31G(d,p)
 -------------------------------------

 --
 TD
 --
 Symbolic Z-matrix:
 Charge =  0 Multiplicity = 1

                         Standard orientation:
 ---------------------------------------------------------------------
 Center     Atomic      Atomic             Coordinates (Angstroms)
 Number     Number       Type             X           Y           Z
 ---------------------------------------------------------------------
      1         12           0       -7.174442    0.636282    0.193390
      2          6           0       -4.810155   -1.910880    0.493323
      3          6           0       -4.787224    2.874876    1.010935
      4          6           0       -9.435941    3.120361   -0.431388
      5          6           0       -9.479185   -1.872577   -0.964819
      6          7           0       -5.155424    0.495559    0.763242
      7          6           0       -4.382948   -0.637715    0.930830
      8          6           0       -2.915931   -0.299706    1.216749
      9          6           0       -3.067563    1.144941    1.569268
     10          6           0       -4.439512    1.578499    0.970400
     11          6           0       -2.999444    1.333179    3.156061
     12          6           0       -1.936148   -0.636782    0.116883
     13          6           0       -0.437286   -0.512468    0.661229
     14          6           0        0.450494   -0.707381   -0.620493
     15          8           0        0.099321   -1.041084   -1.759900
     16          8           0        1.794383   -0.468855   -0.221072
     17          7           0       -7.137446    2.657693    0.269471
     18          6           0       -6.057820    3.421506    0.688387
     19          6           0       -6.492580    4.858448    0.792936
     20          6           0       -7.772155    4.879755    0.306727
     21          6           0       -8.216440    3.522076   -0.034177
     22          6           0       -5.576991    5.857934    1.198902
     23          6           0       -8.554174    6.070778    0.035841
     24          6           0       -8.463707    7.174139    0.826374
     25          7           0       -9.088290    0.686265   -0.588581
     26          6           0       -9.851673    1.796902   -0.636543
     27          6           0      -11.254302    1.426296   -0.988194
     28          6           0      -11.237111    0.101252   -1.250508
     29          6           0       -9.937088   -0.433630   -0.966914
     30          6           0      -12.314890    2.469178   -1.335601
     31          6           0      -12.309057   -0.810713   -1.762767
     32          6           0      -12.168710   -1.247365   -3.205037
     33          7           0       -7.240745   -1.345366   -0.225445
     34          6           0       -8.203190   -2.189906   -0.658871
     35          6           0       -7.790080   -3.567992   -0.551184
     36          6           0       -6.551353   -3.592701   -0.029124
     37          6           0       -6.172083   -2.127580    0.166332
     38          6           0       -8.667607   -4.726566   -0.781479
     39          6           0       -5.351982   -4.395264    0.247072
     40          8           0       -5.127099   -5.599088    0.290354
     41          6           0       -4.159381   -3.197466    0.538497
     42          6           0       -3.492758   -3.656144    1.842265
     43          8           0       -3.825301   -3.152263    2.916486
     44          8           0       -2.670174   -4.729871    1.852703
     45          6           0       -2.118987   -5.019900    3.136960
     46          6           0        2.827878   -0.758662   -1.240663
     47          6           0        4.177858   -0.472352   -0.538963
     48          6           0        5.113718    0.219497   -1.055253
     49          6           0        5.227529    0.979327   -2.284026
     50          6           0        6.503803    0.283376   -0.145671
     51          6           0        7.678774   -0.332800   -0.877186
     52          6           0        8.951864   -0.213825   -0.021028
     53          6           0       10.194924   -0.603775   -0.817512
     54          6           0       10.160846   -2.111878   -1.273411
     55          6           0       11.407121   -0.339282    0.067287
     56          6           0       12.757836   -0.617005   -0.654740
     57          6           0       13.952319   -0.182881    0.245248
     58          6           0       15.352040   -0.159031   -0.457194
     59          6           0       15.635380   -1.602647   -0.850824
     60          6           0       16.414437    0.427251    0.491359
     61          6           0       17.765876    0.610445   -0.243780
     62          6           0       18.792090    1.365544    0.642329
     63          6           0       20.301406    1.483718    0.100497
     64          6           0       20.292960    2.325702   -1.130195
     65          6           0       21.092512    2.061579    1.311403
     66          1           0       -4.057123    3.711950    1.229692
     67          1           0      -10.253030    3.828087   -0.451971
     68          1           0      -10.348476   -2.587348   -1.262844
     69          1           0       -2.728001   -1.021460    2.058208
     70          1           0       -2.214014    1.658814    1.103001
     71          1           0       -2.183886    0.917411    3.449812
     72          1           0       -3.045942    2.283735    3.204466
     73          1           0       -3.818825    0.733869    3.632512
     74          1           0       -1.909777   -1.637085   -0.470056
     75          1           0       -1.825255   -0.014595   -0.736199
     76          1           0       -0.372037    0.564764    1.066316
     77          1           0       -0.266973   -1.246528    1.335949
     78          1           0       -5.928631    6.937386    0.871831
     79          1           0       -5.539642    6.199743    2.195084
     80          1           0       -4.637674    5.351190    0.803923
     81          1           0       -9.284753    6.092834   -0.872309
     82          1           0       -8.786194    7.987971    0.515345
     83          1           0       -7.793531    7.027942    1.697365
     84          1           0      -12.264219    3.151146   -2.468009
     85          1           0      -13.201447    1.906362   -1.414690
     86          1           0      -12.295722    3.279352   -0.587634
     87          1           0      -12.365595   -1.725896   -1.157826
     88          1           0      -13.209035   -0.307037   -1.434556
     89          1           0      -13.090575   -1.952140   -3.430534
     90          1           0      -12.234952   -0.550877   -3.914401
     91          1           0      -11.269035   -1.702578   -3.538089
     92          1           0       -9.231927   -4.875458   -1.797537
     93          1           0       -8.086292   -5.673027   -0.598067
     94          1           0       -9.509260   -4.800265   -0.292670
     95          1           0       -3.335971   -3.408112   -0.355340
     96          1           0       -1.113538   -4.321520    3.227319
     97          1           0       -2.715361   -5.196228    4.035081
     98          1           0       -1.833179   -6.083399    2.835772
     99          1           0        2.756990   -1.821363   -1.644157
    100          1           0        2.720776    0.011709   -1.925112
    101          1           0        4.420933   -0.887629    0.325027
    102          1           0        4.346079    0.836974   -3.170849
    103          1           0        5.497179    2.073310   -2.073039
    104          1           0        6.061961    0.711872   -2.833909
    105          1           0        6.655856    1.380696   -0.036078
    106          1           0        6.406386   -0.250329    0.706097
    107          1           0        7.454236   -1.453166   -0.986648
    108          1           0        7.915990    0.163677   -1.774151
    109          1           0        9.045873    0.833850    0.210579
    110          1           0        8.833970   -0.723837    0.933942
    111          1           0       10.311554    0.087695   -1.885438
    112          1           0        9.418026   -2.674691   -2.037166
    113          1           0       11.229443   -2.520514   -1.890206
    114          1           0       10.141862   -2.750925   -0.282678
    115          1           0       11.346064    0.686536    0.409477
    116          1           0       11.262404   -1.042310    1.018136
    117          1           0       12.962962   -1.765948   -0.746392
    118          1           0       12.874192   -0.313050   -1.561164
    119          1           0       13.691771    0.904085    0.466214
    120          1           0       14.110421   -0.687935    1.156287
    121          1           0       15.377722    0.300563   -1.327717
    122          1           0       15.635431   -2.229253   -0.091604
    123          1           0       14.970590   -1.968499   -1.577603
    124          1           0       16.412541   -1.546240   -1.586171
    125          1           0       16.184854    1.511516    1.162150
    126          1           0       16.576086   -0.247859    1.406455
    127          1           0       18.377479   -0.176356   -0.512570
    128          1           0       17.451894    1.222095   -1.153794
    129          1           0       18.185101    2.317398    0.730339
    130          1           0       18.917725    0.998553    1.688752
    131          1           0       20.729394    0.465646   -0.179132
    132          1           0       20.065670    3.287727   -0.858620
    133          1           0       21.404577    2.240361   -1.601200
    134          1           0       19.660589    2.058079   -1.990490
    135          1           0       21.239973    1.372771    2.170382
    136          1           0       21.899440    2.304051    0.908409
    137          1           0       20.596218    2.898466    1.735367
 ---------------------------------------------------------------------

 SCF Done:  E(RCAM-B3LYP) =  -2932.56779643     A.U. after   16 cycles

 Excitation energies and oscillator strengths:

 Excited State   1:      Singlet-A      2.0593 eV  602.07 nm  f=0.2158  <S**2>=0.000
     240 -> 243        0.26811
     241 -> 242        0.64764
 This state for optimization and/or second-order correction.
 Total Energy, E(TD-HF/TD-KS) =  -2932.49211868
 Copying the excited state density for this state as the 1-particle RhoCI density.

 The electronic state is 1-A.
 Alpha  occ. eigenvalues --  -46.83992 -19.26368 -19.25528 -19.22539 -19.21811
 Alpha  occ. eigenvalues --  -19.19747 -14.41935 -14.40139 -14.39745 -14.39117
 Alpha  occ. eigenvalues --  -10.40433 -10.38863 -10.36887 -10.32451 -10.31599
 Alpha  occ. eigenvalues --  -10.31582 -10.30815 -10.30793 -10.30577 -10.30109
 Alpha  occ. eigenvalues --  -10.29046 -10.28975 -10.28804 -10.28701 -10.28466
 Alpha  occ. eigenvalues --  -10.28449 -10.28271 -10.28156 -10.28063 -10.27846
 Alpha  occ. eigenvalues --  -10.27457 -10.27288 -10.27269 -10.27166 -10.27102
 Alpha  occ. eigenvalues --  -10.27090 -10.27070 -10.26872 -10.26648 -10.26581
 Alpha  occ. eigenvalues --  -10.26562 -10.26536 -10.26485 -10.26362 -10.26248
 Alpha  occ. eigenvalues --  -10.26178 -10.25972 -10.25655 -10.25595 -10.25514
 Alpha  occ. eigenvalues --  -10.25142 -10.25125 -10.25031 -10.24913 -10.24795
 Alpha  occ. eigenvalues --  -10.24550 -10.24491 -10.24490 -10.24432 -10.24403
 Alpha  occ. eigenvalues --  -10.24350 -10.23921 -10.23593 -10.22667 -10.22189
 Alpha  occ. eigenvalues --   -3.13099  -1.87797  -1.87331  -1.87287  -1.17945
 Alpha  occ. eigenvalues --   -1.15180  -1.11232  -1.08204  -1.07627  -1.05332
 Alpha  occ. eigenvalues --   -1.03857  -1.02111  -1.00528  -0.92487  -0.91480
 Alpha  occ. eigenvalues --   -0.90448  -0.90311  -0.89809  -0.89398  -0.89253
 Alpha  occ. eigenvalues --   -0.88479  -0.88312  -0.88010  -0.86622  -0.85724
 Alpha  occ. eigenvalues --   -0.85174  -0.84575  -0.83474  -0.82978  -0.82835
 Alpha  occ. eigenvalues --   -0.81494  -0.80846  -0.80478  -0.79978  -0.78979
 Alpha  occ. eigenvalues --   -0.78539  -0.77056  -0.76912  -0.76299  -0.75964
 Alpha  occ. eigenvalues --   -0.75066  -0.74416  -0.73643  -0.73154  -0.72544
 Alpha  occ. eigenvalues --   -0.71739  -0.70893  -0.70277  -0.69141  -0.68523
 Alpha  occ. eigenvalues --   -0.67284  -0.66053  -0.65745  -0.65380  -0.65057
 Alpha  occ. eigenvalues --   -0.64093  -0.64060  -0.62658  -0.62570  -0.61706
 Alpha  occ. eigenvalues --   -0.61436  -0.60662  -0.60387  -0.59916  -0.59803
 Alpha  occ. eigenvalues --   -0.58585  -0.58238  -0.57803  -0.57146  -0.56322
 Alpha  occ. eigenvalues --   -0.55914  -0.55700  -0.55322  -0.55028  -0.54762
 Alpha  occ. eigenvalues --   -0.54511  -0.53764  -0.53439  -0.53239  -0.53132
 Alpha  occ. eigenvalues --   -0.52977  -0.52703  -0.52410  -0.52298  -0.52096
 Alpha  occ. eigenvalues --   -0.52000  -0.51963  -0.51441  -0.50912  -0.50605
 Alpha  occ. eigenvalues --   -0.50420  -0.50345  -0.50079  -0.49941  -0.49710
 Alpha  occ. eigenvalues --   -0.49499  -0.49184  -0.48718  -0.48682  -0.48329
 Alpha  occ. eigenvalues --   -0.48157  -0.48120  -0.47869  -0.47612  -0.47264
 Alpha  occ. eigenvalues --   -0.46950  -0.46649  -0.46612  -0.46304  -0.46139
 Alpha  occ. eigenvalues --   -0.45833  -0.45738  -0.45320  -0.45206  -0.45014
 Alpha  occ. eigenvalues --   -0.44853  -0.44609  -0.44428  -0.44417  -0.44338
 Alpha  occ. eigenvalues --   -0.44018  -0.43918  -0.43639  -0.43530  -0.43306
 Alpha  occ. eigenvalues --   -0.43168  -0.42825  -0.42723  -0.42593  -0.42166
 Alpha  occ. eigenvalues --   -0.42084  -0.41946  -0.41596  -0.41502  -0.41337
 Alpha  occ. eigenvalues --   -0.41004  -0.40981  -0.40858  -0.40414  -0.40214
 Alpha  occ. eigenvalues --   -0.40204  -0.39813  -0.39560  -0.39408  -0.39256
 Alpha  occ. eigenvalues --   -0.38921  -0.38530  -0.38261  -0.37934  -0.37640
 Alpha  occ. eigenvalues --   -0.37547  -0.37149  -0.36960  -0.36586  -0.36466
 Alpha  occ. eigenvalues --   -0.36354  -0.35828  -0.35794  -0.35353  -0.35009
 Alpha  occ. eigenvalues --   -0.34960  -0.34865  -0.34339  -0.33530  -0.33021
 Alpha  occ. eigenvalues --   -0.32894  -0.32257  -0.32021  -0.31242  -0.31018
 Alpha  occ. eigenvalues --   -0.30396  -0.30258  -0.27943  -0.27464  -0.23722
 Alpha  occ. eigenvalues --   -0.20802
 Alpha virt. eigenvalues --   -0.05800  -0.03791   0.00614   0.04021   0.04930
 Alpha virt. eigenvalues --    0.05348   0.05754   0.06510   0.07435   0.08226
 Alpha virt. eigenvalues --    0.08243   0.10427   0.11221   0.11345   0.11416

 Mulliken charges:
               1
     1  Mg   0.820068
     2  C    0.124069
     3  C   -0.205115
     4  C   -0.155755
     5  C   -0.166552
     6  N   -0.639123
     7  C    0.285463
     8  C   -0.146473
     9  C   -0.183802
    10  C    0.380650
    11  C   -0.275990
    12  C   -0.202773
    13  C   -0.257092
    14  C    0.601028
    15  O   -0.466042
    16  O   -0.512531
    17  N   -0.731211
    18  C    0.297688
    19  C    0.071155
    20  C   -0.009304
    21  C    0.319144
    22  C   -0.390579
    23  C   -0.093954
    24  C   -0.212941
    25  N   -0.684441
    26  C    0.306256
    27  C   -0.015537
    28  C    0.029234
    29  C    0.216983
    30  C   -0.331357
    31  C   -0.239845
    32  C   -0.307664
    33  N   -0.702437
    34  C    0.315805
    35  C    0.046476
    36  C    0.012953
    37  C    0.229930
    38  C   -0.393129
    39  C    0.378220
    40  O   -0.447582
    41  C   -0.354299
    42  C    0.619827
    43  O   -0.492786
    44  O   -0.442607
    45  C   -0.079072
    46  C    0.030419
    47  C   -0.133935
    48  C    0.149512
    49  C   -0.380663
    50  C   -0.224191
    51  C   -0.170874
    52  C   -0.176680
    53  C   -0.045937
    54  C   -0.287248
    55  C   -0.160889
    56  C   -0.166271
    57  C   -0.175320
    58  C   -0.067237
    59  C   -0.313383
    60  C   -0.152531
    61  C   -0.176676
    62  C   -0.182886
    63  C   -0.073485
    64  C   -0.292932
    65  C   -0.302751
    66  H    0.082710
    67  H    0.091373
    68  H    0.113983
    69  H    0.127196
    70  H    0.092705
    71  H    0.118811
    72  H    0.114962
    73  H    0.118492
    74  H    0.120104
    75  H    0.129196
    76  H    0.130185
    77  H    0.147383
    78  H    0.107110
    79  H    0.138690
    80  H    0.112532
    81  H    0.097418
    82  H    0.091108
    83  H    0.095025
    84  H    0.069083
    85  H    0.116771
    86  H    0.116901
    87  H    0.102901
    88  H    0.102063
    89  H    0.081402
    90  H    0.125093
    91  H    0.117022
    92  H    0.104533
    93  H    0.137608
    94  H    0.145602
    95  H    0.136135
    96  H    0.099869
    97  H    0.150958
    98  H    0.120877
    99  H    0.127486
   100  H    0.125818
   101  H    0.075636
   102  H    0.088863
   103  H    0.113477
   104  H    0.138770
   105  H    0.092707
   106  H    0.102642
   107  H    0.094006
   108  H    0.098900
   109  H    0.095178
   110  H    0.093775
   111  H    0.049677
   112  H    0.098314
   113  H    0.062085
   114  H    0.086227
   115  H    0.099717
   116  H    0.078361
   117  H    0.084754
   118  H    0.101858
   119  H    0.070032
   120  H    0.095313
   121  H    0.082806
   122  H    0.110667
   123  H    0.102750
   124  H    0.097408
   125  H    0.051492
   126  H    0.080500
   127  H    0.107584
   128  H    0.081932
   129  H    0.079275
   130  H    0.082639
   131  H    0.079185
   132  H    0.114026
   133  H    0.065315
   134  H    0.109820
   135  H    0.100660
   136  H    0.105683
   137  H    0.107866
 Sum of Mulliken charges =   0.00000

 Dipole moment (field-independent basis, Debye):
    X=              2.5092    Y=              3.8125    Z=              0.5232  Tot=              4.5940
 Quadrupole moment (field-independent basis, Debye-Ang):
   XX=           -349.7898   YY=           -391.9806   ZZ=           -395.3453
   XY=            -16.6461   XZ=              2.1295   YZ=              0.9044

 Normal termination of Gaussian 09 at Tue Jul  2 14:22:14 2019.
