 Gaussian 16, Revision A.03,
 Gaussian 16:  ES64L-G16RevA.03 25-Dec-2016

 ----------------------------------------------------------------------
 # td=(NStates=1) iop(3/107=0140000000,3/108=0140000000) CAM-B3LYP/6-31
 G(d,p)
 ----------------------------------------------------------------------

 --
 TD
 --
 Symbolic Z-matrix:
 Charge =  0 Multiplicity = 1

                         Standard orientation:
 ---------------------------------------------------------------------
 Center     Atomic      Atomic             Coordinates (Angstroms)
 Number     Number       Type             X           Y           Z
 ---------------------------------------------------------------------
      1         12           0       -7.122784    0.635357    0.018041
      2          6           0       -4.845610   -1.978261    0.499130
      3          6           0       -4.781913    2.822146    1.093928
      4          6           0       -9.508526    3.140764   -0.292237
      5          6           0       -9.627671   -1.717846   -0.763730
      6          7           0       -5.083435    0.537190    0.642511
      7          6           0       -4.318579   -0.722155    0.737626
      8          6           0       -2.877580   -0.429478    1.207922
      9          6           0       -3.017125    1.043254    1.592097
     10          6           0       -4.402431    1.493897    1.145433
     11          6           0       -2.888247    1.118577    3.109078
     12          6           0       -1.937917   -0.586981   -0.032680
     13          6           0       -0.531076   -0.514544    0.436843
     14          6           0        0.602896   -0.575451   -0.691249
     15          8           0        0.237570   -0.940630   -1.779087
     16          8           0        1.755896   -0.348129   -0.193176
     17          7           0       -7.074381    2.619005    0.281122
     18          6           0       -6.012030    3.356394    0.755094
     19          6           0       -6.351990    4.768960    0.825336
     20          6           0       -7.720914    4.856034    0.410085
     21          6           0       -8.147681    3.460381    0.105135
     22          6           0       -5.519292    5.917045    1.226312
     23          6           0       -8.701084    6.007813    0.290835
     24          6           0       -8.420933    7.241088    0.757766
     25          7           0       -9.035685    0.683769   -0.588409
     26          6           0       -9.888377    1.813796   -0.590919
     27          6           0      -11.172737    1.474504   -1.067811
     28          6           0      -11.210992    0.141547   -1.320596
     29          6           0       -9.988163   -0.347965   -0.884993
     30          6           0      -12.253933    2.397788   -1.459220
     31          6           0      -12.372554   -0.730937   -1.781238
     32          6           0      -12.173749   -1.080943   -3.289790
     33          7           0       -7.168912   -1.399429   -0.196550
     34          6           0       -8.278531   -2.281741   -0.552272
     35          6           0       -7.743318   -3.672707   -0.559886
     36          6           0       -6.525906   -3.640148   -0.176423
     37          6           0       -6.150596   -2.205753    0.086697
     38          6           0       -8.577924   -4.851826   -0.918951
     39          6           0       -5.355834   -4.408298    0.228313
     40          8           0       -5.208490   -5.584190    0.243545
     41          6           0       -4.129063   -3.287620    0.522334
     42          6           0       -3.571997   -3.671692    1.880608
     43          8           0       -3.908677   -3.092051    2.895851
     44          8           0       -2.733830   -4.697712    1.755996
     45          6           0       -2.234386   -5.191405    2.952565
     46          6           0        2.754438   -0.480485   -1.205048
     47          6           0        4.110493   -0.440544   -0.399911
     48          6           0        5.188003    0.316094   -0.817140
     49          6           0        5.327043    1.251651   -2.094322
     50          6           0        6.470476    0.331312   -0.033492
     51          6           0        7.631258   -0.280626   -0.821501
     52          6           0        8.854217   -0.253588    0.067115
     53          6           0       10.112672   -0.669003   -0.762477
     54          6           0       10.111410   -2.089032   -1.129522
     55          6           0       11.468380   -0.287181    0.114623
     56          6           0       12.731273   -0.547129   -0.596047
     57          6           0       14.060429   -0.021113    0.137015
     58          6           0       15.332180   -0.267609   -0.431965
     59          6           0       15.706213   -1.788031   -0.734014
     60          6           0       16.384157    0.358031    0.435922
     61          6           0       17.851132    0.400797   -0.215481
     62          6           0       18.798222    1.323160    0.558221
     63          6           0       20.185748    1.464030    0.067611
     64          6           0       20.208455    2.230720   -1.257931
     65          6           0       21.041007    2.192077    1.102291
     66          1           0       -3.814817    3.545193    1.655951
     67          1           0      -10.316050    3.954507   -0.489315
     68          1           0      -10.507784   -2.447036   -0.979823
     69          1           0       -2.545129   -1.033775    2.013066
     70          1           0       -2.237090    1.659692    1.237225
     71          1           0       -1.935696    0.696494    3.519143
     72          1           0       -3.004443    2.297436    3.225663
     73          1           0       -3.851902    0.512650    3.506562
     74          1           0       -2.048545   -1.502040   -0.482524
     75          1           0       -2.197573    0.358937   -0.696090
     76          1           0       -0.363716    0.347630    1.020548
     77          1           0       -0.223345   -1.179543    1.191238
     78          1           0       -5.534103    6.808364    0.454744
     79          1           0       -5.615558    6.608695    2.208078
     80          1           0       -4.514963    5.662989    1.061305
     81          1           0       -9.681735    5.959219   -0.290108
     82          1           0       -9.098270    8.106352    0.571763
     83          1           0       -7.488323    7.660556    1.318093
     84          1           0      -12.177676    2.853403   -2.415152
     85          1           0      -13.182072    1.765911   -1.774667
     86          1           0      -12.693445    3.149259   -0.699212
     87          1           0      -12.388303   -1.693995   -1.420655
     88          1           0      -13.385509   -0.199016   -1.636430
     89          1           0      -13.022128   -1.724116   -3.618993
     90          1           0      -12.321559   -0.307066   -4.080098
     91          1           0      -11.287100   -1.655820   -3.330207
     92          1           0       -8.925285   -4.945013   -1.799343
     93          1           0       -8.162175   -5.934071   -0.483426
     94          1           0       -9.362793   -4.862434   -0.158175
     95          1           0       -3.379035   -3.465767   -0.043161
     96          1           0       -1.481337   -4.438838    3.348717
     97          1           0       -2.886944   -5.627164    3.642082
     98          1           0       -1.438976   -6.017781    2.857765
     99          1           0        2.539953   -1.473522   -1.538988
    100          1           0        2.523694    0.189717   -1.804077
    101          1           0        4.056480   -0.874661    0.629638
    102          1           0        4.246827    1.451759   -2.721446
    103          1           0        5.981942    2.230004   -1.855918
    104          1           0        5.916678    0.782578   -2.800688
    105          1           0        6.668352    1.188977    0.337490
    106          1           0        6.587589   -0.333925    0.845892
    107          1           0        7.347081   -1.406327   -1.304027
    108          1           0        7.975540    0.504745   -1.680935
    109          1           0        9.084639    0.608713    0.279546
    110          1           0        8.690851   -1.080406    0.865807
    111          1           0       10.354272   -0.093192   -1.667055
    112          1           0        9.194603   -2.234266   -1.873500
    113          1           0       11.107254   -2.252179   -1.889381
    114          1           0       10.109341   -2.837252   -0.336437
    115          1           0       11.374659    0.834144    0.345264
    116          1           0       11.418141   -0.604127    1.159020
    117          1           0       12.884281   -1.550984   -0.713475
    118          1           0       12.776315   -0.321591   -1.608834
    119          1           0       13.808950    0.958070    0.459724
    120          1           0       14.228321   -0.469493    1.183123
    121          1           0       15.308281    0.190444   -1.514501
    122          1           0       15.558821   -2.471067    0.136440
    123          1           0       15.202622   -1.959962   -1.738609
    124          1           0       16.889370   -2.092765   -1.003242
    125          1           0       15.969426    1.296748    0.704807
    126          1           0       16.450707   -0.182192    1.380371
    127          1           0       18.153777   -0.664549   -0.527423
    128          1           0       17.785053    0.752442   -1.291374
    129          1           0       18.224215    2.259392    0.848909
    130          1           0       18.626034    0.718209    1.687244
    131          1           0       20.540968    0.440620    0.105146
    132          1           0       19.716639    3.380294   -1.312611
    133          1           0       21.172854    2.563370   -1.681497
    134          1           0       19.669775    1.623373   -1.989806
    135          1           0       21.096318    1.461375    1.903248
    136          1           0       22.044401    2.611319    0.590275
    137          1           0       20.510241    3.125414    1.594553
 ---------------------------------------------------------------------

 SCF Done:  E(RCAM-B3LYP) =  -2933.37606584     A.U. after   16 cycles

 Excitation energies and oscillator strengths:

 Excited State   1:      Singlet-A      2.0062 eV  617.99 nm  f=0.2448  <S**2>=0.000
     240 -> 243       -0.23404
     241 -> 242        0.66480
 This state for optimization and/or second-order correction.
 Total Energy, E(TD-HF/TD-DFT) =  -2933.30233784
 Copying the excited state density for this state as the 1-particle RhoCI density.

 The electronic state is 1-A.
 Alpha  occ. eigenvalues --  -46.79054 -19.23311 -19.23263 -19.16952 -19.16023
 Alpha  occ. eigenvalues --  -19.16019 -14.37479 -14.35792 -14.35261 -14.34681
 Alpha  occ. eigenvalues --  -10.33995 -10.33875 -10.30955 -10.27185 -10.26398
 Alpha  occ. eigenvalues --  -10.26324 -10.26093 -10.25789 -10.25566 -10.25495
 Alpha  occ. eigenvalues --  -10.24672 -10.24595 -10.24576 -10.24319 -10.24182
 Alpha  occ. eigenvalues --  -10.24084 -10.23892 -10.23771 -10.23509 -10.23432
 Alpha  occ. eigenvalues --  -10.23360 -10.23245 -10.23008 -10.22919 -10.22809
 Alpha  occ. eigenvalues --  -10.22514 -10.22474 -10.22467 -10.22442 -10.22391
 Alpha  occ. eigenvalues --  -10.22375 -10.22351 -10.22281 -10.22201 -10.22193
 Alpha  occ. eigenvalues --  -10.21902 -10.21892 -10.21886 -10.21871 -10.21735
 Alpha  occ. eigenvalues --  -10.21589 -10.21582 -10.21413 -10.21314 -10.21227
 Alpha  occ. eigenvalues --  -10.21152 -10.21119 -10.20850 -10.20695 -10.20670
 Alpha  occ. eigenvalues --  -10.20560 -10.20558 -10.20526 -10.20378 -10.19620
 Alpha  occ. eigenvalues --   -3.07768  -1.82701  -1.82246  -1.82179  -1.16694
 Alpha  occ. eigenvalues --   -1.14726  -1.08274  -1.05568  -1.04721  -0.99110
 Alpha  occ. eigenvalues --   -0.97409  -0.97245  -0.95976  -0.86939  -0.86755
 Alpha  occ. eigenvalues --   -0.86068  -0.85237  -0.84503  -0.83929  -0.83840
 Alpha  occ. eigenvalues --   -0.83489  -0.82484  -0.82297  -0.81658  -0.81252
 Alpha  occ. eigenvalues --   -0.80104  -0.79380  -0.78762  -0.78172  -0.77579
 Alpha  occ. eigenvalues --   -0.76665  -0.75926  -0.75770  -0.75179  -0.73383
 Alpha  occ. eigenvalues --   -0.72746  -0.71711  -0.71638  -0.71560  -0.70448
 Alpha  occ. eigenvalues --   -0.70384  -0.70281  -0.69446  -0.69154  -0.68135
 Alpha  occ. eigenvalues --   -0.66496  -0.65515  -0.64957  -0.64807  -0.63526
 Alpha  occ. eigenvalues --   -0.62249  -0.61718  -0.61471  -0.61275  -0.61161
 Alpha  occ. eigenvalues --   -0.60426  -0.60267  -0.59096  -0.58522  -0.57658
 Alpha  occ. eigenvalues --   -0.57292  -0.57007  -0.56238  -0.55724  -0.55442
 Alpha  occ. eigenvalues --   -0.55073  -0.54179  -0.53705  -0.53615  -0.53215
 Alpha  occ. eigenvalues --   -0.52568  -0.52297  -0.52029  -0.51225  -0.50847
 Alpha  occ. eigenvalues --   -0.50639  -0.50483  -0.50431  -0.50199  -0.49577
 Alpha  occ. eigenvalues --   -0.49203  -0.49090  -0.48769  -0.48428  -0.48297
 Alpha  occ. eigenvalues --   -0.47945  -0.47570  -0.47460  -0.47369  -0.46803
 Alpha  occ. eigenvalues --   -0.46590  -0.46167  -0.45899  -0.45807  -0.45693
 Alpha  occ. eigenvalues --   -0.45391  -0.45270  -0.45168  -0.44952  -0.44528
 Alpha  occ. eigenvalues --   -0.44446  -0.44188  -0.43928  -0.43835  -0.43761
 Alpha  occ. eigenvalues --   -0.43532  -0.42949  -0.42850  -0.42675  -0.42282
 Alpha  occ. eigenvalues --   -0.42247  -0.42135  -0.42002  -0.41654  -0.41325
 Alpha  occ. eigenvalues --   -0.41052  -0.41020  -0.40950  -0.40923  -0.40607
 Alpha  occ. eigenvalues --   -0.40218  -0.40052  -0.39971  -0.39785  -0.39539
 Alpha  occ. eigenvalues --   -0.39378  -0.39265  -0.39201  -0.38820  -0.38672
 Alpha  occ. eigenvalues --   -0.38333  -0.38067  -0.37969  -0.37756  -0.37686
 Alpha  occ. eigenvalues --   -0.37419  -0.37238  -0.37159  -0.36819  -0.36701
 Alpha  occ. eigenvalues --   -0.36645  -0.36472  -0.36346  -0.36059  -0.35964
 Alpha  occ. eigenvalues --   -0.35727  -0.35481  -0.35435  -0.34519  -0.34474
 Alpha  occ. eigenvalues --   -0.34245  -0.34165  -0.34052  -0.34013  -0.33634
 Alpha  occ. eigenvalues --   -0.33490  -0.33281  -0.33155  -0.33022  -0.32865
 Alpha  occ. eigenvalues --   -0.32159  -0.31925  -0.30882  -0.30595  -0.29912
 Alpha  occ. eigenvalues --   -0.29737  -0.29411  -0.29197  -0.28914  -0.27760
 Alpha  occ. eigenvalues --   -0.27105  -0.26777  -0.25490  -0.24533  -0.21586
 Alpha  occ. eigenvalues --   -0.19434
 Alpha virt. eigenvalues --   -0.06612  -0.03902   0.00126   0.02718   0.03455
 Alpha virt. eigenvalues --    0.04498   0.05099   0.05656   0.06024   0.06030
 Alpha virt. eigenvalues --    0.06342   0.07897   0.08702   0.09399   0.09693

 Mulliken charges:
               1
     1  Mg   0.806988
     2  C    0.167067
     3  C   -0.201254
     4  C   -0.172207
     5  C   -0.200297
     6  N   -0.621554
     7  C    0.225904
     8  C   -0.136737
     9  C   -0.165913
    10  C    0.407189
    11  C   -0.288343
    12  C   -0.140534
    13  C   -0.285712
    14  C    0.584912
    15  O   -0.477896
    16  O   -0.423403
    17  N   -0.729567
    18  C    0.330953
    19  C    0.042064
    20  C    0.007187
    21  C    0.296147
    22  C   -0.392302
    23  C   -0.074167
    24  C   -0.238093
    25  N   -0.693316
    26  C    0.314985
    27  C    0.018998
    28  C    0.104907
    29  C    0.262587
    30  C   -0.403232
    31  C   -0.244706
    32  C   -0.322245
    33  N   -0.709251
    34  C    0.229628
    35  C   -0.026260
    36  C    0.107885
    37  C    0.259530
    38  C   -0.374485
    39  C    0.358336
    40  O   -0.424762
    41  C   -0.330743
    42  C    0.607650
    43  O   -0.476959
    44  O   -0.415220
    45  C   -0.093202
    46  C    0.038057
    47  C   -0.168907
    48  C    0.125913
    49  C   -0.358799
    50  C   -0.206876
    51  C   -0.176177
    52  C   -0.124935
    53  C   -0.071616
    54  C   -0.281658
    55  C   -0.191141
    56  C   -0.185160
    57  C   -0.174665
    58  C   -0.044402
    59  C   -0.302710
    60  C   -0.175030
    61  C   -0.179765
    62  C   -0.142104
    63  C   -0.045187
    64  C   -0.305894
    65  C   -0.289407
    66  H    0.058036
    67  H    0.098283
    68  H    0.081030
    69  H    0.118191
    70  H    0.107375
    71  H    0.110320
    72  H    0.082120
    73  H    0.111946
    74  H    0.120277
    75  H    0.100755
    76  H    0.110731
    77  H    0.119728
    78  H    0.108222
    79  H    0.112027
    80  H    0.115811
    81  H    0.099472
    82  H    0.091992
    83  H    0.097079
    84  H    0.136190
    85  H    0.091133
    86  H    0.109672
    87  H    0.119321
    88  H    0.100366
    89  H    0.092140
    90  H    0.108436
    91  H    0.121088
    92  H    0.137097
    93  H    0.110796
    94  H    0.129247
    95  H    0.137057
    96  H    0.107437
    97  H    0.144202
    98  H    0.107557
    99  H    0.135162
   100  H    0.115957
   101  H    0.106193
   102  H    0.086371
   103  H    0.106131
   104  H    0.151742
   105  H    0.112193
   106  H    0.091623
   107  H    0.082719
   108  H    0.062529
   109  H    0.094890
   110  H    0.087719
   111  H    0.091427
   112  H    0.084892
   113  H    0.064075
   114  H    0.110613
   115  H    0.065118
   116  H    0.092411
   117  H    0.113323
   118  H    0.091484
   119  H    0.098508
   120  H    0.066202
   121  H    0.062481
   122  H    0.106530
   123  H    0.101361
   124  H    0.072240
   125  H    0.093092
   126  H    0.093072
   127  H    0.082686
   128  H    0.080392
   129  H    0.095252
   130  H    0.033813
   131  H    0.105338
   132  H    0.073851
   133  H    0.104557
   134  H    0.107635
   135  H    0.104312
   136  H    0.081663
   137  H    0.085210
 Sum of Mulliken charges =  -0.00000

 Dipole moment (field-independent basis, Debye):
    X=              2.9906    Y=              2.7162    Z=             -0.1040  Tot=              4.0413
 Quadrupole moment (field-independent basis, Debye-Ang):
   XX=           -348.6185   YY=           -390.1693   ZZ=           -401.2968
   XY=            -11.9712   XZ=             12.9859   YZ=             -6.2620

 Normal termination of Gaussian 16 at Fri Sep 13 14:43:19 2019.
