 Gaussian 16, Revision A.03,
 Gaussian 16:  ES64L-G16RevA.03 25-Dec-2016

 ----------------------------------------------------------------------
 # td=(NStates=1) iop(3/107=0140000000,3/108=0140000000) CAM-B3LYP/6-31
 G(d,p)
 ----------------------------------------------------------------------

 --
 TD
 --
 Symbolic Z-matrix:
 Charge =  0 Multiplicity = 1

                         Standard orientation:
 ---------------------------------------------------------------------
 Center     Atomic      Atomic             Coordinates (Angstroms)
 Number     Number       Type             X           Y           Z
 ---------------------------------------------------------------------
      1         12           0       -7.112220    0.647217    0.062784
      2          6           0       -4.959655   -1.995553    0.715430
      3          6           0       -4.763957    2.818981    1.191518
      4          6           0       -9.315009    3.063588   -0.411162
      5          6           0       -9.503311   -1.716942   -0.846989
      6          7           0       -5.040511    0.402504    0.795237
      7          6           0       -4.332307   -0.678324    0.896294
      8          6           0       -2.851504   -0.331255    1.219311
      9          6           0       -2.977270    1.046453    1.720462
     10          6           0       -4.321807    1.498737    1.278107
     11          6           0       -2.935346    1.285756    3.236345
     12          6           0       -1.888161   -0.688045    0.041349
     13          6           0       -0.536354   -0.498217    0.522740
     14          6           0        0.496746   -0.694018   -0.669113
     15          8           0        0.194599   -1.073874   -1.757615
     16          8           0        1.776656   -0.377993   -0.232747
     17          7           0       -7.072573    2.590316    0.190754
     18          6           0       -5.975699    3.367450    0.691154
     19          6           0       -6.285849    4.784959    0.693187
     20          6           0       -7.649050    4.845809    0.388697
     21          6           0       -8.123471    3.518321    0.038169
     22          6           0       -5.463219    5.985714    1.048327
     23          6           0       -8.487210    6.045010    0.209437
     24          6           0       -8.295886    7.141968    0.880268
     25          7           0       -9.091036    0.688780   -0.654814
     26          6           0       -9.837139    1.796839   -0.845130
     27          6           0      -11.188753    1.449957   -1.224464
     28          6           0      -11.225458    0.112280   -1.258591
     29          6           0       -9.821516   -0.383030   -0.925465
     30          6           0      -12.198256    2.473576   -1.449091
     31          6           0      -12.365125   -0.758495   -1.709347
     32          6           0      -12.257396   -1.260182   -3.197833
     33          7           0       -7.275584   -1.401306    0.000419
     34          6           0       -8.249938   -2.147272   -0.497493
     35          6           0       -7.835149   -3.599191   -0.455405
     36          6           0       -6.569077   -3.633410   -0.057356
     37          6           0       -6.206940   -2.234731    0.204239
     38          6           0       -8.589660   -4.826236   -0.878141
     39          6           0       -5.307362   -4.313732    0.226400
     40          8           0       -5.256273   -5.559791    0.192445
     41          6           0       -4.193059   -3.345369    0.593267
     42          6           0       -3.557174   -3.713452    1.965945
     43          8           0       -3.764882   -3.118216    2.995167
     44          8           0       -2.552444   -4.614920    1.755676
     45          6           0       -2.057362   -5.124648    3.000035
     46          6           0        2.746254   -0.729852   -1.221694
     47          6           0        4.087644   -0.441983   -0.557636
     48          6           0        5.092841    0.372694   -1.014949
     49          6           0        5.107712    1.228224   -2.256180
     50          6           0        6.325546    0.430449   -0.244560
     51          6           0        7.556719   -0.232374   -1.011793
     52          6           0        8.917532   -0.135893   -0.238950
     53          6           0       10.126414   -0.530528   -0.922803
     54          6           0       10.062288   -2.031453   -1.332401
     55          6           0       11.388754   -0.288263   -0.057569
     56          6           0       12.718433   -0.658995   -0.558586
     57          6           0       13.850568   -0.098186    0.186689
     58          6           0       15.213190   -0.325442   -0.444287
     59          6           0       15.615448   -1.681055   -0.798776
     60          6           0       16.328181    0.470507    0.396650
     61          6           0       17.723392    0.563852   -0.166162
     62          6           0       18.754164    1.274756    0.690100
     63          6           0       20.191053    1.317334    0.199509
     64          6           0       20.321725    2.189235   -0.955770
     65          6           0       21.036894    1.902557    1.309147
     66          1           0       -4.127281    3.765852    1.558676
     67          1           0       -9.991343    3.956626   -0.407797
     68          1           0      -10.137401   -2.401168   -1.213498
     69          1           0       -2.616335   -0.780746    2.059776
     70          1           0       -2.122916    1.696625    1.229253
     71          1           0       -2.008050    0.946499    3.621301
     72          1           0       -3.072249    2.270789    3.665163
     73          1           0       -3.764030    0.545452    3.412035
     74          1           0       -2.040910   -1.768917   -0.182784
     75          1           0       -2.201737   -0.080561   -0.777386
     76          1           0       -0.270857    0.608433    0.723593
     77          1           0       -0.178704   -0.821693    1.541430
     78          1           0       -5.526531    6.766291    0.298726
     79          1           0       -5.834726    6.273892    2.098052
     80          1           0       -4.289047    5.892952    1.016220
     81          1           0       -9.426080    6.000939   -0.328809
     82          1           0       -8.897800    7.869121    0.620900
     83          1           0       -7.611701    7.432599    1.642945
     84          1           0      -11.877249    3.418469   -1.953811
     85          1           0      -13.050502    2.103448   -1.974772
     86          1           0      -12.601771    3.006213   -0.387968
     87          1           0      -12.364198   -1.650714   -1.070884
     88          1           0      -13.234072   -0.178087   -1.645173
     89          1           0      -13.039188   -2.077735   -3.598823
     90          1           0      -12.562143   -0.346571   -3.941113
     91          1           0      -11.192335   -1.491049   -3.489708
     92          1           0       -8.949963   -4.697872   -1.934474
     93          1           0       -8.063050   -5.691450   -0.780859
     94          1           0       -9.467798   -5.133562   -0.141077
     95          1           0       -3.465329   -3.482853   -0.180228
     96          1           0       -1.510226   -4.541305    3.604141
     97          1           0       -2.936305   -5.263396    3.683524
     98          1           0       -1.460290   -5.912683    2.609683
     99          1           0        2.659178   -1.802431   -1.534129
    100          1           0        2.660261   -0.307073   -2.158252
    101          1           0        4.088754   -0.843184    0.309832
    102          1           0        4.082308    1.452993   -2.812774
    103          1           0        5.487840    2.273288   -1.943257
    104          1           0        5.605532    0.881810   -2.999187
    105          1           0        6.755802    1.482400   -0.023493
    106          1           0        6.222032   -0.116861    0.720145
    107          1           0        7.277957   -1.264544   -1.459157
    108          1           0        7.671254    0.298204   -1.888758
    109          1           0        8.796118    0.823337    0.308434
    110          1           0        8.737628   -0.831026    0.698335
    111          1           0       10.160039    0.107910   -1.840344
    112          1           0        9.224361   -2.225074   -2.160167
    113          1           0       10.985409   -2.380463   -1.967042
    114          1           0       10.190739   -2.814357   -0.521537
    115          1           0       11.159290    0.781065    0.144327
    116          1           0       11.471914   -0.752605    0.658597
    117          1           0       12.766774   -1.879019   -0.577764
    118          1           0       12.842141   -0.354749   -1.771416
    119          1           0       13.496602    1.117446    0.181815
    120          1           0       13.827292   -0.371583    1.227054
    121          1           0       15.368329    0.125161   -1.376629
    122          1           0       16.023458   -2.072707    0.087603
    123          1           0       14.923690   -2.189563   -1.316267
    124          1           0       16.440354   -1.767106   -1.550235
    125          1           0       16.069417    1.429919    0.460281
    126          1           0       16.325377   -0.178851    1.349983
    127          1           0       18.171201   -0.460650   -0.373635
    128          1           0       17.819715    1.319173   -0.956336
    129          1           0       18.306842    2.186529    1.049186
    130          1           0       18.811515    0.799311    1.792565
    131          1           0       20.658609    0.382274   -0.082720
    132          1           0       20.002854    3.225562   -0.844553
    133          1           0       21.322377    2.167815   -1.403203
    134          1           0       19.781175    1.728216   -1.957989
    135          1           0       21.163767    1.440924    2.271728
    136          1           0       21.968445    2.230498    0.775332
    137          1           0       20.866702    3.020580    1.398903
 ---------------------------------------------------------------------

 SCF Done:  E(RCAM-B3LYP) =  -2933.44478848     A.U. after   16 cycles

 Excitation energies and oscillator strengths:

 Excited State   1:      Singlet-A      2.0676 eV  599.65 nm  f=0.2318  <S**2>=0.000
     240 -> 243        0.26902
     241 -> 242        0.65185
 This state for optimization and/or second-order correction.
 Total Energy, E(TD-HF/TD-DFT) =  -2933.36880541
 Copying the excited state density for this state as the 1-particle RhoCI density.

 The electronic state is 1-A.
 Alpha  occ. eigenvalues --  -46.80036 -19.22720 -19.22369 -19.18088 -19.18025
 Alpha  occ. eigenvalues --  -19.15728 -14.37781 -14.35111 -14.34731 -14.34650
 Alpha  occ. eigenvalues --  -10.35219 -10.35132 -10.30549 -10.26787 -10.26396
 Alpha  occ. eigenvalues --  -10.25741 -10.25733 -10.25260 -10.24701 -10.24641
 Alpha  occ. eigenvalues --  -10.24323 -10.24298 -10.24142 -10.23979 -10.23937
 Alpha  occ. eigenvalues --  -10.23651 -10.23292 -10.23260 -10.23248 -10.23041
 Alpha  occ. eigenvalues --  -10.23013 -10.22900 -10.22852 -10.22747 -10.22584
 Alpha  occ. eigenvalues --  -10.22407 -10.22321 -10.22259 -10.22245 -10.22226
 Alpha  occ. eigenvalues --  -10.22126 -10.21997 -10.21994 -10.21983 -10.21711
 Alpha  occ. eigenvalues --  -10.21640 -10.21553 -10.21546 -10.21349 -10.21320
 Alpha  occ. eigenvalues --  -10.21272 -10.21133 -10.21046 -10.20873 -10.20748
 Alpha  occ. eigenvalues --  -10.20576 -10.20530 -10.20484 -10.20294 -10.20284
 Alpha  occ. eigenvalues --  -10.20053 -10.20003 -10.19388 -10.18346 -10.18342
 Alpha  occ. eigenvalues --   -3.08612  -1.83552  -1.83073  -1.83028  -1.13581
 Alpha  occ. eigenvalues --   -1.13267  -1.05983  -1.05574  -1.04461  -1.00398
 Alpha  occ. eigenvalues --   -0.99418  -0.98429  -0.95551  -0.87803  -0.87075
 Alpha  occ. eigenvalues --   -0.86659  -0.85978  -0.85581  -0.84349  -0.84043
 Alpha  occ. eigenvalues --   -0.83628  -0.83402  -0.82875  -0.82314  -0.81522
 Alpha  occ. eigenvalues --   -0.81100  -0.79540  -0.78787  -0.78746  -0.78015
 Alpha  occ. eigenvalues --   -0.77384  -0.76966  -0.75545  -0.74793  -0.73659
 Alpha  occ. eigenvalues --   -0.72978  -0.72708  -0.72181  -0.71417  -0.71258
 Alpha  occ. eigenvalues --   -0.70710  -0.70636  -0.70439  -0.68993  -0.67794
 Alpha  occ. eigenvalues --   -0.67326  -0.66628  -0.64600  -0.64463  -0.64234
 Alpha  occ. eigenvalues --   -0.62983  -0.62875  -0.61086  -0.60901  -0.60479
 Alpha  occ. eigenvalues --   -0.60237  -0.60057  -0.59364  -0.58876  -0.58596
 Alpha  occ. eigenvalues --   -0.58277  -0.57419  -0.56410  -0.55859  -0.55520
 Alpha  occ. eigenvalues --   -0.54839  -0.54474  -0.54191  -0.53692  -0.53125
 Alpha  occ. eigenvalues --   -0.52748  -0.52269  -0.52155  -0.51644  -0.51532
 Alpha  occ. eigenvalues --   -0.51242  -0.50890  -0.50374  -0.50034  -0.49778
 Alpha  occ. eigenvalues --   -0.49363  -0.49225  -0.49144  -0.48939  -0.48169
 Alpha  occ. eigenvalues --   -0.47988  -0.47831  -0.47601  -0.47322  -0.47115
 Alpha  occ. eigenvalues --   -0.46961  -0.46822  -0.46653  -0.46565  -0.46117
 Alpha  occ. eigenvalues --   -0.46042  -0.45629  -0.45519  -0.45104  -0.44941
 Alpha  occ. eigenvalues --   -0.44776  -0.44705  -0.44358  -0.44221  -0.43851
 Alpha  occ. eigenvalues --   -0.43822  -0.43319  -0.43131  -0.42665  -0.42376
 Alpha  occ. eigenvalues --   -0.42233  -0.42099  -0.41914  -0.41696  -0.41549
 Alpha  occ. eigenvalues --   -0.41276  -0.41236  -0.41156  -0.41009  -0.40753
 Alpha  occ. eigenvalues --   -0.40613  -0.40384  -0.40197  -0.40016  -0.39927
 Alpha  occ. eigenvalues --   -0.39745  -0.39611  -0.39328  -0.39170  -0.39042
 Alpha  occ. eigenvalues --   -0.38858  -0.38828  -0.38386  -0.38207  -0.38176
 Alpha  occ. eigenvalues --   -0.37994  -0.37375  -0.37246  -0.36991  -0.36925
 Alpha  occ. eigenvalues --   -0.36780  -0.36417  -0.36136  -0.36100  -0.36030
 Alpha  occ. eigenvalues --   -0.35903  -0.35576  -0.35326  -0.35089  -0.34737
 Alpha  occ. eigenvalues --   -0.34284  -0.34041  -0.33863  -0.33558  -0.33342
 Alpha  occ. eigenvalues --   -0.33277  -0.33176  -0.33114  -0.32833  -0.32542
 Alpha  occ. eigenvalues --   -0.32453  -0.31895  -0.31644  -0.31206  -0.30938
 Alpha  occ. eigenvalues --   -0.30277  -0.30009  -0.29855  -0.28088  -0.27574
 Alpha  occ. eigenvalues --   -0.26564  -0.26505  -0.25900  -0.24685  -0.21607
 Alpha  occ. eigenvalues --   -0.19093
 Alpha virt. eigenvalues --   -0.05971  -0.03985  -0.00269   0.02484   0.03285
 Alpha virt. eigenvalues --    0.03523   0.04098   0.04754   0.05337   0.05874
 Alpha virt. eigenvalues --    0.06351   0.09287   0.09492   0.09964   0.10062

 Mulliken charges:
               1
     1  Mg   0.822985
     2  C    0.034188
     3  C   -0.184489
     4  C   -0.193258
     5  C   -0.134598
     6  N   -0.583189
     7  C    0.272035
     8  C   -0.121239
     9  C   -0.178448
    10  C    0.314872
    11  C   -0.296867
    12  C   -0.145982
    13  C   -0.282141
    14  C    0.613489
    15  O   -0.446263
    16  O   -0.476191
    17  N   -0.735513
    18  C    0.281167
    19  C    0.034426
    20  C    0.026639
    21  C    0.303622
    22  C   -0.383068
    23  C   -0.091962
    24  C   -0.212202
    25  N   -0.677577
    26  C    0.274025
    27  C    0.111794
    28  C   -0.031664
    29  C    0.316181
    30  C   -0.386013
    31  C   -0.229745
    32  C   -0.304293
    33  N   -0.708057
    34  C    0.312814
    35  C   -0.065711
    36  C    0.149890
    37  C    0.229454
    38  C   -0.380077
    39  C    0.338922
    40  O   -0.477035
    41  C   -0.310945
    42  C    0.633356
    43  O   -0.449354
    44  O   -0.449580
    45  C   -0.092363
    46  C    0.005650
    47  C   -0.125364
    48  C    0.151432
    49  C   -0.366084
    50  C   -0.239561
    51  C   -0.189740
    52  C   -0.152805
    53  C   -0.057990
    54  C   -0.314683
    55  C   -0.098327
    56  C   -0.179286
    57  C   -0.141791
    58  C   -0.062623
    59  C   -0.311554
    60  C   -0.159209
    61  C   -0.180808
    62  C   -0.162811
    63  C   -0.024161
    64  C   -0.319785
    65  C   -0.310826
    66  H    0.072658
    67  H    0.060880
    68  H    0.072385
    69  H    0.114325
    70  H    0.083866
    71  H    0.104215
    72  H    0.123517
    73  H    0.118184
    74  H    0.124554
    75  H    0.131143
    76  H    0.126306
    77  H    0.139775
    78  H    0.138755
    79  H    0.128144
    80  H    0.097343
    81  H    0.093090
    82  H    0.087069
    83  H    0.097820
    84  H    0.122453
    85  H    0.114748
    86  H    0.087834
    87  H    0.109236
    88  H    0.108502
    89  H    0.092686
    90  H    0.078807
    91  H    0.113651
    92  H    0.119524
    93  H    0.153747
    94  H    0.104468
    95  H    0.167657
    96  H    0.133780
    97  H    0.127135
    98  H    0.127602
    99  H    0.111676
   100  H    0.119417
   101  H    0.079143
   102  H    0.093504
   103  H    0.107443
   104  H    0.143165
   105  H    0.084639
   106  H    0.099861
   107  H    0.087494
   108  H    0.101230
   109  H    0.086315
   110  H    0.069604
   111  H    0.083044
   112  H    0.087268
   113  H    0.088467
   114  H    0.105044
   115  H    0.077048
   116  H    0.088787
   117  H    0.065770
   118  H    0.048591
   119  H    0.058480
   120  H    0.094060
   121  H    0.091632
   122  H    0.096540
   123  H    0.112192
   124  H    0.096258
   125  H    0.094710
   126  H    0.071875
   127  H    0.081572
   128  H    0.096375
   129  H    0.091072
   130  H    0.044772
   131  H    0.096839
   132  H    0.108674
   133  H    0.102868
   134  H    0.073264
   135  H    0.112676
   136  H    0.082766
   137  H    0.088298
 Sum of Mulliken charges =  -0.00000

 Dipole moment (field-independent basis, Debye):
    X=              3.1775    Y=              4.2504    Z=              0.2641  Tot=              5.3134
 Quadrupole moment (field-independent basis, Debye-Ang):
   XX=           -360.5241   YY=           -391.2202   ZZ=           -394.9655
   XY=            -18.2011   XZ=              4.6438   YZ=             -0.7817

 Normal termination of Gaussian 16 at Tue Sep 10 12:29:57 2019.
