 Gaussian 16, Revision A.03,
 Gaussian 16:  ES64L-G16RevA.03 25-Dec-2016

 ----------------------------------------------------------------------
 # td=(NStates=1) iop(3/107=0140000000,3/108=0140000000) CAM-B3LYP/6-31
 G(d,p)
 ----------------------------------------------------------------------

 --
 TD
 --
 Symbolic Z-matrix:
 Charge =  0 Multiplicity = 1

                         Standard orientation:
 ---------------------------------------------------------------------
 Center     Atomic      Atomic             Coordinates (Angstroms)
 Number     Number       Type             X           Y           Z
 ---------------------------------------------------------------------
      1         12           0       -7.149505    0.534836    0.022530
      2          6           0       -4.883848   -1.968471    0.440501
      3          6           0       -4.806666    2.786963    1.246698
      4          6           0       -9.463405    3.088132   -0.316897
      5          6           0       -9.503568   -1.732473   -0.887960
      6          7           0       -5.099928    0.379219    0.648748
      7          6           0       -4.402862   -0.735950    0.707658
      8          6           0       -2.981778   -0.447255    1.157383
      9          6           0       -3.052482    1.064348    1.657562
     10          6           0       -4.403558    1.472696    1.165407
     11          6           0       -3.068184    1.089048    3.239724
     12          6           0       -1.927165   -0.599841    0.041986
     13          6           0       -0.485724   -0.438353    0.373522
     14          6           0        0.486886   -0.521088   -0.650722
     15          8           0        0.209396   -0.935594   -1.777906
     16          8           0        1.686782   -0.207115   -0.094613
     17          7           0       -7.124126    2.686997    0.371718
     18          6           0       -6.084240    3.364496    0.849000
     19          6           0       -6.368678    4.746227    0.747789
     20          6           0       -7.637581    4.956615    0.350225
     21          6           0       -8.131824    3.570063    0.042441
     22          6           0       -5.370568    5.814309    1.276335
     23          6           0       -8.445524    5.976710    0.166521
     24          6           0       -8.249095    7.225075    0.821620
     25          7           0       -9.048194    0.706588   -0.579431
     26          6           0       -9.904586    1.796328   -0.607026
     27          6           0      -11.292287    1.434490   -1.106980
     28          6           0      -11.268552    0.136331   -1.223352
     29          6           0       -9.975091   -0.455114   -0.862843
     30          6           0      -12.264785    2.577368   -1.397395
     31          6           0      -12.440784   -0.712454   -1.771870
     32          6           0      -12.329416   -0.948605   -3.232448
     33          7           0       -7.220243   -1.344232   -0.150065
     34          6           0       -8.276395   -2.144715   -0.551583
     35          6           0       -7.815469   -3.638183   -0.548539
     36          6           0       -6.537369   -3.588440   -0.110364
     37          6           0       -6.180528   -2.216983    0.104456
     38          6           0       -8.781127   -4.721859   -0.821757
     39          6           0       -5.338333   -4.410907    0.079606
     40          8           0       -5.115360   -5.677787    0.056894
     41          6           0       -4.252866   -3.381004    0.476741
     42          6           0       -3.663836   -3.865936    1.717625
     43          8           0       -3.928073   -3.229076    2.785887
     44          8           0       -2.893902   -4.863604    1.692409
     45          6           0       -2.390506   -5.357014    2.979486
     46          6           0        2.833689   -0.399230   -1.181514
     47          6           0        4.038625   -0.307210   -0.429244
     48          6           0        5.169496    0.515607   -0.763566
     49          6           0        5.125982    1.317245   -1.985011
     50          6           0        6.453530    0.514188    0.049623
     51          6           0        7.579330   -0.019922   -0.726513
     52          6           0        8.952329   -0.124545   -0.005675
     53          6           0       10.211906   -0.611787   -0.829420
     54          6           0       10.195156   -2.123520   -1.205758
     55          6           0       11.444334   -0.394164    0.044438
     56          6           0       12.902529   -0.499577   -0.711227
     57          6           0       14.027066   -0.097655    0.180017
     58          6           0       15.377220   -0.216542   -0.453363
     59          6           0       15.714802   -1.631712   -0.967454
     60          6           0       16.459845    0.479078    0.475833
     61          6           0       17.905423    0.411005   -0.166511
     62          6           0       18.911468    1.184389    0.679887
     63          6           0       20.406043    1.321950    0.125748
     64          6           0       20.413016    2.065619   -1.258437
     65          6           0       21.352044    1.814531    1.154021
     66          1           0       -4.194314    3.703902    1.506117
     67          1           0      -10.036241    4.028684   -0.575372
     68          1           0      -10.315914   -2.483839   -1.503350
     69          1           0       -2.789564   -1.148820    2.039994
     70          1           0       -2.355422    1.922792    1.226109
     71          1           0       -2.066069    0.747068    3.745380
     72          1           0       -3.535382    2.146608    3.685057
     73          1           0       -3.700037    0.211041    3.598197
     74          1           0       -2.275245   -1.594540   -0.570540
     75          1           0       -2.195021   -0.085562   -0.897308
     76          1           0       -0.306266    0.415351    1.136369
     77          1           0       -0.448118   -1.276170    0.964670
     78          1           0       -5.762612    6.754253    0.769138
     79          1           0       -5.213941    6.168603    2.320918
     80          1           0       -4.335283    5.597283    0.833662
     81          1           0       -9.231920    5.935251   -0.583696
     82          1           0       -8.826780    8.226593    0.453042
     83          1           0       -7.509109    7.332437    1.615988
     84          1           0      -11.943946    3.333993   -2.085544
     85          1           0      -13.176853    2.026199   -1.772804
     86          1           0      -12.515097    2.983859   -0.501602
     87          1           0      -12.265642   -1.647442   -1.295667
     88          1           0      -13.364578   -0.252783   -1.428299
     89          1           0      -13.100317   -1.430041   -3.634977
     90          1           0      -12.354453    0.010734   -3.855476
     91          1           0      -11.442838   -1.632848   -3.631274
     92          1           0       -9.237028   -4.583243   -1.985954
     93          1           0       -8.279107   -5.779682   -0.779595
     94          1           0       -9.648080   -4.929232   -0.081879
     95          1           0       -3.457088   -3.692190   -0.292415
     96          1           0       -1.928259   -4.725956    3.614718
     97          1           0       -3.098225   -5.786860    3.818316
     98          1           0       -1.792198   -6.167063    2.522810
     99          1           0        2.587029   -1.311262   -1.735525
    100          1           0        2.571714    0.484913   -1.899729
    101          1           0        4.164946   -0.975945    0.451722
    102          1           0        4.128508    1.402508   -2.446894
    103          1           0        5.617035    2.227517   -1.667168
    104          1           0        5.734115    0.978338   -2.823287
    105          1           0        6.791330    1.610052    0.392277
    106          1           0        6.184723   -0.053390    0.836908
    107          1           0        7.292055   -0.937075   -0.982512
    108          1           0        7.825074    0.583950   -1.581764
    109          1           0        9.231948    0.919797    0.441740
    110          1           0        8.898676   -0.810811    0.806581
    111          1           0       10.345344   -0.064861   -1.706633
    112          1           0        9.341651   -2.371968   -1.741054
    113          1           0       11.110985   -2.385509   -1.701697
    114          1           0       10.283229   -2.768048   -0.315108
    115          1           0       11.282296    0.460605    0.560828
    116          1           0       11.454264   -0.989296    0.959054
    117          1           0       13.209620   -1.467796   -0.725358
    118          1           0       12.805474    0.177650   -1.557888
    119          1           0       13.783238    0.868421    0.486379
    120          1           0       14.164988   -0.408698    1.307551
    121          1           0       15.315851    0.426575   -1.543465
    122          1           0       15.892316   -2.305844   -0.146270
    123          1           0       14.849455   -1.903822   -1.703489
    124          1           0       16.530939   -1.536167   -1.551343
    125          1           0       16.125452    1.409336    0.774639
    126          1           0       16.419512   -0.279746    1.290334
    127          1           0       18.225255   -0.501386   -0.582793
    128          1           0       17.675217    1.015365   -1.041349
    129          1           0       18.495365    2.156164    1.082586
    130          1           0       19.012132    0.531766    1.762349
    131          1           0       20.824383    0.229577   -0.083221
    132          1           0       19.779237    2.995016   -1.266541
    133          1           0       21.445916    2.474364   -1.565543
    134          1           0       20.008667    1.404894   -2.135829
    135          1           0       21.430168    1.184344    1.946446
    136          1           0       22.304511    1.702309    0.708710
    137          1           0       21.236880    2.913333    1.242548
 ---------------------------------------------------------------------

 SCF Done:  E(RCAM-B3LYP) =  -2933.46655163     A.U. after   16 cycles

 Excitation energies and oscillator strengths:

 Excited State   1:      Singlet-A      1.9118 eV  648.51 nm  f=0.3693  <S**2>=0.000
     240 -> 243       -0.19574
     241 -> 242        0.67715
 This state for optimization and/or second-order correction.
 Total Energy, E(TD-HF/TD-DFT) =  -2933.39629315
 Copying the excited state density for this state as the 1-particle RhoCI density.

 The electronic state is 1-A.
 Alpha  occ. eigenvalues --  -46.79088 -19.23921 -19.21472 -19.16258 -19.16073
 Alpha  occ. eigenvalues --  -19.14199 -14.37438 -14.35761 -14.35497 -14.34590
 Alpha  occ. eigenvalues --  -10.33634 -10.33446 -10.31211 -10.28346 -10.27724
 Alpha  occ. eigenvalues --  -10.25975 -10.25874 -10.25289 -10.25025 -10.24870
 Alpha  occ. eigenvalues --  -10.24864 -10.24843 -10.24821 -10.24532 -10.24503
 Alpha  occ. eigenvalues --  -10.24483 -10.24112 -10.23801 -10.23437 -10.23350
 Alpha  occ. eigenvalues --  -10.23261 -10.23233 -10.23161 -10.22849 -10.22732
 Alpha  occ. eigenvalues --  -10.22628 -10.22575 -10.22415 -10.22378 -10.22356
 Alpha  occ. eigenvalues --  -10.22347 -10.22102 -10.22101 -10.21997 -10.21925
 Alpha  occ. eigenvalues --  -10.21858 -10.21822 -10.21788 -10.21741 -10.21608
 Alpha  occ. eigenvalues --  -10.21574 -10.21488 -10.21332 -10.21259 -10.21231
 Alpha  occ. eigenvalues --  -10.20919 -10.20826 -10.20491 -10.20485 -10.20206
 Alpha  occ. eigenvalues --  -10.20036 -10.19913 -10.19636 -10.19203 -10.18814
 Alpha  occ. eigenvalues --   -3.07928  -1.82842  -1.82402  -1.82362  -1.15763
 Alpha  occ. eigenvalues --   -1.10406  -1.02689  -1.02631  -1.00893  -0.99576
 Alpha  occ. eigenvalues --   -0.98288  -0.97933  -0.94731  -0.88189  -0.87048
 Alpha  occ. eigenvalues --   -0.85524  -0.85135  -0.84645  -0.84067  -0.83803
 Alpha  occ. eigenvalues --   -0.83414  -0.82884  -0.82587  -0.81937  -0.81318
 Alpha  occ. eigenvalues --   -0.80344  -0.79669  -0.79215  -0.78914  -0.77960
 Alpha  occ. eigenvalues --   -0.76869  -0.76579  -0.75659  -0.75525  -0.73874
 Alpha  occ. eigenvalues --   -0.73114  -0.72902  -0.72146  -0.71586  -0.71553
 Alpha  occ. eigenvalues --   -0.71055  -0.69949  -0.69747  -0.67869  -0.67412
 Alpha  occ. eigenvalues --   -0.67103  -0.65875  -0.65704  -0.64993  -0.64534
 Alpha  occ. eigenvalues --   -0.63278  -0.62575  -0.61469  -0.61234  -0.61093
 Alpha  occ. eigenvalues --   -0.60469  -0.60085  -0.58454  -0.58337  -0.57588
 Alpha  occ. eigenvalues --   -0.56737  -0.56482  -0.55966  -0.55423  -0.54910
 Alpha  occ. eigenvalues --   -0.54639  -0.54130  -0.53465  -0.53096  -0.52668
 Alpha  occ. eigenvalues --   -0.52543  -0.52103  -0.51760  -0.51521  -0.50772
 Alpha  occ. eigenvalues --   -0.50627  -0.50246  -0.49915  -0.49690  -0.49306
 Alpha  occ. eigenvalues --   -0.48941  -0.48697  -0.48226  -0.48001  -0.47732
 Alpha  occ. eigenvalues --   -0.47658  -0.47162  -0.47071  -0.46862  -0.46718
 Alpha  occ. eigenvalues --   -0.46251  -0.46230  -0.46090  -0.45889  -0.45719
 Alpha  occ. eigenvalues --   -0.45573  -0.45330  -0.44800  -0.44709  -0.44674
 Alpha  occ. eigenvalues --   -0.44409  -0.44088  -0.43888  -0.43594  -0.43536
 Alpha  occ. eigenvalues --   -0.43124  -0.42886  -0.42753  -0.42695  -0.42577
 Alpha  occ. eigenvalues --   -0.42211  -0.42024  -0.41937  -0.41644  -0.41464
 Alpha  occ. eigenvalues --   -0.41405  -0.41183  -0.40769  -0.40678  -0.40412
 Alpha  occ. eigenvalues --   -0.40249  -0.40233  -0.40061  -0.39795  -0.39716
 Alpha  occ. eigenvalues --   -0.39605  -0.39414  -0.39161  -0.38915  -0.38861
 Alpha  occ. eigenvalues --   -0.38513  -0.38465  -0.38327  -0.38141  -0.37947
 Alpha  occ. eigenvalues --   -0.37869  -0.37704  -0.37372  -0.37151  -0.37107
 Alpha  occ. eigenvalues --   -0.36996  -0.36952  -0.36655  -0.36409  -0.36133
 Alpha  occ. eigenvalues --   -0.36045  -0.36017  -0.35331  -0.34908  -0.34631
 Alpha  occ. eigenvalues --   -0.34341  -0.34174  -0.33641  -0.33179  -0.32969
 Alpha  occ. eigenvalues --   -0.32896  -0.32773  -0.32695  -0.32497  -0.32244
 Alpha  occ. eigenvalues --   -0.31445  -0.31384  -0.30846  -0.30154  -0.30092
 Alpha  occ. eigenvalues --   -0.29873  -0.29686  -0.28551  -0.28128  -0.27916
 Alpha  occ. eigenvalues --   -0.26960  -0.26459  -0.26145  -0.24066  -0.21969
 Alpha  occ. eigenvalues --   -0.19300
 Alpha virt. eigenvalues --   -0.07233  -0.03686  -0.01099   0.01209   0.01483
 Alpha virt. eigenvalues --    0.04304   0.04441   0.04924   0.05427   0.06092
 Alpha virt. eigenvalues --    0.06654   0.07742   0.09456   0.10057   0.10139

 Mulliken charges:
               1
     1  Mg   0.833035
     2  C    0.149769
     3  C   -0.165045
     4  C   -0.166149
     5  C   -0.207647
     6  N   -0.644135
     7  C    0.317722
     8  C   -0.169304
     9  C   -0.133657
    10  C    0.336499
    11  C   -0.305668
    12  C   -0.193464
    13  C   -0.252708
    14  C    0.643785
    15  O   -0.501396
    16  O   -0.500492
    17  N   -0.672901
    18  C    0.325761
    19  C   -0.018825
    20  C    0.148990
    21  C    0.208080
    22  C   -0.389779
    23  C   -0.142859
    24  C   -0.257658
    25  N   -0.670367
    26  C    0.292847
    27  C    0.056545
    28  C   -0.001714
    29  C    0.272137
    30  C   -0.362239
    31  C   -0.229679
    32  C   -0.302233
    33  N   -0.769152
    34  C    0.293656
    35  C    0.036331
    36  C    0.092533
    37  C    0.257883
    38  C   -0.389732
    39  C    0.344081
    40  O   -0.497895
    41  C   -0.347960
    42  C    0.642847
    43  O   -0.541077
    44  O   -0.393848
    45  C   -0.095142
    46  C   -0.024354
    47  C   -0.115543
    48  C    0.108798
    49  C   -0.365660
    50  C   -0.209375
    51  C   -0.162035
    52  C   -0.188607
    53  C   -0.057593
    54  C   -0.316703
    55  C   -0.193361
    56  C   -0.172835
    57  C   -0.183901
    58  C   -0.053415
    59  C   -0.310738
    60  C   -0.175624
    61  C   -0.179180
    62  C   -0.148712
    63  C   -0.042329
    64  C   -0.315582
    65  C   -0.302228
    66  H    0.077133
    67  H    0.067840
    68  H    0.083978
    69  H    0.124239
    70  H    0.100758
    71  H    0.095714
    72  H    0.091727
    73  H    0.127602
    74  H    0.081588
    75  H    0.113919
    76  H    0.125950
    77  H    0.160113
    78  H    0.107886
    79  H    0.126954
    80  H    0.103947
    81  H    0.099235
    82  H    0.088466
    83  H    0.109719
    84  H    0.134118
    85  H    0.099804
    86  H    0.143270
    87  H    0.107600
    88  H    0.107057
    89  H    0.120644
    90  H    0.097565
    91  H    0.091595
    92  H    0.099392
    93  H    0.133762
    94  H    0.135002
    95  H    0.158996
    96  H    0.152342
    97  H    0.124644
    98  H    0.129944
    99  H    0.156439
   100  H    0.128852
   101  H    0.092837
   102  H    0.105428
   103  H    0.115181
   104  H    0.129481
   105  H    0.082320
   106  H    0.105703
   107  H    0.108140
   108  H    0.097830
   109  H    0.070296
   110  H    0.095927
   111  H    0.084251
   112  H    0.101839
   113  H    0.108908
   114  H    0.095306
   115  H    0.084181
   116  H    0.081774
   117  H    0.121019
   118  H    0.103415
   119  H    0.093286
   120  H    0.067391
   121  H    0.023862
   122  H    0.103444
   123  H    0.096861
   124  H    0.116899
   125  H    0.104473
   126  H    0.087140
   127  H    0.102115
   128  H    0.099074
   129  H    0.085982
   130  H    0.038932
   131  H    0.063108
   132  H    0.099218
   133  H    0.090708
   134  H    0.098667
   135  H    0.115116
   136  H    0.103292
   137  H    0.097999
 Sum of Mulliken charges =  -0.00000

 Dipole moment (field-independent basis, Debye):
    X=              2.6105    Y=              2.8571    Z=             -0.4111  Tot=              3.8919
 Quadrupole moment (field-independent basis, Debye-Ang):
   XX=           -322.5855   YY=           -394.7816   ZZ=           -396.1265
   XY=            -12.6274   XZ=             14.0329   YZ=             -6.7497

 Normal termination of Gaussian 16 at Sun Sep 22 22:05:37 2019.
