 Gaussian 16, Revision A.03,
 Gaussian 16:  ES64L-G16RevA.03 25-Dec-2016

 ----------------------------------------------------------------------
 # td=(NStates=1) iop(3/107=0140000000,3/108=0140000000) CAM-B3LYP/6-31
 G(d,p)
 ----------------------------------------------------------------------

 --
 TD
 --
 Symbolic Z-matrix:
 Charge =  0 Multiplicity = 1

                         Standard orientation:
 ---------------------------------------------------------------------
 Center     Atomic      Atomic             Coordinates (Angstroms)
 Number     Number       Type             X           Y           Z
 ---------------------------------------------------------------------
      1         12           0       -7.077408    0.588657    0.052819
      2          6           0       -4.835237   -1.906690    0.426925
      3          6           0       -4.809961    2.822612    1.107946
      4          6           0       -9.348183    3.178256   -0.366375
      5          6           0       -9.531608   -1.686693   -0.859216
      6          7           0       -5.078540    0.443215    0.624318
      7          6           0       -4.361635   -0.673593    0.728548
      8          6           0       -2.946575   -0.433231    1.181947
      9          6           0       -3.038354    1.011178    1.583991
     10          6           0       -4.436418    1.445154    1.147967
     11          6           0       -2.812125    1.211901    3.031015
     12          6           0       -1.942070   -0.591834   -0.122380
     13          6           0       -0.431501   -0.592197    0.412058
     14          6           0        0.584799   -0.747131   -0.715662
     15          8           0        0.288089   -1.121962   -1.836827
     16          8           0        1.792971   -0.504491   -0.195682
     17          7           0       -7.102255    2.609639    0.363346
     18          6           0       -5.963475    3.416419    0.850420
     19          6           0       -6.338747    4.811904    0.725670
     20          6           0       -7.611474    4.820558    0.366813
     21          6           0       -8.033809    3.418426    0.127112
     22          6           0       -5.489190    5.887419    1.144100
     23          6           0       -8.463590    6.098705    0.058460
     24          6           0       -8.487221    7.219779    0.704726
     25          7           0       -9.024649    0.703147   -0.643779
     26          6           0       -9.768376    1.849090   -0.612548
     27          6           0      -11.158911    1.506374   -1.080128
     28          6           0      -11.250488    0.152181   -1.110328
     29          6           0       -9.947006   -0.364085   -0.843308
     30          6           0      -12.286125    2.543383   -1.127988
     31          6           0      -12.470673   -0.650003   -1.601105
     32          6           0      -12.375464   -1.068711   -3.121483
     33          7           0       -7.327003   -1.373745   -0.095427
     34          6           0       -8.324347   -2.249456   -0.597187
     35          6           0       -7.916418   -3.647302   -0.482218
     36          6           0       -6.586968   -3.507027   -0.183002
     37          6           0       -6.220252   -2.190553    0.002769
     38          6           0       -8.625264   -4.937114   -0.793480
     39          6           0       -5.340137   -4.383726    0.162973
     40          8           0       -5.297724   -5.629257    0.198449
     41          6           0       -4.191415   -3.344794    0.491386
     42          6           0       -3.592093   -3.783321    1.871657
     43          8           0       -3.848032   -3.157928    2.934172
     44          8           0       -2.767014   -4.707585    1.684537
     45          6           0       -2.161672   -5.178511    2.990239
     46          6           0        2.844508   -0.772966   -1.195336
     47          6           0        4.080180   -0.367952   -0.509849
     48          6           0        5.160924    0.370435   -0.878734
     49          6           0        5.184272    1.283624   -2.060291
     50          6           0        6.397640    0.364098   -0.040924
     51          6           0        7.625371   -0.000967   -0.850987
     52          6           0        8.896487   -0.031645   -0.071772
     53          6           0       10.218866   -0.515929   -0.740270
     54          6           0       10.049598   -2.057685   -1.145284
     55          6           0       11.329983   -0.270050    0.100171
     56          6           0       12.741642   -0.604618   -0.683150
     57          6           0       14.005805   -0.162782    0.203918
     58          6           0       15.320560   -0.225927   -0.510518
     59          6           0       15.592004   -1.665269   -1.003217
     60          6           0       16.448368    0.218026    0.345388
     61          6           0       17.813516    0.658363   -0.266134
     62          6           0       18.832048    1.260757    0.772893
     63          6           0       20.232674    1.395603    0.193266
     64          6           0       20.307508    2.201161   -1.104294
     65          6           0       21.179702    1.927818    1.304082
     66          1           0       -3.893068    3.590268    1.320334
     67          1           0      -10.110650    3.958385   -0.429729
     68          1           0      -10.341148   -2.376578   -1.317031
     69          1           0       -2.567801   -1.154592    1.933694
     70          1           0       -2.385930    1.748265    0.926597
     71          1           0       -1.842466    0.668846    3.394564
     72          1           0       -2.989891    2.288382    3.429899
     73          1           0       -3.558278    0.549507    3.616108
     74          1           0       -2.188590   -1.444272   -0.666534
     75          1           0       -1.905402    0.287247   -0.789972
     76          1           0       -0.298830    0.414821    0.821296
     77          1           0        0.054824   -1.266923    1.107533
     78          1           0       -5.616952    6.701877    0.395892
     79          1           0       -5.647802    6.390935    2.173194
     80          1           0       -4.351354    5.761607    1.072789
     81          1           0       -9.082775    5.999942   -0.995947
     82          1           0       -9.147631    7.902164    0.335904
     83          1           0       -7.711930    7.398225    1.655626
     84          1           0      -12.263656    3.249508   -1.944402
     85          1           0      -13.313277    2.006205   -1.252795
     86          1           0      -12.452891    3.157942   -0.348260
     87          1           0      -12.632230   -1.419479   -0.976316
     88          1           0      -13.310341    0.114412   -1.485611
     89          1           0      -13.109494   -1.902318   -3.397891
     90          1           0      -12.442456   -0.326229   -3.712322
     91          1           0      -11.490764   -1.621580   -3.077654
     92          1           0       -9.132302   -4.700953   -1.663456
     93          1           0       -7.801631   -5.895688   -1.077811
     94          1           0       -9.518306   -5.141214   -0.145448
     95          1           0       -3.499053   -3.554942   -0.293229
     96          1           0       -1.742322   -4.272280    3.421707
     97          1           0       -2.910839   -5.679930    3.764190
     98          1           0       -1.310919   -5.942499    2.727067
     99          1           0        3.108809   -1.757663   -1.411649
    100          1           0        2.595915   -0.133184   -1.970515
    101          1           0        4.371293   -1.050426    0.436117
    102          1           0        4.274241    1.016648   -2.632223
    103          1           0        5.156494    2.373177   -1.746844
    104          1           0        6.006130    0.988148   -2.750650
    105          1           0        6.402582    1.490486    0.185804
    106          1           0        6.250534   -0.054875    1.075828
    107          1           0        7.435856   -1.016924   -1.658732
    108          1           0        7.704005    0.807896   -1.680976
    109          1           0        8.925227    1.236818   -0.036555
    110          1           0        8.601396   -0.245154    1.043959
    111          1           0       10.372809   -0.069636   -1.776885
    112          1           0        8.936115   -2.019597   -1.506944
    113          1           0       10.724391   -2.689384   -1.963206
    114          1           0       10.022428   -2.670947   -0.259942
    115          1           0       11.364049    0.647058    0.558137
    116          1           0       11.487562   -0.965732    0.829610
    117          1           0       12.647405   -1.676652   -1.229518
    118          1           0       12.801146    0.152646   -1.553627
    119          1           0       13.739609    0.673402    0.469401
    120          1           0       13.951822   -0.735704    1.073443
    121          1           0       15.142260    0.427945   -1.551376
    122          1           0       15.624639   -2.395599   -0.120546
    123          1           0       14.947869   -2.034192   -1.613566
    124          1           0       16.553575   -1.527266   -1.717223
    125          1           0       16.255322    1.137735    0.966041
    126          1           0       16.669206   -0.591426    1.126331
    127          1           0       18.338345   -0.271492   -0.696707
    128          1           0       17.593804    1.221530   -1.101705
    129          1           0       18.458992    2.343606    0.939478
    130          1           0       19.040896    0.639534    1.757981
    131          1           0       20.660499    0.278646    0.031400
    132          1           0       19.862103    3.120832   -0.935486
    133          1           0       21.350666    2.515713   -1.257078
    134          1           0       19.822759    1.562946   -1.900742
    135          1           0       21.133201    1.102936    2.218549
    136          1           0       22.219825    2.249694    1.025622
    137          1           0       20.774068    2.890730    2.007146
 ---------------------------------------------------------------------

 SCF Done:  E(RCAM-B3LYP) =  -2933.41710461     A.U. after   16 cycles

 Excitation energies and oscillator strengths:

 Excited State   1:      Singlet-A      2.0535 eV  603.76 nm  f=0.2361  <S**2>=0.000
     240 -> 243       -0.21219
     241 -> 242        0.67296
 This state for optimization and/or second-order correction.
 Total Energy, E(TD-HF/TD-DFT) =  -2933.34163837
 Copying the excited state density for this state as the 1-particle RhoCI density.

 The electronic state is 1-A.
 Alpha  occ. eigenvalues --  -46.79243 -19.24812 -19.22820 -19.16677 -19.16341
 Alpha  occ. eigenvalues --  -19.15697 -14.38165 -14.34923 -14.34375 -14.34034
 Alpha  occ. eigenvalues --  -10.34823 -10.34124 -10.30959 -10.29922 -10.27051
 Alpha  occ. eigenvalues --  -10.26936 -10.25394 -10.25211 -10.24585 -10.24515
 Alpha  occ. eigenvalues --  -10.24275 -10.24066 -10.24022 -10.23992 -10.23806
 Alpha  occ. eigenvalues --  -10.23783 -10.23527 -10.23477 -10.23424 -10.23368
 Alpha  occ. eigenvalues --  -10.23215 -10.23153 -10.23106 -10.23061 -10.22965
 Alpha  occ. eigenvalues --  -10.22964 -10.22932 -10.22786 -10.22764 -10.22763
 Alpha  occ. eigenvalues --  -10.22737 -10.22623 -10.22558 -10.22489 -10.22473
 Alpha  occ. eigenvalues --  -10.22437 -10.22345 -10.22236 -10.22118 -10.22115
 Alpha  occ. eigenvalues --  -10.22079 -10.21950 -10.21278 -10.21262 -10.21146
 Alpha  occ. eigenvalues --  -10.21087 -10.20921 -10.20918 -10.20655 -10.20035
 Alpha  occ. eigenvalues --  -10.20032 -10.19969 -10.19211 -10.19168 -10.18633
 Alpha  occ. eigenvalues --   -3.07967  -1.82897  -1.82452  -1.82370  -1.16292
 Alpha  occ. eigenvalues --   -1.13404  -1.04543  -1.04184  -1.02352  -1.02051
 Alpha  occ. eigenvalues --   -0.99341  -0.97026  -0.95426  -0.86944  -0.86117
 Alpha  occ. eigenvalues --   -0.85745  -0.85130  -0.84883  -0.84696  -0.83413
 Alpha  occ. eigenvalues --   -0.83372  -0.82496  -0.82137  -0.81541  -0.81088
 Alpha  occ. eigenvalues --   -0.80212  -0.79668  -0.78513  -0.78177  -0.77537
 Alpha  occ. eigenvalues --   -0.77107  -0.76308  -0.76071  -0.74656  -0.73446
 Alpha  occ. eigenvalues --   -0.72878  -0.72587  -0.71826  -0.71674  -0.70957
 Alpha  occ. eigenvalues --   -0.70690  -0.70120  -0.69375  -0.68476  -0.67589
 Alpha  occ. eigenvalues --   -0.66606  -0.66309  -0.65551  -0.64596  -0.62847
 Alpha  occ. eigenvalues --   -0.62166  -0.61913  -0.60799  -0.60183  -0.59989
 Alpha  occ. eigenvalues --   -0.59749  -0.59457  -0.58785  -0.58032  -0.57664
 Alpha  occ. eigenvalues --   -0.56680  -0.56215  -0.56003  -0.55400  -0.55068
 Alpha  occ. eigenvalues --   -0.54021  -0.53654  -0.53320  -0.53102  -0.52907
 Alpha  occ. eigenvalues --   -0.52338  -0.51619  -0.51007  -0.50911  -0.50797
 Alpha  occ. eigenvalues --   -0.50496  -0.50270  -0.50123  -0.49592  -0.49423
 Alpha  occ. eigenvalues --   -0.49155  -0.48944  -0.48708  -0.48526  -0.48250
 Alpha  occ. eigenvalues --   -0.48117  -0.47641  -0.47210  -0.46745  -0.46508
 Alpha  occ. eigenvalues --   -0.46342  -0.46187  -0.45810  -0.45675  -0.45578
 Alpha  occ. eigenvalues --   -0.45372  -0.45036  -0.44953  -0.44838  -0.44542
 Alpha  occ. eigenvalues --   -0.44259  -0.44125  -0.43899  -0.43854  -0.43540
 Alpha  occ. eigenvalues --   -0.43242  -0.43137  -0.42995  -0.42713  -0.42498
 Alpha  occ. eigenvalues --   -0.42208  -0.42025  -0.41876  -0.41278  -0.41161
 Alpha  occ. eigenvalues --   -0.40953  -0.40775  -0.40657  -0.40611  -0.40501
 Alpha  occ. eigenvalues --   -0.40306  -0.40019  -0.39892  -0.39693  -0.39574
 Alpha  occ. eigenvalues --   -0.39453  -0.39360  -0.39170  -0.38996  -0.38828
 Alpha  occ. eigenvalues --   -0.38749  -0.38635  -0.38423  -0.38192  -0.38138
 Alpha  occ. eigenvalues --   -0.37955  -0.37456  -0.37194  -0.37056  -0.37035
 Alpha  occ. eigenvalues --   -0.36723  -0.36638  -0.36388  -0.36216  -0.36122
 Alpha  occ. eigenvalues --   -0.35737  -0.35359  -0.34960  -0.34929  -0.34439
 Alpha  occ. eigenvalues --   -0.34270  -0.34120  -0.33950  -0.33781  -0.33582
 Alpha  occ. eigenvalues --   -0.33381  -0.33245  -0.33026  -0.32884  -0.32517
 Alpha  occ. eigenvalues --   -0.32432  -0.31942  -0.31270  -0.30306  -0.30255
 Alpha  occ. eigenvalues --   -0.30027  -0.29901  -0.29370  -0.28132  -0.26867
 Alpha  occ. eigenvalues --   -0.26633  -0.26314  -0.26109  -0.25096  -0.21899
 Alpha  occ. eigenvalues --   -0.18786
 Alpha virt. eigenvalues --   -0.05898  -0.03390   0.00528   0.03010   0.04164
 Alpha virt. eigenvalues --    0.04648   0.04791   0.05079   0.05281   0.06242
 Alpha virt. eigenvalues --    0.06857   0.07757   0.08377   0.09322   0.09545

 Mulliken charges:
               1
     1  Mg   0.806988
     2  C    0.066258
     3  C   -0.236795
     4  C   -0.175879
     5  C   -0.221067
     6  N   -0.621634
     7  C    0.302382
     8  C   -0.145509
     9  C   -0.132583
    10  C    0.349709
    11  C   -0.310916
    12  C   -0.173690
    13  C   -0.273515
    14  C    0.595498
    15  O   -0.480790
    16  O   -0.463382
    17  N   -0.718415
    18  C    0.285910
    19  C    0.107044
    20  C   -0.040402
    21  C    0.389362
    22  C   -0.404943
    23  C   -0.071352
    24  C   -0.220914
    25  N   -0.678629
    26  C    0.304217
    27  C    0.014231
    28  C    0.020874
    29  C    0.297636
    30  C   -0.392606
    31  C   -0.236711
    32  C   -0.293738
    33  N   -0.713325
    34  C    0.250881
    35  C    0.052522
    36  C   -0.020974
    37  C    0.299785
    38  C   -0.378453
    39  C    0.374829
    40  O   -0.475536
    41  C   -0.309149
    42  C    0.621730
    43  O   -0.521559
    44  O   -0.383038
    45  C   -0.108171
    46  C    0.022328
    47  C   -0.150040
    48  C    0.126827
    49  C   -0.364352
    50  C   -0.217412
    51  C   -0.155271
    52  C   -0.171559
    53  C   -0.042154
    54  C   -0.318386
    55  C   -0.158907
    56  C   -0.226226
    57  C   -0.136487
    58  C   -0.057640
    59  C   -0.283701
    60  C   -0.158833
    61  C   -0.189361
    62  C   -0.146409
    63  C   -0.042821
    64  C   -0.305944
    65  C   -0.294697
    66  H    0.074259
    67  H    0.087116
    68  H    0.067736
    69  H    0.124588
    70  H    0.093635
    71  H    0.101327
    72  H    0.103971
    73  H    0.119635
    74  H    0.126301
    75  H    0.114668
    76  H    0.130698
    77  H    0.132138
    78  H    0.127013
    79  H    0.121793
    80  H    0.103857
    81  H    0.085393
    82  H    0.105715
    83  H    0.091429
    84  H    0.115703
    85  H    0.093390
    86  H    0.135111
    87  H    0.112788
    88  H    0.086923
    89  H    0.088035
    90  H    0.122567
    91  H    0.115928
    92  H    0.132956
    93  H    0.127310
    94  H    0.123985
    95  H    0.160729
    96  H    0.152034
    97  H    0.148057
    98  H    0.126427
    99  H    0.148586
   100  H    0.128268
   101  H    0.064869
   102  H    0.104431
   103  H    0.121324
   104  H    0.124104
   105  H    0.097044
   106  H    0.089102
   107  H    0.049898
   108  H    0.100246
   109  H    0.064509
   110  H    0.096107
   111  H    0.091700
   112  H    0.086349
   113  H    0.087558
   114  H    0.108596
   115  H    0.094124
   116  H    0.110015
   117  H    0.083306
   118  H    0.073205
   119  H    0.098911
   120  H    0.089704
   121  H    0.047242
   122  H    0.089752
   123  H    0.115074
   124  H    0.076353
   125  H    0.079019
   126  H    0.082267
   127  H    0.078309
   128  H    0.106824
   129  H    0.083209
   130  H    0.082692
   131  H    0.069836
   132  H    0.111448
   133  H    0.099199
   134  H    0.106859
   135  H    0.075221
   136  H    0.103928
   137  H    0.062457
 Sum of Mulliken charges =  -0.00000

 Dipole moment (field-independent basis, Debye):
    X=              4.0738    Y=              4.5039    Z=              0.8546  Tot=              6.1328
 Quadrupole moment (field-independent basis, Debye-Ang):
   XX=           -387.0954   YY=           -385.7056   ZZ=           -398.3983
   XY=            -21.7013   XZ=              8.7037   YZ=             -5.4121

 Normal termination of Gaussian 16 at Tue Sep 24 05:30:41 2019.
