 Gaussian 16, Revision A.03,
 Gaussian 16:  ES64L-G16RevA.03 25-Dec-2016

 ----------------------------------------------------------------------
 # td=(NStates=1) iop(3/107=0140000000,3/108=0140000000) CAM-B3LYP/6-31
 G(d,p)
 ----------------------------------------------------------------------

 --
 TD
 --
 Symbolic Z-matrix:
 Charge =  0 Multiplicity = 1

                         Standard orientation:
 ---------------------------------------------------------------------
 Center     Atomic      Atomic             Coordinates (Angstroms)
 Number     Number       Type             X           Y           Z
 ---------------------------------------------------------------------
      1         12           0       -7.137705    0.626966    0.005949
      2          6           0       -4.872086   -1.969565    0.503472
      3          6           0       -4.837794    2.808453    1.281706
      4          6           0       -9.446354    3.195670   -0.570473
      5          6           0       -9.567868   -1.639822   -0.950396
      6          7           0       -5.080270    0.402467    0.832783
      7          6           0       -4.350671   -0.774543    0.866137
      8          6           0       -2.882776   -0.395527    1.418955
      9          6           0       -3.085648    1.094634    1.850148
     10          6           0       -4.420008    1.457454    1.279880
     11          6           0       -2.998868    1.098637    3.342562
     12          6           0       -2.054343   -0.610279    0.143070
     13          6           0       -0.570373   -0.531794    0.544601
     14          6           0        0.404505   -0.725864   -0.579094
     15          8           0        0.223060   -1.015139   -1.752139
     16          8           0        1.671614   -0.547172   -0.094935
     17          7           0       -7.204331    2.662661    0.324797
     18          6           0       -6.021677    3.363044    0.859514
     19          6           0       -6.322768    4.806224    0.768944
     20          6           0       -7.670146    4.978687    0.281444
     21          6           0       -8.122539    3.569214    0.047784
     22          6           0       -5.380672    5.936324    1.252641
     23          6           0       -8.482569    6.052013   -0.001536
     24          6           0       -8.352003    7.281318    0.667079
     25          7           0       -9.225116    0.722894   -0.666692
     26          6           0       -9.878643    1.853416   -0.641820
     27          6           0      -11.273302    1.577372   -1.166519
     28          6           0      -11.218356    0.203645   -1.321846
     29          6           0       -9.947178   -0.292318   -1.025020
     30          6           0      -12.367790    2.450499   -1.344017
     31          6           0      -12.366224   -0.613943   -1.756791
     32          6           0      -12.281414   -1.301055   -3.243132
     33          7           0       -7.209178   -1.313782   -0.251328
     34          6           0       -8.267748   -2.178904   -0.620577
     35          6           0       -7.814597   -3.576306   -0.535655
     36          6           0       -6.484993   -3.553961   -0.133540
     37          6           0       -6.180319   -2.060936   -0.035405
     38          6           0       -8.704964   -4.792538   -0.871050
     39          6           0       -5.417861   -4.455579    0.245565
     40          8           0       -5.154433   -5.613338    0.299781
     41          6           0       -4.185979   -3.271075    0.597090
     42          6           0       -3.677052   -3.605846    1.958714
     43          8           0       -3.803542   -3.051022    2.952421
     44          8           0       -2.734888   -4.609170    1.759324
     45          6           0       -2.224914   -5.112857    2.944319
     46          6           0        2.816228   -0.743199   -1.114309
     47          6           0        4.097256   -0.421942   -0.458032
     48          6           0        5.120700    0.197361   -1.093438
     49          6           0        5.153361    0.756529   -2.481446
     50          6           0        6.486337    0.379985   -0.268860
     51          6           0        7.631654   -0.381669   -0.912657
     52          6           0        8.922755   -0.287970   -0.076970
     53          6           0       10.293307   -0.832767   -0.872226
     54          6           0       10.113955   -2.264055   -1.199075
     55          6           0       11.482611   -0.410087   -0.008811
     56          6           0       12.850301   -0.619729   -0.711321
     57          6           0       13.987061   -0.280188    0.343766
     58          6           0       15.384643   -0.207105   -0.364532
     59          6           0       15.798507   -1.538170   -0.896395
     60          6           0       16.519891    0.416910    0.475089
     61          6           0       17.897326    0.610749   -0.226125
     62          6           0       18.835436    1.411575    0.663137
     63          6           0       20.236331    1.583436    0.128140
     64          6           0       20.273662    2.456817   -1.194313
     65          6           0       21.195059    2.222982    1.168090
     66          1           0       -4.176953    3.764202    1.613271
     67          1           0      -10.105241    3.910991   -0.876607
     68          1           0      -10.366544   -2.363442   -1.090208
     69          1           0       -2.675352   -1.182721    2.178138
     70          1           0       -2.245256    1.714927    1.196866
     71          1           0       -1.900056    0.998297    3.718033
     72          1           0       -3.368307    1.991150    3.819119
     73          1           0       -3.721739    0.287543    3.800990
     74          1           0       -2.351568   -1.455899   -0.202694
     75          1           0       -2.318501   -0.071645   -0.746901
     76          1           0       -0.330822    0.344852    1.150526
     77          1           0       -0.320545   -1.219039    1.410040
     78          1           0       -5.530785    6.796526    0.552785
     79          1           0       -5.372018    6.373609    2.329219
     80          1           0       -4.258009    5.441735    1.019143
     81          1           0       -9.345702    5.926684   -0.610241
     82          1           0       -9.070727    8.182371    0.276038
     83          1           0       -7.718924    7.359066    1.521978
     84          1           0      -12.215748    2.900888   -2.429555
     85          1           0      -13.420615    2.012039   -1.363856
     86          1           0      -12.388091    3.119801   -0.435198
     87          1           0      -12.361150   -1.422819   -0.863802
     88          1           0      -13.357792    0.019176   -1.574936
     89          1           0      -13.100944   -1.871651   -3.532972
     90          1           0      -11.970342   -0.341208   -3.975734
     91          1           0      -11.447016   -1.904515   -3.330640
     92          1           0       -8.626047   -5.104319   -2.176876
     93          1           0       -8.060611   -5.573696   -0.468172
     94          1           0       -9.710491   -4.618519   -0.480287
     95          1           0       -3.475086   -3.538404   -0.009632
     96          1           0       -1.688423   -4.312605    3.471132
     97          1           0       -2.801403   -5.666702    3.607316
     98          1           0       -1.362389   -5.891706    2.776585
     99          1           0        2.718843   -1.711110   -1.552620
    100          1           0        2.605578   -0.198638   -1.928474
    101          1           0        4.285859   -0.792673    0.560408
    102          1           0        4.157210    1.084873   -2.703625
    103          1           0        5.575616    1.715873   -2.445042
    104          1           0        5.605556    0.154261   -3.210905
    105          1           0        6.806926    1.342898   -0.097712
    106          1           0        6.355262   -0.043281    0.856597
    107          1           0        7.309563   -1.419729   -0.973641
    108          1           0        7.674168    0.219960   -1.738682
    109          1           0        9.168894    0.617838    0.130187
    110          1           0        8.796943   -1.015145    0.723833
    111          1           0       10.256698   -0.374154   -1.958289
    112          1           0        9.357273   -2.273719   -1.929667
    113          1           0       11.130235   -2.504184   -1.613597
    114          1           0        9.943491   -2.979557   -0.297612
    115          1           0       11.449437    0.586112    0.353569
    116          1           0       11.459422   -1.028684    0.942138
    117          1           0       12.935781   -1.594611   -1.028953
    118          1           0       13.011616    0.080369   -1.455406
    119          1           0       13.641824    0.797918    0.689777
    120          1           0       14.036019   -0.883957    1.133324
    121          1           0       15.294966    0.372959   -1.264369
    122          1           0       15.948371   -2.361636    0.014401
    123          1           0       15.061786   -2.028450   -1.646319
    124          1           0       16.693362   -1.344285   -1.367687
    125          1           0       16.198822    1.198013    0.858477
    126          1           0       16.688229   -0.369626    1.421565
    127          1           0       18.334804   -0.273010   -0.452192
    128          1           0       18.057829    1.260329   -1.275813
    129          1           0       18.561494    2.517346    0.616276
    130          1           0       18.866997    1.067010    1.681957
    131          1           0       20.750731    0.682558   -0.345977
    132          1           0       19.812213    3.407117   -0.902375
    133          1           0       21.265561    2.493479   -1.697489
    134          1           0       19.621866    1.851944   -1.818644
    135          1           0       21.092671    1.556025    2.223418
    136          1           0       22.217657    2.281890    1.099287
    137          1           0       20.861531    3.266056    1.324284
 ---------------------------------------------------------------------

 SCF Done:  E(RCAM-B3LYP) =  -2933.44204024     A.U. after   16 cycles

 Excitation energies and oscillator strengths:

 Excited State   1:      Singlet-A      1.8906 eV  655.78 nm  f=0.2930  <S**2>=0.000
     240 -> 243       -0.18913
     241 -> 242        0.67899
 This state for optimization and/or second-order correction.
 Total Energy, E(TD-HF/TD-DFT) =  -2933.37256038
 Copying the excited state density for this state as the 1-particle RhoCI density.

 The electronic state is 1-A.
 Alpha  occ. eigenvalues --  -46.81816 -19.20509 -19.20352 -19.17994 -19.17087
 Alpha  occ. eigenvalues --  -19.15991 -14.38199 -14.36916 -14.36062 -14.34397
 Alpha  occ. eigenvalues --  -10.33794 -10.33317 -10.31801 -10.27069 -10.26300
 Alpha  occ. eigenvalues --  -10.26128 -10.26028 -10.25987 -10.25972 -10.25850
 Alpha  occ. eigenvalues --  -10.25421 -10.24727 -10.24657 -10.24642 -10.24418
 Alpha  occ. eigenvalues --  -10.24349 -10.24210 -10.23620 -10.23566 -10.23547
 Alpha  occ. eigenvalues --  -10.23516 -10.23464 -10.23375 -10.23295 -10.23279
 Alpha  occ. eigenvalues --  -10.23046 -10.22899 -10.22798 -10.22645 -10.22643
 Alpha  occ. eigenvalues --  -10.22566 -10.22373 -10.22010 -10.21995 -10.21800
 Alpha  occ. eigenvalues --  -10.21705 -10.21587 -10.21578 -10.21492 -10.20920
 Alpha  occ. eigenvalues --  -10.20856 -10.20818 -10.20805 -10.20774 -10.20716
 Alpha  occ. eigenvalues --  -10.20688 -10.20685 -10.20592 -10.20542 -10.20281
 Alpha  occ. eigenvalues --  -10.20162 -10.20134 -10.19854 -10.19685 -10.19402
 Alpha  occ. eigenvalues --   -3.10188  -1.85141  -1.84627  -1.84614  -1.14501
 Alpha  occ. eigenvalues --   -1.10364  -1.08703  -1.06303  -1.01778  -1.00865
 Alpha  occ. eigenvalues --   -1.00052  -0.99019  -0.96844  -0.87475  -0.85769
 Alpha  occ. eigenvalues --   -0.85467  -0.85040  -0.84285  -0.84051  -0.83835
 Alpha  occ. eigenvalues --   -0.83419  -0.83199  -0.82734  -0.82489  -0.81144
 Alpha  occ. eigenvalues --   -0.80471  -0.78925  -0.78500  -0.78115  -0.77023
 Alpha  occ. eigenvalues --   -0.76521  -0.76216  -0.75963  -0.75354  -0.73580
 Alpha  occ. eigenvalues --   -0.72523  -0.71751  -0.71498  -0.71111  -0.70757
 Alpha  occ. eigenvalues --   -0.70523  -0.70472  -0.70195  -0.68669  -0.68295
 Alpha  occ. eigenvalues --   -0.67094  -0.66736  -0.65456  -0.64896  -0.64529
 Alpha  occ. eigenvalues --   -0.62940  -0.62825  -0.61408  -0.61051  -0.60907
 Alpha  occ. eigenvalues --   -0.60531  -0.59194  -0.58640  -0.58401  -0.57681
 Alpha  occ. eigenvalues --   -0.56995  -0.56381  -0.56054  -0.55755  -0.55086
 Alpha  occ. eigenvalues --   -0.54778  -0.54140  -0.53990  -0.53102  -0.52217
 Alpha  occ. eigenvalues --   -0.52039  -0.51652  -0.51450  -0.51343  -0.50814
 Alpha  occ. eigenvalues --   -0.50425  -0.50286  -0.50102  -0.49860  -0.49751
 Alpha  occ. eigenvalues --   -0.49353  -0.48782  -0.48364  -0.48295  -0.47942
 Alpha  occ. eigenvalues --   -0.47799  -0.47612  -0.47519  -0.47236  -0.47006
 Alpha  occ. eigenvalues --   -0.46829  -0.46589  -0.46492  -0.46292  -0.45977
 Alpha  occ. eigenvalues --   -0.45907  -0.45550  -0.45476  -0.45050  -0.44932
 Alpha  occ. eigenvalues --   -0.44611  -0.44608  -0.44274  -0.44073  -0.44024
 Alpha  occ. eigenvalues --   -0.43604  -0.43411  -0.43236  -0.43160  -0.43086
 Alpha  occ. eigenvalues --   -0.42614  -0.42503  -0.42332  -0.42183  -0.42069
 Alpha  occ. eigenvalues --   -0.41955  -0.41879  -0.41620  -0.41505  -0.41110
 Alpha  occ. eigenvalues --   -0.40870  -0.40631  -0.40330  -0.40209  -0.39798
 Alpha  occ. eigenvalues --   -0.39563  -0.39536  -0.39337  -0.39188  -0.38992
 Alpha  occ. eigenvalues --   -0.38941  -0.38654  -0.38497  -0.38437  -0.38192
 Alpha  occ. eigenvalues --   -0.38055  -0.37791  -0.37302  -0.37144  -0.37084
 Alpha  occ. eigenvalues --   -0.36937  -0.36586  -0.36464  -0.36403  -0.35829
 Alpha  occ. eigenvalues --   -0.35614  -0.35416  -0.35069  -0.34854  -0.34553
 Alpha  occ. eigenvalues --   -0.34306  -0.34107  -0.33900  -0.33679  -0.33630
 Alpha  occ. eigenvalues --   -0.33480  -0.33041  -0.32616  -0.32121  -0.32005
 Alpha  occ. eigenvalues --   -0.31912  -0.31632  -0.31333  -0.30973  -0.29869
 Alpha  occ. eigenvalues --   -0.29770  -0.29537  -0.29251  -0.28890  -0.28439
 Alpha  occ. eigenvalues --   -0.27017  -0.26692  -0.24932  -0.24373  -0.22087
 Alpha  occ. eigenvalues --   -0.19521
 Alpha virt. eigenvalues --   -0.07505  -0.04057  -0.01202   0.01164   0.03778
 Alpha virt. eigenvalues --    0.04032   0.04402   0.04668   0.04944   0.05181
 Alpha virt. eigenvalues --    0.06442   0.08561   0.09177   0.09439   0.09787

 Mulliken charges:
               1
     1  Mg   0.829315
     2  C    0.090465
     3  C   -0.183106
     4  C   -0.153346
     5  C   -0.181503
     6  N   -0.619287
     7  C    0.248395
     8  C   -0.156481
     9  C   -0.125743
    10  C    0.342827
    11  C   -0.307630
    12  C   -0.154876
    13  C   -0.279505
    14  C    0.619514
    15  O   -0.492706
    16  O   -0.506363
    17  N   -0.691608
    18  C    0.302649
    19  C   -0.003577
    20  C    0.068030
    21  C    0.283385
    22  C   -0.367649
    23  C   -0.106298
    24  C   -0.246936
    25  N   -0.669025
    26  C    0.282078
    27  C    0.044360
    28  C    0.012452
    29  C    0.352853
    30  C   -0.396260
    31  C   -0.245537
    32  C   -0.305240
    33  N   -0.738912
    34  C    0.247155
    35  C    0.014706
    36  C    0.003152
    37  C    0.341258
    38  C   -0.345033
    39  C    0.345851
    40  O   -0.424389
    41  C   -0.355152
    42  C    0.618770
    43  O   -0.428318
    44  O   -0.454693
    45  C   -0.087522
    46  C    0.014842
    47  C   -0.122350
    48  C    0.102762
    49  C   -0.379431
    50  C   -0.235263
    51  C   -0.174709
    52  C   -0.160036
    53  C   -0.071976
    54  C   -0.292527
    55  C   -0.174133
    56  C   -0.182299
    57  C   -0.172205
    58  C   -0.072229
    59  C   -0.289805
    60  C   -0.136515
    61  C   -0.173892
    62  C   -0.153964
    63  C   -0.076654
    64  C   -0.314100
    65  C   -0.290537
    66  H    0.080252
    67  H    0.079170
    68  H    0.086812
    69  H    0.129419
    70  H    0.093635
    71  H    0.103652
    72  H    0.110695
    73  H    0.122377
    74  H    0.123170
    75  H    0.118938
    76  H    0.138253
    77  H    0.136620
    78  H    0.129922
    79  H    0.124418
    80  H    0.082226
    81  H    0.099058
    82  H    0.090555
    83  H    0.113278
    84  H    0.116278
    85  H    0.114240
    86  H    0.120481
    87  H    0.076231
    88  H    0.078629
    89  H    0.119926
    90  H    0.080476
    91  H    0.123362
    92  H    0.088113
    93  H    0.150475
    94  H    0.129805
    95  H    0.155937
    96  H    0.106375
    97  H    0.128375
    98  H    0.094110
    99  H    0.135684
   100  H    0.128423
   101  H    0.097100
   102  H    0.119482
   103  H    0.123482
   104  H    0.139650
   105  H    0.104932
   106  H    0.059082
   107  H    0.101321
   108  H    0.100687
   109  H    0.087676
   110  H    0.092025
   111  H    0.059503
   112  H    0.116529
   113  H    0.090489
   114  H    0.083328
   115  H    0.093780
   116  H    0.082994
   117  H    0.106594
   118  H    0.104061
   119  H    0.061364
   120  H    0.099175
   121  H    0.085657
   122  H    0.062587
   123  H    0.088624
   124  H    0.112868
   125  H    0.097720
   126  H    0.054960
   127  H    0.115934
   128  H    0.062171
   129  H    0.081756
   130  H    0.097529
   131  H    0.073397
   132  H    0.097345
   133  H    0.104595
   134  H    0.102501
   135  H    0.055495
   136  H    0.115023
   137  H    0.093711
 Sum of Mulliken charges =  -0.00000

 Dipole moment (field-independent basis, Debye):
    X=              0.9140    Y=              4.4218    Z=             -0.0469  Tot=              4.5155
 Quadrupole moment (field-independent basis, Debye-Ang):
   XX=           -343.4695   YY=           -397.1928   ZZ=           -396.3345
   XY=            -13.3550   XZ=              1.2726   YZ=             -0.5975

 Normal termination of Gaussian 16 at Tue Sep 17 21:06:54 2019.
