 Gaussian 09, Revision D.01,
 Gaussian 09:  ES64L-G09RevD.01 24-Apr-2013

 -------------------------------------
 # td=(NStates=1) CAM-B3LYP/6-31G(d,p)
 -------------------------------------

 --
 TD
 --
 Symbolic Z-matrix:
 Charge =  0 Multiplicity = 1

                         Standard orientation:
 ---------------------------------------------------------------------
 Center     Atomic      Atomic             Coordinates (Angstroms)
 Number     Number       Type             X           Y           Z
 ---------------------------------------------------------------------
      1         12           0       -7.107557    0.631466   -0.000783
      2          6           0       -4.846263   -2.014376    0.395194
      3          6           0       -4.822320    2.885696    1.096679
      4          6           0       -9.353425    3.152839   -0.452882
      5          6           0       -9.569860   -1.749571   -0.837916
      6          7           0       -5.073498    0.377868    0.696524
      7          6           0       -4.319635   -0.791189    0.840698
      8          6           0       -2.925150   -0.485923    1.272993
      9          6           0       -3.004529    0.954809    1.687764
     10          6           0       -4.393186    1.466092    1.090319
     11          6           0       -2.931893    1.219722    3.221141
     12          6           0       -1.858017   -0.720671    0.092186
     13          6           0       -0.458667   -0.586996    0.544439
     14          6           0        0.471982   -0.787712   -0.511482
     15          8           0        0.281890   -1.232559   -1.601724
     16          8           0        1.791032   -0.653051   -0.098373
     17          7           0       -7.059243    2.565680    0.187602
     18          6           0       -5.997300    3.373657    0.603706
     19          6           0       -6.392218    4.785527    0.718282
     20          6           0       -7.727570    4.890553    0.324240
     21          6           0       -8.133429    3.481871    0.039887
     22          6           0       -5.540022    5.803733    1.198353
     23          6           0       -8.553940    6.044340    0.133819
     24          6           0       -8.432182    7.173379    0.894292
     25          7           0       -9.118326    0.773024   -0.633692
     26          6           0       -9.896892    1.850878   -0.705321
     27          6           0      -11.283046    1.566813   -1.123761
     28          6           0      -11.285199    0.135370   -1.210000
     29          6           0       -9.898344   -0.388999   -1.013781
     30          6           0      -12.386227    2.568969   -1.277157
     31          6           0      -12.493492   -0.685709   -1.545395
     32          6           0      -12.532678   -1.050438   -3.099435
     33          7           0       -7.211547   -1.309104   -0.255270
     34          6           0       -8.303610   -2.224759   -0.430427
     35          6           0       -7.902182   -3.540597   -0.396932
     36          6           0       -6.520102   -3.508981   -0.135698
     37          6           0       -6.160929   -2.163148    0.033376
     38          6           0       -8.844147   -4.709778   -0.755657
     39          6           0       -5.454197   -4.340109    0.159267
     40          8           0       -5.316002   -5.542389    0.153023
     41          6           0       -4.165075   -3.355757    0.550545
     42          6           0       -3.601928   -3.610218    1.924383
     43          8           0       -3.703570   -3.026637    2.934539
     44          8           0       -2.917437   -4.770048    1.844189
     45          6           0       -2.304623   -5.201503    2.995279
     46          6           0        2.715827   -0.793474   -1.085794
     47          6           0        4.108597   -0.493790   -0.536093
     48          6           0        5.161440    0.384603   -0.932817
     49          6           0        4.981602    1.132067   -2.225895
     50          6           0        6.463251    0.506576   -0.217721
     51          6           0        7.746228   -0.100314   -1.078594
     52          6           0        8.979362   -0.002596   -0.221912
     53          6           0       10.227205   -0.453957   -0.953849
     54          6           0       10.157680   -1.868890   -1.524758
     55          6           0       11.516407   -0.179557   -0.043948
     56          6           0       12.866695   -0.332688   -0.843275
     57          6           0       14.079753   -0.077840    0.055724
     58          6           0       15.434811   -0.161029   -0.604734
     59          6           0       15.733527   -1.613523   -1.056009
     60          6           0       16.470889    0.431625    0.384728
     61          6           0       17.900358    0.557752   -0.095263
     62          6           0       18.888947    1.131195    0.853440
     63          6           0       20.368127    1.298663    0.327810
     64          6           0       20.480808    2.192717   -0.934751
     65          6           0       21.281707    1.812065    1.409524
     66          1           0       -4.157663    3.692035    1.720828
     67          1           0      -10.019199    3.838694   -0.600372
     68          1           0      -10.311974   -2.551636   -1.025133
     69          1           0       -2.724260   -1.141848    1.911445
     70          1           0       -2.373422    1.436088    1.040706
     71          1           0       -1.894669    0.937269    3.525187
     72          1           0       -3.395590    2.186444    3.359726
     73          1           0       -3.623701    0.592609    3.618673
     74          1           0       -1.945279   -1.823992   -0.157954
     75          1           0       -2.113295   -0.164704   -0.876543
     76          1           0       -0.391197    0.299023    0.903794
     77          1           0       -0.396119   -1.407399    1.314865
     78          1           0       -5.745628    6.771414    0.863779
     79          1           0       -5.676826    6.068897    2.202922
     80          1           0       -4.497567    5.574114    1.036930
     81          1           0       -9.182452    6.047913   -0.787178
     82          1           0       -9.111146    8.317700    1.038620
     83          1           0       -7.695970    7.325759    1.679045
     84          1           0      -12.106276    3.075008   -2.211271
     85          1           0      -13.253460    1.777322   -1.540447
     86          1           0      -12.621413    3.312076   -0.575106
     87          1           0      -12.373823   -1.658811   -1.249064
     88          1           0      -13.450035   -0.208090   -1.249894
     89          1           0      -13.348394   -1.732881   -3.289427
     90          1           0      -12.742030   -0.166711   -3.846779
     91          1           0      -11.588332   -1.528971   -3.335006
     92          1           0       -9.139697   -4.693152   -1.794620
     93          1           0       -8.385916   -5.735880   -0.839484
     94          1           0       -9.496033   -4.869155   -0.166270
     95          1           0       -3.317653   -3.496174   -0.159650
     96          1           0       -2.009775   -4.364969    3.459317
     97          1           0       -2.956683   -5.791148    3.750906
     98          1           0       -1.373055   -5.799837    2.665581
     99          1           0        2.684850   -2.021109   -1.370846
    100          1           0        2.315873   -0.219060   -2.003950
    101          1           0        4.534306   -1.055215    0.289993
    102          1           0        3.977775    1.059882   -2.566755
    103          1           0        5.353316    2.234688   -2.066532
    104          1           0        5.574011    0.698144   -3.054687
    105          1           0        6.650270    1.519079    0.160969
    106          1           0        6.504535   -0.145921    0.686108
    107          1           0        7.343061   -1.079415   -1.374531
    108          1           0        8.148022    0.179521   -1.860876
    109          1           0        9.224769    1.044135    0.139480
    110          1           0        8.958904   -0.630911    0.759332
    111          1           0       10.415736    0.393059   -1.740403
    112          1           0        9.407050   -1.922766   -2.132499
    113          1           0       11.071580   -2.075417   -2.024628
    114          1           0       10.218458   -2.747472   -0.602715
    115          1           0       11.452622    0.885864    0.179445
    116          1           0       11.677288   -0.755031    0.913228
    117          1           0       12.522561   -1.458080   -1.315413
    118          1           0       12.745572    0.301959   -1.641546
    119          1           0       13.793373    0.973640    0.557396
    120          1           0       14.007446   -0.749291    0.895173
    121          1           0       15.355115    0.470927   -1.341773
    122          1           0       15.954839   -2.282582   -0.147260
    123          1           0       15.073014   -2.323327   -1.573873
    124          1           0       16.884904   -1.569668   -1.455810
    125          1           0       16.059825    1.271428    0.965660
    126          1           0       16.418291   -0.238812    1.200208
    127          1           0       18.123747   -0.516634   -0.563977
    128          1           0       17.832374    1.245011   -0.932799
    129          1           0       18.445713    2.013477    1.125458
    130          1           0       19.006471    0.535583    1.820671
    131          1           0       20.760826    0.253548    0.032884
    132          1           0       20.133307    3.147652   -0.626331
    133          1           0       21.401334    2.059096   -1.321408
    134          1           0       19.727111    1.970731   -1.640888
    135          1           0       21.306547    1.300158    2.493382
    136          1           0       22.298063    1.793262    1.167730
    137          1           0       21.039802    2.845967    1.793413
 ---------------------------------------------------------------------

 SCF Done:  E(RCAM-B3LYP) =  -2932.59134042     A.U. after   17 cycles

 Excitation energies and oscillator strengths:

 Excited State   1:      Singlet-A      2.2558 eV  549.61 nm  f=0.1341  <S**2>=0.000
     240 -> 242       -0.26440
     240 -> 243        0.25864
     241 -> 242        0.55419
     241 -> 243        0.21375
 This state for optimization and/or second-order correction.
 Total Energy, E(TD-HF/TD-KS) =  -2932.50843949
 Copying the excited state density for this state as the 1-particle RhoCI density.

 The electronic state is 1-A.
 Alpha  occ. eigenvalues --  -46.83374 -19.25216 -19.24983 -19.21716 -19.21300
 Alpha  occ. eigenvalues --  -19.19024 -14.42356 -14.39788 -14.39356 -14.39306
 Alpha  occ. eigenvalues --  -10.39113 -10.38673 -10.33907 -10.33235 -10.32951
 Alpha  occ. eigenvalues --  -10.30944 -10.30415 -10.30383 -10.30051 -10.29948
 Alpha  occ. eigenvalues --  -10.29641 -10.29406 -10.29308 -10.28844 -10.28398
 Alpha  occ. eigenvalues --  -10.28318 -10.28125 -10.28016 -10.27965 -10.27769
 Alpha  occ. eigenvalues --  -10.27729 -10.27604 -10.27580 -10.27574 -10.27204
 Alpha  occ. eigenvalues --  -10.27100 -10.27032 -10.26847 -10.26837 -10.26690
 Alpha  occ. eigenvalues --  -10.26627 -10.26502 -10.26358 -10.26207 -10.26143
 Alpha  occ. eigenvalues --  -10.25872 -10.25824 -10.25715 -10.25679 -10.25628
 Alpha  occ. eigenvalues --  -10.25444 -10.25378 -10.25253 -10.25134 -10.25133
 Alpha  occ. eigenvalues --  -10.25003 -10.24880 -10.24833 -10.24773 -10.24527
 Alpha  occ. eigenvalues --  -10.24491 -10.24163 -10.24155 -10.24116 -10.22798
 Alpha  occ. eigenvalues --   -3.12635  -1.87319  -1.86870  -1.86849  -1.20015
 Alpha  occ. eigenvalues --   -1.19625  -1.11068  -1.10604  -1.10059  -1.04160
 Alpha  occ. eigenvalues --   -1.02512  -1.02367  -1.00994  -0.92662  -0.92219
 Alpha  occ. eigenvalues --   -0.91016  -0.90622  -0.90427  -0.89253  -0.88825
 Alpha  occ. eigenvalues --   -0.88312  -0.87965  -0.87822  -0.87060  -0.86788
 Alpha  occ. eigenvalues --   -0.85084  -0.84881  -0.83894  -0.83369  -0.82957
 Alpha  occ. eigenvalues --   -0.81946  -0.81310  -0.80876  -0.80132  -0.79094
 Alpha  occ. eigenvalues --   -0.78771  -0.76950  -0.76384  -0.76304  -0.76219
 Alpha  occ. eigenvalues --   -0.75209  -0.75016  -0.74919  -0.73362  -0.72720
 Alpha  occ. eigenvalues --   -0.72135  -0.71118  -0.69952  -0.69234  -0.68507
 Alpha  occ. eigenvalues --   -0.67307  -0.67200  -0.66591  -0.65171  -0.65007
 Alpha  occ. eigenvalues --   -0.64209  -0.64153  -0.62731  -0.62647  -0.62233
 Alpha  occ. eigenvalues --   -0.61689  -0.61499  -0.61116  -0.59947  -0.59340
 Alpha  occ. eigenvalues --   -0.58810  -0.58478  -0.58250  -0.57815  -0.57615
 Alpha  occ. eigenvalues --   -0.57067  -0.56023  -0.55653  -0.54986  -0.54758
 Alpha  occ. eigenvalues --   -0.54273  -0.54232  -0.54079  -0.53870  -0.53567
 Alpha  occ. eigenvalues --   -0.53054  -0.52945  -0.52814  -0.52393  -0.52153
 Alpha  occ. eigenvalues --   -0.52004  -0.51810  -0.51574  -0.51054  -0.50801
 Alpha  occ. eigenvalues --   -0.50770  -0.50527  -0.50346  -0.50275  -0.50056
 Alpha  occ. eigenvalues --   -0.49876  -0.49518  -0.49188  -0.49048  -0.48798
 Alpha  occ. eigenvalues --   -0.48452  -0.48326  -0.48070  -0.47558  -0.47164
 Alpha  occ. eigenvalues --   -0.47071  -0.46949  -0.46798  -0.46302  -0.46011
 Alpha  occ. eigenvalues --   -0.45929  -0.45508  -0.45477  -0.45345  -0.45311
 Alpha  occ. eigenvalues --   -0.45106  -0.44799  -0.44592  -0.44371  -0.44142
 Alpha  occ. eigenvalues --   -0.43899  -0.43601  -0.43279  -0.43197  -0.43058
 Alpha  occ. eigenvalues --   -0.42944  -0.42904  -0.42730  -0.42357  -0.42340
 Alpha  occ. eigenvalues --   -0.42261  -0.42037  -0.41497  -0.41460  -0.41242
 Alpha  occ. eigenvalues --   -0.41183  -0.40748  -0.40573  -0.40527  -0.40505
 Alpha  occ. eigenvalues --   -0.40450  -0.40369  -0.40099  -0.39757  -0.39610
 Alpha  occ. eigenvalues --   -0.39241  -0.39158  -0.38689  -0.38604  -0.38300
 Alpha  occ. eigenvalues --   -0.37565  -0.37524  -0.37254  -0.37049  -0.36690
 Alpha  occ. eigenvalues --   -0.36269  -0.35904  -0.35887  -0.35618  -0.35537
 Alpha  occ. eigenvalues --   -0.35517  -0.35098  -0.34391  -0.34386  -0.34145
 Alpha  occ. eigenvalues --   -0.33562  -0.33521  -0.32684  -0.30735  -0.29295
 Alpha  occ. eigenvalues --   -0.28793  -0.28307  -0.27806  -0.27247  -0.23320
 Alpha  occ. eigenvalues --   -0.21762
 Alpha virt. eigenvalues --   -0.05950  -0.03620   0.00996   0.03451   0.05077
 Alpha virt. eigenvalues --    0.05270   0.06037   0.06609   0.06728   0.07029
 Alpha virt. eigenvalues --    0.08074   0.10125   0.10820   0.11050   0.11677

 Mulliken charges:
               1
     1  Mg   0.814261
     2  C    0.031306
     3  C   -0.239796
     4  C   -0.153237
     5  C   -0.156008
     6  N   -0.609278
     7  C    0.275947
     8  C   -0.096614
     9  C   -0.146676
    10  C    0.293677
    11  C   -0.301941
    12  C   -0.218326
    13  C   -0.235108
    14  C    0.603883
    15  O   -0.449246
    16  O   -0.466957
    17  N   -0.726779
    18  C    0.352687
    19  C    0.046571
    20  C    0.035599
    21  C    0.307800
    22  C   -0.409280
    23  C   -0.094737
    24  C   -0.235330
    25  N   -0.670974
    26  C    0.307832
    27  C    0.008698
    28  C    0.013405
    29  C    0.249430
    30  C   -0.356981
    31  C   -0.246704
    32  C   -0.318452
    33  N   -0.733355
    34  C    0.248506
    35  C    0.023362
    36  C    0.029072
    37  C    0.332008
    38  C   -0.358012
    39  C    0.318375
    40  O   -0.458773
    41  C   -0.331656
    42  C    0.606786
    43  O   -0.456368
    44  O   -0.428948
    45  C   -0.078315
    46  C    0.036865
    47  C   -0.131697
    48  C    0.100878
    49  C   -0.346566
    50  C   -0.240516
    51  C   -0.166732
    52  C   -0.158392
    53  C   -0.091174
    54  C   -0.280531
    55  C   -0.191171
    56  C   -0.163697
    57  C   -0.181897
    58  C   -0.029041
    59  C   -0.319399
    60  C   -0.197239
    61  C   -0.168133
    62  C   -0.164839
    63  C   -0.060943
    64  C   -0.307018
    65  C   -0.305622
    66  H    0.091974
    67  H    0.046265
    68  H    0.107159
    69  H    0.096011
    70  H    0.111866
    71  H    0.115446
    72  H    0.112864
    73  H    0.141437
    74  H    0.106779
    75  H    0.115987
    76  H    0.138878
    77  H    0.151865
    78  H    0.128342
    79  H    0.137310
    80  H    0.118362
    81  H    0.120220
    82  H    0.086023
    83  H    0.109133
    84  H    0.129107
    85  H    0.096624
    86  H    0.134759
    87  H    0.116227
    88  H    0.108128
    89  H    0.106421
    90  H    0.092771
    91  H    0.116297
    92  H    0.125953
    93  H    0.131087
    94  H    0.128646
    95  H    0.160837
    96  H    0.125019
    97  H    0.110106
    98  H    0.107106
    99  H    0.081375
   100  H    0.114393
   101  H    0.082323
   102  H    0.111495
   103  H    0.090080
   104  H    0.118776
   105  H    0.109205
   106  H    0.108201
   107  H    0.102991
   108  H    0.099489
   109  H    0.087350
   110  H    0.073970
   111  H    0.071512
   112  H    0.111277
   113  H    0.112123
   114  H    0.072080
   115  H    0.082252
   116  H    0.085320
   117  H    0.050718
   118  H    0.098802
   119  H    0.070195
   120  H    0.096438
   121  H    0.098523
   122  H    0.090459
   123  H    0.123147
   124  H    0.079490
   125  H    0.084872
   126  H    0.094392
   127  H    0.071680
   128  H    0.093115
   129  H    0.097724
   130  H    0.082249
   131  H    0.076564
   132  H    0.104046
   133  H    0.112081
   134  H    0.105116
   135  H    0.075126
   136  H    0.108725
   137  H    0.092830
 Sum of Mulliken charges =   0.00000

 Dipole moment (field-independent basis, Debye):
    X=             -0.2519    Y=              6.5678    Z=              1.0415  Tot=              6.6546
 Quadrupole moment (field-independent basis, Debye-Ang):
   XX=           -341.8418   YY=           -388.8033   ZZ=           -397.4931
   XY=            -25.2953   XZ=              6.1312   YZ=              3.2786

 Normal termination of Gaussian 09 at Fri Jul  5 14:38:18 2019.
