 Gaussian 16, Revision A.03,
 Gaussian 16:  ES64L-G16RevA.03 25-Dec-2016

 ----------------------------------------------------------------------
 # td=(NStates=1) iop(3/107=0140000000,3/108=0140000000) CAM-B3LYP/6-31
 G(d,p)
 ----------------------------------------------------------------------

 --
 TD
 --
 Symbolic Z-matrix:
 Charge =  0 Multiplicity = 1

                         Standard orientation:
 ---------------------------------------------------------------------
 Center     Atomic      Atomic             Coordinates (Angstroms)
 Number     Number       Type             X           Y           Z
 ---------------------------------------------------------------------
      1         12           0       -7.033826    0.625299   -0.065364
      2          6           0       -4.810571   -1.950186    0.488070
      3          6           0       -4.820728    2.860282    1.145260
      4          6           0       -9.346549    3.073769   -0.395789
      5          6           0       -9.528954   -1.827040   -0.854805
      6          7           0       -5.159592    0.421653    0.738817
      7          6           0       -4.358473   -0.685046    0.828100
      8          6           0       -2.895643   -0.318422    1.132605
      9          6           0       -3.039772    1.143686    1.757953
     10          6           0       -4.453199    1.511774    1.113435
     11          6           0       -3.059134    1.259783    3.247059
     12          6           0       -1.829391   -0.428161    0.075754
     13          6           0       -0.454722   -0.373417    0.570392
     14          6           0        0.535475   -0.626934   -0.586296
     15          8           0        0.180594   -0.985567   -1.701759
     16          8           0        1.887176   -0.367916   -0.245024
     17          7           0       -7.091473    2.643139    0.277125
     18          6           0       -6.012936    3.447431    0.777255
     19          6           0       -6.485938    4.859218    0.930046
     20          6           0       -7.736227    4.737110    0.379332
     21          6           0       -8.092107    3.408643    0.055235
     22          6           0       -5.478134    5.928494    1.244772
     23          6           0       -8.560553    5.929182    0.081215
     24          6           0       -8.390001    7.205177    0.502561
     25          7           0       -9.198294    0.583567   -0.536719
     26          6           0       -9.866601    1.755884   -0.657720
     27          6           0      -11.193252    1.412323   -1.075405
     28          6           0      -11.295840    0.017799   -1.208223
     29          6           0       -9.993837   -0.464393   -0.896196
     30          6           0      -12.377945    2.353300   -1.408210
     31          6           0      -12.493315   -0.792921   -1.654032
     32          6           0      -12.426533   -1.191851   -3.106269
     33          7           0       -7.167098   -1.489268   -0.146242
     34          6           0       -8.227095   -2.254686   -0.552777
     35          6           0       -7.818243   -3.601286   -0.557588
     36          6           0       -6.517961   -3.567207   -0.136548
     37          6           0       -6.118969   -2.209971    0.065843
     38          6           0       -8.637935   -4.825968   -0.852318
     39          6           0       -5.295872   -4.291141    0.152061
     40          8           0       -5.013537   -5.522400    0.123359
     41          6           0       -4.124704   -3.309211    0.559227
     42          6           0       -3.571502   -3.626181    1.937637
     43          8           0       -3.816459   -3.033260    2.942392
     44          8           0       -2.738105   -4.673709    1.802196
     45          6           0       -2.117213   -5.212756    3.032542
     46          6           0        2.902476   -0.693770   -1.172562
     47          6           0        4.257744   -0.308975   -0.496954
     48          6           0        5.238297    0.354244   -1.034226
     49          6           0        5.185332    1.247435   -2.171456
     50          6           0        6.413353    0.420852   -0.144300
     51          6           0        7.715847   -0.051988   -0.947625
     52          6           0        8.993323   -0.074472   -0.135380
     53          6           0       10.196075   -0.568890   -0.899263
     54          6           0       10.049869   -2.031404   -1.326041
     55          6           0       11.441122   -0.386590    0.004671
     56          6           0       12.716353   -0.560023   -0.762527
     57          6           0       13.943820   -0.174650    0.257299
     58          6           0       15.348606   -0.388627   -0.491862
     59          6           0       15.684855   -1.743450   -0.881701
     60          6           0       16.276901    0.327329    0.423309
     61          6           0       17.770314    0.439132   -0.138726
     62          6           0       18.712650    1.318872    0.752088
     63          6           0       20.194185    1.371928    0.142929
     64          6           0       20.273568    2.287097   -1.136452
     65          6           0       21.114900    1.891177    1.368901
     66          1           0       -3.974811    3.467286    1.563253
     67          1           0      -10.125683    3.759153   -0.649524
     68          1           0      -10.147086   -2.811170   -0.916512
     69          1           0       -2.590226   -0.965173    2.184173
     70          1           0       -2.094699    1.571681    1.382751
     71          1           0       -2.327713    1.108363    3.692718
     72          1           0       -3.067625    2.354103    3.501998
     73          1           0       -3.870638    0.817804    3.775726
     74          1           0       -2.082497   -1.365443   -0.734952
     75          1           0       -2.155169    0.395061   -0.657356
     76          1           0       -0.359453    0.687844    0.952336
     77          1           0       -0.245820   -1.055807    1.357566
     78          1           0       -5.438068    6.595902    0.334785
     79          1           0       -5.777480    6.695651    2.242598
     80          1           0       -4.503183    5.426175    1.583304
     81          1           0       -9.448206    5.769337   -0.636239
     82          1           0       -9.334405    7.925042    0.112791
     83          1           0       -7.497825    7.779342    0.982858
     84          1           0      -12.253489    3.032135   -2.248591
     85          1           0      -13.201500    1.612134   -1.612445
     86          1           0      -12.617032    3.030121   -0.625696
     87          1           0      -12.518291   -1.733245   -1.061072
     88          1           0      -13.257420   -0.385304   -1.559726
     89          1           0      -13.125740   -1.714051   -3.559602
     90          1           0      -12.258801   -0.353337   -3.746739
     91          1           0      -11.536688   -1.705782   -3.368479
     92          1           0       -9.153488   -4.923973   -1.732713
     93          1           0       -8.162832   -5.566518   -0.654610
     94          1           0       -9.520410   -4.991935   -0.142097
     95          1           0       -3.352514   -3.692847   -0.237249
     96          1           0       -1.699474   -4.391828    3.548483
     97          1           0       -2.957084   -5.501822    3.627942
     98          1           0       -1.554932   -6.063500    2.834245
     99          1           0        2.886860   -1.685994   -1.243368
    100          1           0        2.677442   -0.022073   -1.883109
    101          1           0        4.307747   -0.849667    0.456188
    102          1           0        4.333231    1.146714   -2.825731
    103          1           0        5.219798    2.159591   -1.822446
    104          1           0        6.055366    1.247188   -3.008391
    105          1           0        6.568265    1.491662    0.130764
    106          1           0        6.508412    0.094591    0.826827
    107          1           0        7.452319   -1.005280   -1.471987
    108          1           0        7.986051    0.805391   -1.859526
    109          1           0        9.161994    1.076992    0.144418
    110          1           0        8.751828   -0.538206    0.888743
    111          1           0       10.217202    0.078201   -1.808478
    112          1           0        9.109490   -2.427959   -1.726163
    113          1           0       10.799057   -2.176753   -2.049408
    114          1           0       10.305382   -2.670540   -0.347206
    115          1           0       11.556979    0.692381    0.503825
    116          1           0       11.532934   -1.084728    0.834269
    117          1           0       12.866124   -1.642114   -1.102440
    118          1           0       12.729651    0.243266   -1.613887
    119          1           0       13.729689    0.977669    0.404344
    120          1           0       14.022329   -0.791017    1.180762
    121          1           0       15.210462    0.168848   -1.496497
    122          1           0       15.699761   -2.560210    0.101130
    123          1           0       15.090506   -2.131311   -1.701626
    124          1           0       16.577856   -1.538096   -1.412900
    125          1           0       16.052898    1.397789    0.759937
    126          1           0       16.261323   -0.205863    1.273792
    127          1           0       18.298130   -0.724808   -0.310661
    128          1           0       17.497747    0.927924   -1.237214
    129          1           0       18.176489    2.331081    0.926454
    130          1           0       18.694693    0.744198    1.721221
    131          1           0       20.556826    0.216088    0.037986
    132          1           0       19.988641    3.227514   -1.065979
    133          1           0       21.257720    2.402170   -1.363565
    134          1           0       19.740101    1.801351   -2.017290
    135          1           0       21.284459    1.089398    2.147129
    136          1           0       21.927120    2.151174    0.668564
    137          1           0       20.629830    2.689799    1.845975
 ---------------------------------------------------------------------

 SCF Done:  E(RCAM-B3LYP) =  -2933.36423723     A.U. after   16 cycles

 Excitation energies and oscillator strengths:

 Excited State   1:      Singlet-A      2.1171 eV  585.62 nm  f=0.2101  <S**2>=0.000
     240 -> 243       -0.26581
     241 -> 242        0.65032
 This state for optimization and/or second-order correction.
 Total Energy, E(TD-HF/TD-DFT) =  -2933.28643404
 Copying the excited state density for this state as the 1-particle RhoCI density.

 The electronic state is 1-A.
 Alpha  occ. eigenvalues --  -46.81293 -19.20974 -19.20582 -19.17379 -19.16148
 Alpha  occ. eigenvalues --  -19.14287 -14.38348 -14.35429 -14.34478 -14.34472
 Alpha  occ. eigenvalues --  -10.35235 -10.33637 -10.29428 -10.27110 -10.26470
 Alpha  occ. eigenvalues --  -10.26182 -10.25682 -10.25320 -10.24994 -10.24485
 Alpha  occ. eigenvalues --  -10.24476 -10.24317 -10.24217 -10.24142 -10.24074
 Alpha  occ. eigenvalues --  -10.23993 -10.23770 -10.23766 -10.23752 -10.23746
 Alpha  occ. eigenvalues --  -10.23705 -10.23502 -10.23430 -10.23393 -10.23159
 Alpha  occ. eigenvalues --  -10.23136 -10.22586 -10.22560 -10.22493 -10.22470
 Alpha  occ. eigenvalues --  -10.22296 -10.22195 -10.21908 -10.21838 -10.21780
 Alpha  occ. eigenvalues --  -10.21644 -10.21585 -10.21561 -10.21299 -10.21277
 Alpha  occ. eigenvalues --  -10.21192 -10.21189 -10.21058 -10.21017 -10.20926
 Alpha  occ. eigenvalues --  -10.20923 -10.20670 -10.20406 -10.20160 -10.19958
 Alpha  occ. eigenvalues --  -10.19795 -10.19476 -10.19373 -10.19004 -10.18183
 Alpha  occ. eigenvalues --   -3.09622  -1.84575  -1.84099  -1.84001  -1.12159
 Alpha  occ. eigenvalues --   -1.11087  -1.04246  -1.04157  -1.02247  -1.00424
 Alpha  occ. eigenvalues --   -0.99991  -0.98866  -0.97581  -0.86990  -0.86954
 Alpha  occ. eigenvalues --   -0.85678  -0.85264  -0.84336  -0.84302  -0.83815
 Alpha  occ. eigenvalues --   -0.83562  -0.83110  -0.82297  -0.81695  -0.81255
 Alpha  occ. eigenvalues --   -0.79524  -0.78957  -0.78418  -0.77775  -0.77558
 Alpha  occ. eigenvalues --   -0.76715  -0.76362  -0.76156  -0.75384  -0.74800
 Alpha  occ. eigenvalues --   -0.73794  -0.72491  -0.72434  -0.72115  -0.71997
 Alpha  occ. eigenvalues --   -0.70983  -0.70818  -0.69533  -0.68715  -0.68222
 Alpha  occ. eigenvalues --   -0.67897  -0.67424  -0.65765  -0.63756  -0.63476
 Alpha  occ. eigenvalues --   -0.61341  -0.61232  -0.60528  -0.60360  -0.59832
 Alpha  occ. eigenvalues --   -0.58450  -0.58362  -0.58227  -0.57786  -0.57356
 Alpha  occ. eigenvalues --   -0.57187  -0.57145  -0.56712  -0.55914  -0.55373
 Alpha  occ. eigenvalues --   -0.54941  -0.54771  -0.54550  -0.53946  -0.53007
 Alpha  occ. eigenvalues --   -0.52232  -0.51871  -0.51216  -0.51118  -0.50863
 Alpha  occ. eigenvalues --   -0.50546  -0.50086  -0.49955  -0.49722  -0.49220
 Alpha  occ. eigenvalues --   -0.48975  -0.48657  -0.48433  -0.48173  -0.47895
 Alpha  occ. eigenvalues --   -0.47769  -0.47523  -0.47259  -0.47050  -0.47007
 Alpha  occ. eigenvalues --   -0.46742  -0.46565  -0.46342  -0.46115  -0.45877
 Alpha  occ. eigenvalues --   -0.45648  -0.45534  -0.45156  -0.45024  -0.44740
 Alpha  occ. eigenvalues --   -0.44386  -0.44217  -0.44037  -0.43834  -0.43624
 Alpha  occ. eigenvalues --   -0.43347  -0.43227  -0.42926  -0.42627  -0.42462
 Alpha  occ. eigenvalues --   -0.42393  -0.42296  -0.42119  -0.41764  -0.41702
 Alpha  occ. eigenvalues --   -0.41640  -0.41636  -0.41267  -0.41148  -0.40950
 Alpha  occ. eigenvalues --   -0.40748  -0.40618  -0.40341  -0.40224  -0.39850
 Alpha  occ. eigenvalues --   -0.39698  -0.39612  -0.39481  -0.39314  -0.38910
 Alpha  occ. eigenvalues --   -0.38777  -0.38622  -0.38516  -0.37955  -0.37616
 Alpha  occ. eigenvalues --   -0.37470  -0.37276  -0.37096  -0.36922  -0.36728
 Alpha  occ. eigenvalues --   -0.36647  -0.36320  -0.36079  -0.35995  -0.35327
 Alpha  occ. eigenvalues --   -0.35225  -0.35012  -0.34959  -0.34811  -0.34539
 Alpha  occ. eigenvalues --   -0.34418  -0.33797  -0.33773  -0.33352  -0.32949
 Alpha  occ. eigenvalues --   -0.32830  -0.32580  -0.32518  -0.32417  -0.32206
 Alpha  occ. eigenvalues --   -0.32012  -0.31565  -0.31010  -0.30378  -0.30245
 Alpha  occ. eigenvalues --   -0.29796  -0.29401  -0.28674  -0.28175  -0.27384
 Alpha  occ. eigenvalues --   -0.26878  -0.25352  -0.25201  -0.24926  -0.21751
 Alpha  occ. eigenvalues --   -0.20328
 Alpha virt. eigenvalues --   -0.06867  -0.04432   0.00064   0.02135   0.02995
 Alpha virt. eigenvalues --    0.03234   0.04674   0.05110   0.05760   0.06164
 Alpha virt. eigenvalues --    0.07005   0.08961   0.09061   0.09531   0.09846

 Mulliken charges:
               1
     1  Mg   0.826155
     2  C    0.101510
     3  C   -0.209962
     4  C   -0.153427
     5  C   -0.148229
     6  N   -0.658561
     7  C    0.311347
     8  C   -0.158879
     9  C   -0.142504
    10  C    0.336437
    11  C   -0.271825
    12  C   -0.161012
    13  C   -0.249456
    14  C    0.593918
    15  O   -0.451310
    16  O   -0.513175
    17  N   -0.754256
    18  C    0.272779
    19  C    0.076893
    20  C   -0.031489
    21  C    0.448528
    22  C   -0.369316
    23  C   -0.068840
    24  C   -0.252332
    25  N   -0.693830
    26  C    0.310170
    27  C   -0.024859
    28  C    0.017223
    29  C    0.267539
    30  C   -0.380536
    31  C   -0.170164
    32  C   -0.334413
    33  N   -0.750647
    34  C    0.271797
    35  C   -0.004987
    36  C    0.064862
    37  C    0.297161
    38  C   -0.349547
    39  C    0.309550
    40  O   -0.498271
    41  C   -0.323000
    42  C    0.639425
    43  O   -0.468448
    44  O   -0.458951
    45  C   -0.091476
    46  C    0.062225
    47  C   -0.161622
    48  C    0.168965
    49  C   -0.372891
    50  C   -0.230616
    51  C   -0.162135
    52  C   -0.159444
    53  C   -0.043546
    54  C   -0.309066
    55  C   -0.152221
    56  C   -0.185307
    57  C   -0.178361
    58  C   -0.056705
    59  C   -0.285973
    60  C   -0.150784
    61  C   -0.161821
    62  C   -0.164321
    63  C   -0.059393
    64  C   -0.320082
    65  C   -0.311662
    66  H    0.080411
    67  H    0.081411
    68  H    0.096888
    69  H    0.086392
    70  H    0.084831
    71  H    0.108842
    72  H    0.084969
    73  H    0.131661
    74  H    0.106570
    75  H    0.106940
    76  H    0.131661
    77  H    0.148104
    78  H    0.139004
    79  H    0.087130
    80  H    0.118352
    81  H    0.088963
    82  H    0.073256
    83  H    0.106371
    84  H    0.118915
    85  H    0.106429
    86  H    0.122473
    87  H    0.097223
    88  H    0.089242
    89  H    0.110399
    90  H    0.105749
    91  H    0.107848
    92  H    0.131766
    93  H    0.137303
    94  H    0.104680
    95  H    0.158960
    96  H    0.132744
    97  H    0.137196
    98  H    0.136726
    99  H    0.123077
   100  H    0.109136
   101  H    0.087797
   102  H    0.116856
   103  H    0.142890
   104  H    0.097940
   105  H    0.086917
   106  H    0.108250
   107  H    0.094127
   108  H    0.047382
   109  H    0.069253
   110  H    0.075456
   111  H    0.081895
   112  H    0.107325
   113  H    0.114860
   114  H    0.080844
   115  H    0.067399
   116  H    0.095921
   117  H    0.091796
   118  H    0.078918
   119  H    0.079668
   120  H    0.086992
   121  H    0.064330
   122  H    0.062859
   123  H    0.108658
   124  H    0.118447
   125  H    0.081893
   126  H    0.096579
   127  H    0.053031
   128  H    0.057884
   129  H    0.080732
   130  H    0.087860
   131  H    0.072630
   132  H    0.119781
   133  H    0.108400
   134  H    0.106099
   135  H    0.101162
   136  H    0.096361
   137  H    0.112356
 Sum of Mulliken charges =  -0.00000

 Dipole moment (field-independent basis, Debye):
    X=              3.0381    Y=              4.3346    Z=              0.2123  Tot=              5.2975
 Quadrupole moment (field-independent basis, Debye-Ang):
   XX=           -359.7606   YY=           -393.7338   ZZ=           -393.2928
   XY=            -10.4187   XZ=             14.2240   YZ=             -6.1270

 Normal termination of Gaussian 16 at Mon Sep  9 17:11:14 2019.
