 Gaussian 16, Revision A.03,
 Gaussian 16:  ES64L-G16RevA.03 25-Dec-2016

 ----------------------------------------------------------------------
 # td=(NStates=1) iop(3/107=0140000000,3/108=0140000000) CAM-B3LYP/6-31
 G(d,p)
 ----------------------------------------------------------------------

 --
 TD
 --
 Symbolic Z-matrix:
 Charge =  0 Multiplicity = 1

                         Standard orientation:
 ---------------------------------------------------------------------
 Center     Atomic      Atomic             Coordinates (Angstroms)
 Number     Number       Type             X           Y           Z
 ---------------------------------------------------------------------
      1         12           0       -7.115614    0.648992    0.189281
      2          6           0       -4.904529   -1.946594    0.441611
      3          6           0       -4.854696    2.787280    1.185044
      4          6           0       -9.390184    3.169111   -0.401778
      5          6           0       -9.531859   -1.685788   -0.943727
      6          7           0       -5.141104    0.411989    0.761448
      7          6           0       -4.380448   -0.661562    0.765081
      8          6           0       -2.910704   -0.460810    1.162251
      9          6           0       -3.093448    1.044497    1.642072
     10          6           0       -4.364548    1.513433    1.132750
     11          6           0       -2.972331    1.171290    3.151146
     12          6           0       -1.976788   -0.763389    0.056692
     13          6           0       -0.492235   -0.657327    0.556693
     14          6           0        0.468204   -0.748482   -0.529090
     15          8           0        0.256576   -1.052352   -1.750578
     16          8           0        1.768983   -0.583595   -0.164004
     17          7           0       -7.102347    2.657511    0.432774
     18          6           0       -6.054798    3.411175    0.811190
     19          6           0       -6.318129    4.778999    0.828852
     20          6           0       -7.726119    4.972540    0.343244
     21          6           0       -8.066989    3.551487    0.081492
     22          6           0       -5.402913    6.034091    1.264268
     23          6           0       -8.477139    6.131361    0.045107
     24          6           0       -8.355244    7.308014    0.529032
     25          7           0       -9.022230    0.678802   -0.574526
     26          6           0       -9.805424    1.864467   -0.617601
     27          6           0      -11.147861    1.484475   -1.072836
     28          6           0      -11.205499    0.168429   -1.298312
     29          6           0       -9.933265   -0.332305   -0.953197
     30          6           0      -12.193260    2.587026   -1.290216
     31          6           0      -12.322704   -0.635236   -1.719390
     32          6           0      -12.280710   -1.086924   -3.184840
     33          7           0       -7.241185   -1.366634   -0.194423
     34          6           0       -8.234838   -2.115248   -0.549358
     35          6           0       -7.849451   -3.536391   -0.591716
     36          6           0       -6.502290   -3.478734   -0.150969
     37          6           0       -6.292008   -2.179981    0.218797
     38          6           0       -8.675133   -4.724245   -1.173299
     39          6           0       -5.416623   -4.384568    0.227437
     40          8           0       -5.245544   -5.585139    0.250483
     41          6           0       -4.198905   -3.301209    0.481273
     42          6           0       -3.598341   -3.741806    1.906497
     43          8           0       -3.793193   -3.226864    2.942087
     44          8           0       -2.957899   -4.887793    1.798439
     45          6           0       -2.339929   -5.473486    2.976154
     46          6           0        2.772549   -0.587314   -1.215876
     47          6           0        4.139162   -0.481871   -0.459444
     48          6           0        5.103484    0.203009   -0.942446
     49          6           0        5.086218    1.010211   -2.252625
     50          6           0        6.335651    0.152385   -0.049118
     51          6           0        7.660435   -0.356698   -0.778100
     52          6           0        8.982427   -0.213884   -0.013413
     53          6           0       10.298705   -0.569698   -0.851189
     54          6           0       10.139258   -1.966435   -1.366420
     55          6           0       11.449824   -0.378364    0.038774
     56          6           0       12.786717   -0.517222   -0.731644
     57          6           0       13.995155   -0.045856    0.134437
     58          6           0       15.324211   -0.057533   -0.518958
     59          6           0       15.561580   -1.436086   -1.122428
     60          6           0       16.470723    0.388487    0.421107
     61          6           0       17.836009    0.722565   -0.276768
     62          6           0       18.803703    1.227554    0.759675
     63          6           0       20.215643    1.437144    0.266907
     64          6           0       20.457313    2.232137   -1.071513
     65          6           0       21.134139    1.887107    1.372748
     66          1           0       -4.097492    3.420303    1.737798
     67          1           0      -10.194839    3.906926   -0.391857
     68          1           0      -10.162524   -2.540777   -1.297989
     69          1           0       -2.604933   -0.812532    2.047123
     70          1           0       -2.336476    1.772788    1.155692
     71          1           0       -1.876238    1.091963    3.491099
     72          1           0       -3.209801    2.034240    3.584680
     73          1           0       -3.574343    0.525239    3.700207
     74          1           0       -1.858449   -1.710582   -0.389806
     75          1           0       -2.071436   -0.032392   -0.602054
     76          1           0       -0.422043    0.198494    1.225084
     77          1           0       -0.166432   -1.548445    1.041603
     78          1           0       -5.628344    7.005126    0.639703
     79          1           0       -5.313355    6.320291    2.285547
     80          1           0       -4.320055    5.617000    1.075736
     81          1           0       -9.302320    6.040195   -0.595367
     82          1           0       -9.072037    8.042168    0.321649
     83          1           0       -7.764193    7.779028    1.292671
     84          1           0      -11.617842    3.158572   -2.002703
     85          1           0      -13.197894    2.323624   -1.921340
     86          1           0      -12.432192    3.348273   -0.487160
     87          1           0      -12.483656   -1.625237   -1.198026
     88          1           0      -13.296231   -0.131929   -1.244943
     89          1           0      -13.031637   -1.898643   -3.457137
     90          1           0      -12.316811   -0.274932   -3.965571
     91          1           0      -11.384763   -1.627016   -3.310899
     92          1           0       -8.827645   -4.762625   -2.250776
     93          1           0       -8.184454   -5.714796   -0.842127
     94          1           0       -9.679930   -4.666217   -0.572795
     95          1           0       -3.380652   -3.442006   -0.270240
     96          1           0       -1.818495   -4.732430    3.571505
     97          1           0       -2.951091   -5.706972    3.841995
     98          1           0       -1.545362   -6.206490    2.621888
     99          1           0        2.897472   -1.528488   -1.650784
    100          1           0        2.535852    0.128353   -2.070738
    101          1           0        4.194367   -1.025650    0.641313
    102          1           0        4.248695    1.102206   -2.767229
    103          1           0        5.521213    1.907246   -2.051062
    104          1           0        5.780201    0.358386   -2.896371
    105          1           0        6.607659    1.026636    0.384858
    106          1           0        6.137606   -0.579108    0.889341
    107          1           0        7.325660   -1.253096   -1.264381
    108          1           0        7.698023    0.201313   -1.743410
    109          1           0        9.132720    0.973595    0.166982
    110          1           0        8.879184   -0.680660    0.969020
    111          1           0       10.200104    0.399914   -1.490371
    112          1           0        9.216540   -2.112253   -2.120476
    113          1           0       11.068152   -2.289805   -1.777566
    114          1           0        9.698531   -2.745333   -0.518560
    115          1           0       11.526245    0.681764    0.249676
    116          1           0       11.566037   -1.086498    0.924178
    117          1           0       12.741621   -1.447184   -1.263154
    118          1           0       12.996834    0.139353   -1.553662
    119          1           0       13.948945    0.992801    0.480926
    120          1           0       14.261303   -0.563677    1.040759
    121          1           0       15.325700    0.634700   -1.410008
    122          1           0       15.412602   -2.190249   -0.253193
    123          1           0       14.997287   -1.650649   -1.908117
    124          1           0       16.599075   -1.473759   -1.656756
    125          1           0       16.065725    1.428649    0.746342
    126          1           0       16.529115   -0.476903    1.148252
    127          1           0       18.359053   -0.172292   -0.724742
    128          1           0       17.706034    1.459096   -1.186900
    129          1           0       18.523670    2.318263    1.194321
    130          1           0       18.743104    0.740040    1.812807
    131          1           0       20.559197    0.445449   -0.225206
    132          1           0       19.953280    3.145945   -0.859631
    133          1           0       21.510201    2.256048   -1.263136
    134          1           0       19.832418    1.895595   -1.932805
    135          1           0       20.871669    1.124539    2.222608
    136          1           0       22.319619    1.795983    1.119714
    137          1           0       20.826689    2.916514    1.859904
 ---------------------------------------------------------------------

 SCF Done:  E(RCAM-B3LYP) =  -2933.50574476     A.U. after   16 cycles

 Excitation energies and oscillator strengths:

 Excited State   1:      Singlet-A      1.9881 eV  623.63 nm  f=0.2864  <S**2>=0.000
     240 -> 243       -0.23372
     241 -> 242        0.66239
 This state for optimization and/or second-order correction.
 Total Energy, E(TD-HF/TD-DFT) =  -2933.43268286
 Copying the excited state density for this state as the 1-particle RhoCI density.

 The electronic state is 1-A.
 Alpha  occ. eigenvalues --  -46.80086 -19.21604 -19.21570 -19.16863 -19.15813
 Alpha  occ. eigenvalues --  -19.15663 -14.37843 -14.35331 -14.35205 -14.34874
 Alpha  occ. eigenvalues --  -10.34506 -10.33585 -10.30913 -10.27033 -10.27017
 Alpha  occ. eigenvalues --  -10.26421 -10.25472 -10.25342 -10.24882 -10.24669
 Alpha  occ. eigenvalues --  -10.24592 -10.24532 -10.24249 -10.24242 -10.23912
 Alpha  occ. eigenvalues --  -10.23860 -10.23536 -10.23328 -10.23252 -10.23128
 Alpha  occ. eigenvalues --  -10.23068 -10.22973 -10.22908 -10.22839 -10.22812
 Alpha  occ. eigenvalues --  -10.22757 -10.22602 -10.22598 -10.22584 -10.22414
 Alpha  occ. eigenvalues --  -10.22394 -10.22371 -10.22179 -10.22095 -10.22084
 Alpha  occ. eigenvalues --  -10.21871 -10.21812 -10.21808 -10.21604 -10.21542
 Alpha  occ. eigenvalues --  -10.21465 -10.21349 -10.21204 -10.21042 -10.21004
 Alpha  occ. eigenvalues --  -10.20950 -10.20849 -10.20800 -10.20720 -10.20634
 Alpha  occ. eigenvalues --  -10.20479 -10.20145 -10.20065 -10.19750 -10.19611
 Alpha  occ. eigenvalues --   -3.08740  -1.83678  -1.83204  -1.83161  -1.13951
 Alpha  occ. eigenvalues --   -1.11493  -1.06430  -1.04783  -1.02027  -1.00710
 Alpha  occ. eigenvalues --   -1.00014  -0.98656  -0.96398  -0.87193  -0.86761
 Alpha  occ. eigenvalues --   -0.86306  -0.85668  -0.84732  -0.84509  -0.84111
 Alpha  occ. eigenvalues --   -0.83744  -0.83557  -0.82643  -0.81605  -0.81316
 Alpha  occ. eigenvalues --   -0.79615  -0.78876  -0.78224  -0.77858  -0.77584
 Alpha  occ. eigenvalues --   -0.77030  -0.76180  -0.75602  -0.75135  -0.74397
 Alpha  occ. eigenvalues --   -0.73122  -0.72304  -0.72004  -0.71413  -0.70955
 Alpha  occ. eigenvalues --   -0.70742  -0.70491  -0.69830  -0.69288  -0.67962
 Alpha  occ. eigenvalues --   -0.67649  -0.66644  -0.65501  -0.64895  -0.64616
 Alpha  occ. eigenvalues --   -0.63788  -0.62194  -0.61869  -0.60704  -0.60660
 Alpha  occ. eigenvalues --   -0.60245  -0.59014  -0.58355  -0.58265  -0.57488
 Alpha  occ. eigenvalues --   -0.57120  -0.56536  -0.56431  -0.55658  -0.55383
 Alpha  occ. eigenvalues --   -0.54509  -0.54338  -0.53869  -0.53250  -0.52731
 Alpha  occ. eigenvalues --   -0.52469  -0.51980  -0.51739  -0.51323  -0.50858
 Alpha  occ. eigenvalues --   -0.50489  -0.50324  -0.49727  -0.49531  -0.49298
 Alpha  occ. eigenvalues --   -0.49075  -0.48716  -0.48321  -0.48017  -0.47804
 Alpha  occ. eigenvalues --   -0.47525  -0.47496  -0.47146  -0.46932  -0.46844
 Alpha  occ. eigenvalues --   -0.46681  -0.46215  -0.45839  -0.45799  -0.45625
 Alpha  occ. eigenvalues --   -0.45496  -0.45169  -0.45112  -0.44930  -0.44827
 Alpha  occ. eigenvalues --   -0.44670  -0.44285  -0.44045  -0.43933  -0.43791
 Alpha  occ. eigenvalues --   -0.43627  -0.43383  -0.43043  -0.42906  -0.42834
 Alpha  occ. eigenvalues --   -0.42440  -0.42051  -0.42040  -0.41932  -0.41601
 Alpha  occ. eigenvalues --   -0.41258  -0.41107  -0.40946  -0.40734  -0.40701
 Alpha  occ. eigenvalues --   -0.40429  -0.40187  -0.40129  -0.39933  -0.39814
 Alpha  occ. eigenvalues --   -0.39751  -0.39572  -0.39161  -0.39013  -0.38901
 Alpha  occ. eigenvalues --   -0.38837  -0.38689  -0.38465  -0.38409  -0.38090
 Alpha  occ. eigenvalues --   -0.37957  -0.37859  -0.37709  -0.37496  -0.37335
 Alpha  occ. eigenvalues --   -0.37099  -0.37076  -0.36468  -0.35836  -0.35775
 Alpha  occ. eigenvalues --   -0.35743  -0.35552  -0.35208  -0.35070  -0.34556
 Alpha  occ. eigenvalues --   -0.34318  -0.34202  -0.33834  -0.33682  -0.33255
 Alpha  occ. eigenvalues --   -0.33131  -0.33069  -0.32998  -0.32995  -0.32479
 Alpha  occ. eigenvalues --   -0.32270  -0.31860  -0.30787  -0.30352  -0.30336
 Alpha  occ. eigenvalues --   -0.29959  -0.29385  -0.29087  -0.28533  -0.27252
 Alpha  occ. eigenvalues --   -0.27185  -0.26615  -0.26101  -0.24382  -0.21236
 Alpha  occ. eigenvalues --   -0.20196
 Alpha virt. eigenvalues --   -0.07634  -0.03615  -0.00249   0.02188   0.03408
 Alpha virt. eigenvalues --    0.04287   0.04900   0.05459   0.06175   0.07034
 Alpha virt. eigenvalues --    0.07151   0.09042   0.09311   0.09336   0.10103

 Mulliken charges:
               1
     1  Mg   0.817826
     2  C    0.030072
     3  C   -0.226018
     4  C   -0.177583
     5  C   -0.183703
     6  N   -0.630715
     7  C    0.304784
     8  C   -0.129178
     9  C   -0.190681
    10  C    0.351131
    11  C   -0.319767
    12  C   -0.137042
    13  C   -0.288992
    14  C    0.592846
    15  O   -0.513150
    16  O   -0.476563
    17  N   -0.700131
    18  C    0.360146
    19  C   -0.012277
    20  C    0.034948
    21  C    0.258040
    22  C   -0.367891
    23  C   -0.077636
    24  C   -0.240635
    25  N   -0.695485
    26  C    0.318114
    27  C    0.015423
    28  C    0.107596
    29  C    0.276229
    30  C   -0.393855
    31  C   -0.262002
    32  C   -0.315003
    33  N   -0.643527
    34  C    0.308948
    35  C   -0.014052
    36  C   -0.001980
    37  C    0.269583
    38  C   -0.378587
    39  C    0.387105
    40  O   -0.446153
    41  C   -0.328845
    42  C    0.576439
    43  O   -0.454009
    44  O   -0.416390
    45  C   -0.099126
    46  C    0.019976
    47  C   -0.167356
    48  C    0.143738
    49  C   -0.342723
    50  C   -0.224410
    51  C   -0.191535
    52  C   -0.179122
    53  C   -0.042509
    54  C   -0.302082
    55  C   -0.147848
    56  C   -0.203452
    57  C   -0.158408
    58  C   -0.089676
    59  C   -0.286968
    60  C   -0.160430
    61  C   -0.173756
    62  C   -0.150925
    63  C   -0.045112
    64  C   -0.313854
    65  C   -0.297074
    66  H    0.069207
    67  H    0.089174
    68  H    0.086035
    69  H    0.127163
    70  H    0.092855
    71  H    0.094076
    72  H    0.124016
    73  H    0.137271
    74  H    0.132052
    75  H    0.128493
    76  H    0.138608
    77  H    0.153960
    78  H    0.114967
    79  H    0.131012
    80  H    0.092456
    81  H    0.089687
    82  H    0.090871
    83  H    0.101367
    84  H    0.138299
    85  H    0.100225
    86  H    0.124350
    87  H    0.105147
    88  H    0.087803
    89  H    0.096077
    90  H    0.107784
    91  H    0.121604
    92  H    0.139583
    93  H    0.138754
    94  H    0.113022
    95  H    0.147143
    96  H    0.118216
    97  H    0.137138
    98  H    0.126953
    99  H    0.137011
   100  H    0.118701
   101  H    0.087834
   102  H    0.117883
   103  H    0.130183
   104  H    0.112314
   105  H    0.105869
   106  H    0.072501
   107  H    0.097128
   108  H    0.078490
   109  H    0.060509
   110  H    0.093769
   111  H    0.089489
   112  H    0.093577
   113  H    0.108036
   114  H    0.087891
   115  H    0.094791
   116  H    0.093831
   117  H    0.097706
   118  H    0.097065
   119  H    0.085245
   120  H    0.081131
   121  H    0.061221
   122  H    0.080058
   123  H    0.114666
   124  H    0.074758
   125  H    0.086107
   126  H    0.091849
   127  H    0.096967
   128  H    0.087389
   129  H    0.056057
   130  H    0.089869
   131  H    0.073012
   132  H    0.101863
   133  H    0.110308
   134  H    0.094613
   135  H    0.090720
   136  H    0.085957
   137  H    0.093534
 Sum of Mulliken charges =  -0.00000

 Dipole moment (field-independent basis, Debye):
    X=              0.8676    Y=              3.3847    Z=              0.7451  Tot=              3.5727
 Quadrupole moment (field-independent basis, Debye-Ang):
   XX=           -359.5615   YY=           -395.6383   ZZ=           -393.4041
   XY=            -17.1778   XZ=              4.2383   YZ=              0.1776

 Normal termination of Gaussian 16 at Wed Sep 18 00:09:24 2019.
