 Gaussian 09, Revision D.01,
 Gaussian 09:  ES64L-G09RevD.01 24-Apr-2013

 -------------------------------------
 # td=(NStates=1) CAM-B3LYP/6-31G(d,p)
 -------------------------------------

 --
 TD
 --
 Symbolic Z-matrix:
 Charge =  0 Multiplicity = 1

                         Standard orientation:
 ---------------------------------------------------------------------
 Center     Atomic      Atomic             Coordinates (Angstroms)
 Number     Number       Type             X           Y           Z
 ---------------------------------------------------------------------
      1         12           0       -7.128563    0.668361    0.034606
      2          6           0       -4.914382   -1.978812    0.439180
      3          6           0       -4.779376    2.800250    1.228477
      4          6           0       -9.385237    3.069550   -0.440016
      5          6           0       -9.525579   -1.755770   -0.843168
      6          7           0       -5.166653    0.414117    0.742240
      7          6           0       -4.419078   -0.631657    0.776995
      8          6           0       -2.931338   -0.398190    1.327208
      9          6           0       -3.057726    1.068490    1.791770
     10          6           0       -4.392248    1.565823    1.195785
     11          6           0       -3.035490    1.259651    3.392773
     12          6           0       -1.976959   -0.611561    0.096038
     13          6           0       -0.491597   -0.343535    0.665195
     14          6           0        0.530861   -0.708338   -0.452997
     15          8           0        0.268810   -1.176750   -1.560220
     16          8           0        1.820795   -0.459418   -0.099743
     17          7           0       -7.054135    2.647022    0.274563
     18          6           0       -6.033185    3.369522    0.805753
     19          6           0       -6.355619    4.816119    0.723950
     20          6           0       -7.708163    4.834426    0.303052
     21          6           0       -8.192223    3.460388    0.046590
     22          6           0       -5.463214    5.844003    1.130167
     23          6           0       -8.528830    6.100798    0.069250
     24          6           0       -8.279730    7.244306    0.681457
     25          7           0       -9.119021    0.616498   -0.515177
     26          6           0       -9.767861    1.783763   -0.734879
     27          6           0      -11.210282    1.470572   -1.118520
     28          6           0      -11.362831    0.149091   -1.159093
     29          6           0       -9.992473   -0.395123   -0.909890
     30          6           0      -12.209733    2.521045   -1.439220
     31          6           0      -12.340193   -0.743198   -1.634329
     32          6           0      -12.323565   -0.964359   -3.223835
     33          7           0       -7.244264   -1.353321   -0.298713
     34          6           0       -8.223781   -2.224880   -0.726884
     35          6           0       -7.784998   -3.592682   -0.586965
     36          6           0       -6.433988   -3.567315   -0.276268
     37          6           0       -6.185928   -2.192791    0.007349
     38          6           0       -8.579641   -4.803545   -0.928166
     39          6           0       -5.379687   -4.373128    0.137351
     40          8           0       -5.284176   -5.605492    0.283550
     41          6           0       -4.168377   -3.251535    0.547585
     42          6           0       -3.626751   -3.716373    1.830371
     43          8           0       -3.882613   -3.104628    2.885267
     44          8           0       -2.879960   -4.841986    1.664192
     45          6           0       -2.320751   -5.358776    2.817252
     46          6           0        2.843472   -0.699089   -1.066956
     47          6           0        4.119786   -0.545371   -0.451272
     48          6           0        5.155057    0.255838   -0.808671
     49          6           0        5.065913    1.165339   -2.105925
     50          6           0        6.416205    0.316784   -0.065812
     51          6           0        7.711437   -0.088550   -0.875713
     52          6           0        8.900225   -0.098842   -0.119993
     53          6           0       10.189459   -0.503179   -0.870315
     54          6           0       10.217548   -1.958539   -1.277616
     55          6           0       11.415578   -0.091420    0.015922
     56          6           0       12.719361   -0.378423   -0.603739
     57          6           0       13.936248   -0.022698    0.273088
     58          6           0       15.289285   -0.115546   -0.510571
     59          6           0       15.655035   -1.493713   -0.945997
     60          6           0       16.407749    0.473183    0.368226
     61          6           0       17.829122    0.635345   -0.252823
     62          6           0       18.922963    1.264400    0.776031
     63          6           0       20.300703    1.187147    0.133727
     64          6           0       20.348224    1.853126   -1.214015
     65          6           0       21.281520    1.742009    1.118651
     66          1           0       -4.027495    3.481681    1.827004
     67          1           0       -9.931480    3.795717   -0.662742
     68          1           0      -10.320582   -2.498431   -1.091665
     69          1           0       -2.680054   -1.061697    2.185217
     70          1           0       -2.139477    1.643745    1.220990
     71          1           0       -1.948757    0.980385    3.690637
     72          1           0       -3.256819    2.366599    3.705387
     73          1           0       -3.600317    0.445146    3.805264
     74          1           0       -2.024925   -1.532323   -0.332376
     75          1           0       -2.213724    0.017378   -0.504103
     76          1           0       -0.244489    0.749301    1.093726
     77          1           0       -0.300859   -0.701749    1.736688
     78          1           0       -5.579357    6.593645    0.483592
     79          1           0       -5.674440    6.220720    2.151114
     80          1           0       -4.446049    5.589724    1.191648
     81          1           0       -9.343670    6.026710   -0.677974
     82          1           0       -9.031245    7.959753    0.353503
     83          1           0       -7.664572    7.516668    1.427324
     84          1           0      -11.783655    2.948431   -2.378472
     85          1           0      -13.002842    1.856887   -1.736072
     86          1           0      -12.402946    3.352100   -0.809345
     87          1           0      -12.299437   -1.783901   -1.180681
     88          1           0      -13.308804   -0.514436   -1.347801
     89          1           0      -12.957160   -1.792047   -3.546796
     90          1           0      -12.515141   -0.147068   -3.830917
     91          1           0      -11.480186   -1.533826   -3.457924
     92          1           0       -8.809134   -4.714220   -2.046545
     93          1           0       -7.996662   -5.595705   -0.876766
     94          1           0       -9.607453   -4.822576   -0.466014
     95          1           0       -3.695855   -3.358360   -0.279984
     96          1           0       -1.784672   -4.633299    3.415972
     97          1           0       -2.968454   -5.731744    3.539181
     98          1           0       -1.887984   -6.258060    2.509423
     99          1           0        2.392049   -1.631118   -1.341310
    100          1           0        2.617536   -0.318375   -2.081179
    101          1           0        4.240885   -1.162735    0.472042
    102          1           0        3.957715    1.061910   -2.291086
    103          1           0        5.369123    2.268571   -2.045522
    104          1           0        5.779827    0.747237   -2.900782
    105          1           0        6.421535    1.298454    0.207362
    106          1           0        6.397660   -0.417307    0.670885
    107          1           0        7.478576   -1.146969   -1.191267
    108          1           0        7.781070    0.709769   -1.720885
    109          1           0        9.187918    0.898391    0.236712
    110          1           0        8.908227   -0.847028    0.866454
    111          1           0       10.150529    0.160113   -1.956510
    112          1           0        9.438711   -2.444893   -1.838889
    113          1           0       11.370735   -2.047989   -1.740556
    114          1           0       10.497728   -2.657251   -0.278748
    115          1           0       11.220257    0.926876    0.304565
    116          1           0       11.289739   -0.700363    0.870849
    117          1           0       12.738290   -1.353840   -1.097383
    118          1           0       12.706664    0.253350   -1.518190
    119          1           0       14.036064    1.038389    0.740879
    120          1           0       14.105805   -0.704849    1.238212
    121          1           0       15.297581    0.524286   -1.506832
    122          1           0       16.035805   -2.220387    0.061482
    123          1           0       14.850205   -1.974981   -1.363221
    124          1           0       16.514975   -1.573074   -1.565570
    125          1           0       16.026606    1.432563    0.698716
    126          1           0       16.581992   -0.065066    1.409006
    127          1           0       18.333314   -0.349600   -0.805993
    128          1           0       17.868432    1.341170   -1.088305
    129          1           0       18.617557    2.167450    1.053737
    130          1           0       18.829264    0.857688    1.640883
    131          1           0       20.397415    0.033782    0.045976
    132          1           0       20.072115    3.050994   -1.186225
    133          1           0       21.258386    2.008730   -1.632425
    134          1           0       19.915299    1.501611   -2.221535
    135          1           0       21.025071    1.344575    2.155274
    136          1           0       22.275064    1.603295    0.767765
    137          1           0       20.981793    2.872938    1.267809
 ---------------------------------------------------------------------

 SCF Done:  E(RCAM-B3LYP) =  -2932.59424961     A.U. after   18 cycles

 Excitation energies and oscillator strengths:

 Excited State   1:      Singlet-A      1.8973 eV  653.48 nm  f=0.3356  <S**2>=0.000
     240 -> 243       -0.19908
     241 -> 242        0.67587
 This state for optimization and/or second-order correction.
 Total Energy, E(TD-HF/TD-KS) =  -2932.52452575
 Copying the excited state density for this state as the 1-particle RhoCI density.

 The electronic state is 1-A.
 Alpha  occ. eigenvalues --  -46.83850 -19.26618 -19.25430 -19.21277 -19.20937
 Alpha  occ. eigenvalues --  -19.20474 -14.41971 -14.39671 -14.39576 -14.38643
 Alpha  occ. eigenvalues --  -10.39882 -10.39196 -10.35530 -10.31557 -10.30418
 Alpha  occ. eigenvalues --  -10.30015 -10.29981 -10.29954 -10.29476 -10.29182
 Alpha  occ. eigenvalues --  -10.29176 -10.29126 -10.29072 -10.28541 -10.28397
 Alpha  occ. eigenvalues --  -10.28190 -10.27980 -10.27918 -10.27762 -10.27710
 Alpha  occ. eigenvalues --  -10.27472 -10.27205 -10.27172 -10.27133 -10.27106
 Alpha  occ. eigenvalues --  -10.26986 -10.26524 -10.26501 -10.26460 -10.26455
 Alpha  occ. eigenvalues --  -10.26442 -10.26332 -10.26310 -10.26160 -10.26104
 Alpha  occ. eigenvalues --  -10.25905 -10.25844 -10.25816 -10.25756 -10.25591
 Alpha  occ. eigenvalues --  -10.25572 -10.25487 -10.25475 -10.25473 -10.25281
 Alpha  occ. eigenvalues --  -10.25273 -10.25253 -10.25173 -10.24817 -10.24629
 Alpha  occ. eigenvalues --  -10.24472 -10.24440 -10.24421 -10.24098 -10.22364
 Alpha  occ. eigenvalues --   -3.12969  -1.87670  -1.87251  -1.87115  -1.18023
 Alpha  occ. eigenvalues --   -1.17842  -1.09719  -1.08561  -1.08359  -1.04166
 Alpha  occ. eigenvalues --   -1.03072  -1.02503  -1.01336  -0.92952  -0.92060
 Alpha  occ. eigenvalues --   -0.90636  -0.90152  -0.89953  -0.89650  -0.89317
 Alpha  occ. eigenvalues --   -0.88664  -0.88605  -0.88136  -0.87299  -0.86446
 Alpha  occ. eigenvalues --   -0.85487  -0.84423  -0.84098  -0.83817  -0.82648
 Alpha  occ. eigenvalues --   -0.81852  -0.81274  -0.80227  -0.79772  -0.78468
 Alpha  occ. eigenvalues --   -0.77677  -0.77405  -0.76553  -0.76485  -0.76187
 Alpha  occ. eigenvalues --   -0.75309  -0.75260  -0.74684  -0.73580  -0.72680
 Alpha  occ. eigenvalues --   -0.72295  -0.71613  -0.70880  -0.69984  -0.68728
 Alpha  occ. eigenvalues --   -0.66823  -0.66357  -0.65881  -0.64963  -0.64573
 Alpha  occ. eigenvalues --   -0.64445  -0.64235  -0.64148  -0.62642  -0.61538
 Alpha  occ. eigenvalues --   -0.60878  -0.60662  -0.60429  -0.59988  -0.59603
 Alpha  occ. eigenvalues --   -0.59079  -0.58311  -0.58222  -0.57785  -0.56952
 Alpha  occ. eigenvalues --   -0.56359  -0.56098  -0.55868  -0.55514  -0.54853
 Alpha  occ. eigenvalues --   -0.54750  -0.54136  -0.54091  -0.53859  -0.53201
 Alpha  occ. eigenvalues --   -0.52818  -0.52210  -0.52007  -0.51906  -0.51900
 Alpha  occ. eigenvalues --   -0.51676  -0.51463  -0.51303  -0.51219  -0.51047
 Alpha  occ. eigenvalues --   -0.50805  -0.50355  -0.50253  -0.50121  -0.49973
 Alpha  occ. eigenvalues --   -0.49617  -0.49409  -0.49381  -0.48934  -0.48738
 Alpha  occ. eigenvalues --   -0.48311  -0.47899  -0.47848  -0.47310  -0.47075
 Alpha  occ. eigenvalues --   -0.46972  -0.46837  -0.46493  -0.46380  -0.46170
 Alpha  occ. eigenvalues --   -0.45917  -0.45632  -0.45474  -0.45425  -0.45231
 Alpha  occ. eigenvalues --   -0.44967  -0.44850  -0.44523  -0.44285  -0.44150
 Alpha  occ. eigenvalues --   -0.43805  -0.43662  -0.43502  -0.43452  -0.43222
 Alpha  occ. eigenvalues --   -0.42964  -0.42838  -0.42639  -0.42320  -0.42156
 Alpha  occ. eigenvalues --   -0.42060  -0.41882  -0.41738  -0.41430  -0.41358
 Alpha  occ. eigenvalues --   -0.41035  -0.40982  -0.40859  -0.40683  -0.40346
 Alpha  occ. eigenvalues --   -0.40130  -0.39892  -0.39742  -0.39645  -0.39545
 Alpha  occ. eigenvalues --   -0.38701  -0.38509  -0.38238  -0.37810  -0.37600
 Alpha  occ. eigenvalues --   -0.37364  -0.37288  -0.37057  -0.36446  -0.36287
 Alpha  occ. eigenvalues --   -0.36230  -0.35944  -0.35692  -0.35570  -0.35386
 Alpha  occ. eigenvalues --   -0.35189  -0.34767  -0.34232  -0.34159  -0.33768
 Alpha  occ. eigenvalues --   -0.33486  -0.33021  -0.32614  -0.31084  -0.29787
 Alpha  occ. eigenvalues --   -0.29547  -0.29202  -0.28629  -0.26924  -0.23598
 Alpha  occ. eigenvalues --   -0.20163
 Alpha virt. eigenvalues --   -0.06506  -0.02447   0.01502   0.04819   0.05337
 Alpha virt. eigenvalues --    0.05529   0.05630   0.06231   0.06710   0.07758
 Alpha virt. eigenvalues --    0.08609   0.10385   0.11439   0.11522   0.11789

 Mulliken charges:
               1
     1  Mg   0.810159
     2  C    0.005006
     3  C   -0.209632
     4  C   -0.077712
     5  C   -0.180777
     6  N   -0.626548
     7  C    0.329568
     8  C   -0.171038
     9  C   -0.144812
    10  C    0.336476
    11  C   -0.305550
    12  C   -0.127240
    13  C   -0.299358
    14  C    0.625384
    15  O   -0.491724
    16  O   -0.484016
    17  N   -0.726840
    18  C    0.293323
    19  C    0.031967
    20  C   -0.036667
    21  C    0.288483
    22  C   -0.379939
    23  C   -0.090013
    24  C   -0.218534
    25  N   -0.657480
    26  C    0.310278
    27  C   -0.018044
    28  C    0.095568
    29  C    0.234770
    30  C   -0.367056
    31  C   -0.282642
    32  C   -0.317969
    33  N   -0.702975
    34  C    0.274568
    35  C    0.019775
    36  C    0.060075
    37  C    0.315935
    38  C   -0.367224
    39  C    0.307962
    40  O   -0.472622
    41  C   -0.307771
    42  C    0.652106
    43  O   -0.508269
    44  O   -0.436239
    45  C   -0.086716
    46  C   -0.002985
    47  C   -0.123154
    48  C    0.099769
    49  C   -0.358063
    50  C   -0.207755
    51  C   -0.180908
    52  C   -0.134115
    53  C   -0.048871
    54  C   -0.289544
    55  C   -0.166213
    56  C   -0.188195
    57  C   -0.168190
    58  C   -0.051385
    59  C   -0.277459
    60  C   -0.173648
    61  C   -0.189219
    62  C   -0.164116
    63  C   -0.043688
    64  C   -0.309633
    65  C   -0.301737
    66  H    0.086744
    67  H    0.042835
    68  H    0.073971
    69  H    0.129693
    70  H    0.084233
    71  H    0.092945
    72  H    0.109564
    73  H    0.146287
    74  H    0.139600
    75  H    0.120378
    76  H    0.124244
    77  H    0.137120
    78  H    0.133616
    79  H    0.117463
    80  H    0.114064
    81  H    0.095964
    82  H    0.088937
    83  H    0.107464
    84  H    0.121333
    85  H    0.114586
    86  H    0.130289
    87  H    0.099407
    88  H    0.110869
    89  H    0.095875
    90  H    0.119825
    91  H    0.118918
    92  H    0.121263
    93  H    0.150150
    94  H    0.126507
    95  H    0.163438
    96  H    0.119000
    97  H    0.126674
    98  H    0.123473
    99  H    0.125679
   100  H    0.126214
   101  H    0.089899
   102  H    0.111601
   103  H    0.107061
   104  H    0.119894
   105  H    0.114417
   106  H    0.101214
   107  H    0.096528
   108  H    0.086086
   109  H    0.085872
   110  H    0.060630
   111  H    0.039298
   112  H    0.120611
   113  H    0.074300
   114  H    0.067301
   115  H    0.099358
   116  H    0.100674
   117  H    0.105133
   118  H    0.095897
   119  H    0.084294
   120  H    0.081530
   121  H    0.072921
   122  H    0.044253
   123  H    0.104385
   124  H    0.112804
   125  H    0.088465
   126  H    0.072253
   127  H    0.061047
   128  H    0.105180
   129  H    0.093358
   130  H    0.092217
   131  H    0.084023
   132  H    0.067779
   133  H    0.109757
   134  H    0.101201
   135  H    0.098812
   136  H    0.108605
   137  H    0.085833
 Sum of Mulliken charges =   0.00000

 Dipole moment (field-independent basis, Debye):
    X=              1.3702    Y=              4.5030    Z=             -0.1902  Tot=              4.7106
 Quadrupole moment (field-independent basis, Debye-Ang):
   XX=           -337.4552   YY=           -393.2275   ZZ=           -394.1729
   XY=             -9.5703   XZ=             16.1374   YZ=              2.1851

 Normal termination of Gaussian 09 at Sat Jul  6 17:15:46 2019.
