 Gaussian 16, Revision A.03,
 Gaussian 16:  ES64L-G16RevA.03 25-Dec-2016

 ----------------------------------------------------------------------
 # td=(NStates=1) iop(3/107=0140000000,3/108=0140000000) CAM-B3LYP/6-31
 G(d,p)
 ----------------------------------------------------------------------

 --
 TD
 --
 Symbolic Z-matrix:
 Charge =  0 Multiplicity = 1

                         Standard orientation:
 ---------------------------------------------------------------------
 Center     Atomic      Atomic             Coordinates (Angstroms)
 Number     Number       Type             X           Y           Z
 ---------------------------------------------------------------------
      1         12           0       -7.252733    0.565802    0.180862
      2          6           0       -4.926431   -1.938748    0.412577
      3          6           0       -4.837442    2.791301    1.265622
      4          6           0       -9.320843    3.246378   -0.278404
      5          6           0       -9.624153   -1.716258   -0.901557
      6          7           0       -5.113235    0.387110    0.728176
      7          6           0       -4.322938   -0.709702    0.796483
      8          6           0       -2.895789   -0.512035    1.223326
      9          6           0       -3.036344    0.906669    1.779931
     10          6           0       -4.408999    1.451209    1.164188
     11          6           0       -2.945818    1.116557    3.381946
     12          6           0       -1.880709   -0.683827    0.102208
     13          6           0       -0.410682   -0.473268    0.562833
     14          6           0        0.505958   -0.757326   -0.629042
     15          8           0        0.143715   -0.984492   -1.776701
     16          8           0        1.774412   -0.594993   -0.273111
     17          7           0       -6.935907    2.646131    0.385257
     18          6           0       -5.954268    3.430984    0.884265
     19          6           0       -6.280943    4.893905    0.791114
     20          6           0       -7.520565    4.915803    0.149297
     21          6           0       -8.037797    3.506765    0.055769
     22          6           0       -5.308222    5.917708    1.167814
     23          6           0       -8.393296    6.104169    0.041711
     24          6           0       -8.367318    7.253884    0.687699
     25          7           0       -9.164994    0.754794   -0.541385
     26          6           0       -9.861401    1.914807   -0.680321
     27          6           0      -11.122907    1.668334   -1.109356
     28          6           0      -11.280233    0.222880   -1.207156
     29          6           0       -9.972487   -0.284516   -0.890010
     30          6           0      -12.316279    2.631330   -1.271089
     31          6           0      -12.422977   -0.574571   -1.710107
     32          6           0      -12.214438   -0.931581   -3.147138
     33          7           0       -7.290869   -1.383634   -0.189450
     34          6           0       -8.427646   -2.236920   -0.554679
     35          6           0       -7.957049   -3.592296   -0.479565
     36          6           0       -6.579455   -3.556971   -0.094548
     37          6           0       -6.294095   -2.191521    0.070360
     38          6           0       -8.741080   -4.820913   -0.776871
     39          6           0       -5.501214   -4.347360    0.195659
     40          8           0       -5.400328   -5.628209    0.236891
     41          6           0       -4.228456   -3.390009    0.452955
     42          6           0       -3.695816   -3.663731    1.887861
     43          8           0       -3.954503   -3.072438    2.893804
     44          8           0       -2.946467   -4.791136    1.781271
     45          6           0       -2.500815   -5.304606    2.952896
     46          6           0        2.806993   -0.815465   -1.244231
     47          6           0        4.183510   -0.572581   -0.682176
     48          6           0        5.133134    0.200848   -1.114188
     49          6           0        5.095346    0.956052   -2.408937
     50          6           0        6.487571    0.317772   -0.297459
     51          6           0        7.699987   -0.244546   -1.078453
     52          6           0        9.008844   -0.191671   -0.297433
     53          6           0       10.265103   -0.667742   -0.928323
     54          6           0       10.181763   -2.078422   -1.441373
     55          6           0       11.473633   -0.432045   -0.110485
     56          6           0       12.848765   -0.455745   -0.772536
     57          6           0       13.959500    0.008353    0.086303
     58          6           0       15.320359    0.012479   -0.628110
     59          6           0       15.799231   -1.501790   -0.926486
     60          6           0       16.355697    0.759471    0.391424
     61          6           0       17.761376    0.817698   -0.107625
     62          6           0       18.841824    1.430242    0.851875
     63          6           0       20.363715    1.241728    0.473753
     64          6           0       20.521792    1.971544   -0.792890
     65          6           0       21.291256    1.740624    1.589851
     66          1           0       -3.987267    3.264480    1.576563
     67          1           0       -9.899815    4.199689   -0.454902
     68          1           0      -10.463139   -2.505986   -0.994094
     69          1           0       -2.632952   -1.233108    1.928997
     70          1           0       -2.218457    1.562978    1.356557
     71          1           0       -1.796893    0.789986    3.686345
     72          1           0       -3.012208    2.430062    3.369137
     73          1           0       -3.703590    0.682914    3.979211
     74          1           0       -1.861697   -1.793718   -0.120416
     75          1           0       -2.126422    0.054136   -0.712904
     76          1           0       -0.219797    0.440891    0.918770
     77          1           0       -0.294983   -1.231463    1.189262
     78          1           0       -5.471046    6.962784    0.685318
     79          1           0       -5.372850    6.072130    2.198758
     80          1           0       -4.283818    5.642875    0.669749
     81          1           0       -9.302960    5.957778   -0.716903
     82          1           0       -8.994879    8.008398    0.463859
     83          1           0       -7.543594    7.277631    1.395041
     84          1           0      -11.787584    3.457874   -1.822340
     85          1           0      -13.120951    2.171836   -1.565198
     86          1           0      -12.667644    3.180345   -0.347360
     87          1           0      -12.521176   -1.607177   -1.186100
     88          1           0      -13.455858   -0.177942   -1.527636
     89          1           0      -13.042995   -1.618730   -3.538072
     90          1           0      -12.212260   -0.087033   -3.926441
     91          1           0      -11.349532   -1.603429   -3.238564
     92          1           0       -9.331246   -4.712841   -1.652939
     93          1           0       -8.251909   -5.753250   -0.683114
     94          1           0       -9.408447   -4.770246    0.049441
     95          1           0       -3.453941   -3.623390   -0.343316
     96          1           0       -1.959633   -4.319841    3.526176
     97          1           0       -3.181531   -5.761569    3.788932
     98          1           0       -1.859139   -6.196107    2.461522
     99          1           0        2.668681   -1.815199   -1.561274
    100          1           0        2.551767   -0.014026   -2.114496
    101          1           0        4.309226   -1.071567    0.290836
    102          1           0        4.030361    1.114982   -2.902019
    103          1           0        5.336768    1.853713   -2.040431
    104          1           0        5.670046    0.749877   -3.242626
    105          1           0        6.747980    1.343036   -0.198759
    106          1           0        6.477689   -0.338664    0.524978
    107          1           0        7.574749   -1.386034   -1.422614
    108          1           0        7.931977    0.519164   -1.879168
    109          1           0        9.053753    0.859055   -0.107306
    110          1           0        8.737761   -0.850204    0.713727
    111          1           0       10.460441    0.067361   -1.870634
    112          1           0        9.385903   -2.198832   -2.076568
    113          1           0       11.069139   -2.421720   -1.888735
    114          1           0       10.284798   -2.780675   -0.506781
    115          1           0       11.319064    0.594096    0.410986
    116          1           0       11.545378   -1.278309    0.534256
    117          1           0       12.866513   -1.354213   -1.167951
    118          1           0       12.724402    0.340912   -1.542549
    119          1           0       13.812909    0.935020    0.566069
    120          1           0       14.283455   -0.610808    1.118207
    121          1           0       15.246719    0.466101   -1.575905
    122          1           0       15.991665   -2.248087    0.055293
    123          1           0       15.139396   -2.023050   -1.496442
    124          1           0       16.787527   -1.598917   -1.362960
    125          1           0       15.898671    1.794772    0.598487
    126          1           0       16.392529    0.073430    1.300379
    127          1           0       17.906780   -0.333851   -0.167422
    128          1           0       17.877746    1.280039   -1.089452
    129          1           0       18.399344    2.523482    0.996809
    130          1           0       18.811811    0.845015    1.891632
    131          1           0       20.579574    0.167824    0.324528
    132          1           0       20.566725    3.085457   -0.851442
    133          1           0       21.493469    1.774413   -1.369034
    134          1           0       20.009324    1.574209   -1.722426
    135          1           0       21.054003    1.057511    2.469548
    136          1           0       22.456170    1.647691    1.400734
    137          1           0       21.070467    2.745796    1.646393
 ---------------------------------------------------------------------

 SCF Done:  E(RCAM-B3LYP) =  -2933.50489186     A.U. after   15 cycles

 Excitation energies and oscillator strengths:

 Excited State   1:      Singlet-A      2.1958 eV  564.65 nm  f=0.0960  <S**2>=0.000
     240 -> 242       -0.13766
     240 -> 243       -0.34221
     241 -> 242        0.57974
     241 -> 243       -0.13707
 This state for optimization and/or second-order correction.
 Total Energy, E(TD-HF/TD-DFT) =  -2933.42419908
 Copying the excited state density for this state as the 1-particle RhoCI density.

 The electronic state is 1-A.
 Alpha  occ. eigenvalues --  -46.80519 -19.22312 -19.21961 -19.17803 -19.16119
 Alpha  occ. eigenvalues --  -19.14707 -14.37334 -14.35411 -14.35310 -14.34472
 Alpha  occ. eigenvalues --  -10.34638 -10.34234 -10.29494 -10.28820 -10.28078
 Alpha  occ. eigenvalues --  -10.26845 -10.26315 -10.25677 -10.25288 -10.25224
 Alpha  occ. eigenvalues --  -10.25151 -10.25125 -10.24821 -10.24699 -10.24575
 Alpha  occ. eigenvalues --  -10.24568 -10.24499 -10.23970 -10.23697 -10.23572
 Alpha  occ. eigenvalues --  -10.23518 -10.23513 -10.23145 -10.23124 -10.22852
 Alpha  occ. eigenvalues --  -10.22627 -10.22576 -10.22558 -10.22491 -10.22426
 Alpha  occ. eigenvalues --  -10.22229 -10.22176 -10.22171 -10.22141 -10.21830
 Alpha  occ. eigenvalues --  -10.21759 -10.21469 -10.21430 -10.21311 -10.21265
 Alpha  occ. eigenvalues --  -10.21074 -10.20965 -10.20934 -10.20889 -10.20841
 Alpha  occ. eigenvalues --  -10.20841 -10.20816 -10.20795 -10.20722 -10.20532
 Alpha  occ. eigenvalues --  -10.20374 -10.20298 -10.20186 -10.20076 -10.19895
 Alpha  occ. eigenvalues --   -3.08958  -1.83901  -1.83432  -1.83354  -1.14823
 Alpha  occ. eigenvalues --   -1.13485  -1.06614  -1.03722  -1.01429  -0.99469
 Alpha  occ. eigenvalues --   -0.98359  -0.97711  -0.96788  -0.87164  -0.86377
 Alpha  occ. eigenvalues --   -0.86074  -0.85540  -0.84579  -0.84370  -0.83792
 Alpha  occ. eigenvalues --   -0.83382  -0.83114  -0.82601  -0.81699  -0.81452
 Alpha  occ. eigenvalues --   -0.80497  -0.79922  -0.78945  -0.78720  -0.78243
 Alpha  occ. eigenvalues --   -0.77025  -0.76807  -0.75826  -0.75527  -0.74078
 Alpha  occ. eigenvalues --   -0.73348  -0.72580  -0.71874  -0.71231  -0.71075
 Alpha  occ. eigenvalues --   -0.70873  -0.70229  -0.69929  -0.68950  -0.67966
 Alpha  occ. eigenvalues --   -0.66962  -0.66075  -0.65243  -0.64393  -0.63854
 Alpha  occ. eigenvalues --   -0.62754  -0.61499  -0.60898  -0.60388  -0.59874
 Alpha  occ. eigenvalues --   -0.59000  -0.58894  -0.58720  -0.57752  -0.57461
 Alpha  occ. eigenvalues --   -0.56999  -0.56609  -0.56389  -0.55644  -0.54920
 Alpha  occ. eigenvalues --   -0.54784  -0.54486  -0.54192  -0.53444  -0.53176
 Alpha  occ. eigenvalues --   -0.52932  -0.52271  -0.52159  -0.51909  -0.51268
 Alpha  occ. eigenvalues --   -0.51166  -0.50886  -0.50469  -0.50298  -0.49894
 Alpha  occ. eigenvalues --   -0.49358  -0.49231  -0.49113  -0.48826  -0.48281
 Alpha  occ. eigenvalues --   -0.48150  -0.47769  -0.47695  -0.47543  -0.47331
 Alpha  occ. eigenvalues --   -0.46890  -0.46738  -0.46466  -0.46247  -0.46065
 Alpha  occ. eigenvalues --   -0.45665  -0.45477  -0.45443  -0.45137  -0.44904
 Alpha  occ. eigenvalues --   -0.44859  -0.44438  -0.44240  -0.43786  -0.43490
 Alpha  occ. eigenvalues --   -0.43355  -0.43086  -0.43006  -0.42914  -0.42723
 Alpha  occ. eigenvalues --   -0.42607  -0.42540  -0.41850  -0.41421  -0.41291
 Alpha  occ. eigenvalues --   -0.41238  -0.41109  -0.40801  -0.40702  -0.40681
 Alpha  occ. eigenvalues --   -0.40434  -0.40078  -0.40020  -0.39952  -0.39734
 Alpha  occ. eigenvalues --   -0.39383  -0.39215  -0.39128  -0.38953  -0.38694
 Alpha  occ. eigenvalues --   -0.38570  -0.38111  -0.37975  -0.37816  -0.37706
 Alpha  occ. eigenvalues --   -0.37354  -0.37282  -0.37185  -0.36912  -0.36769
 Alpha  occ. eigenvalues --   -0.36650  -0.36589  -0.36396  -0.35973  -0.35807
 Alpha  occ. eigenvalues --   -0.35638  -0.35043  -0.34957  -0.34898  -0.34546
 Alpha  occ. eigenvalues --   -0.34482  -0.34211  -0.34202  -0.33692  -0.33636
 Alpha  occ. eigenvalues --   -0.33086  -0.32784  -0.32643  -0.32475  -0.32439
 Alpha  occ. eigenvalues --   -0.32122  -0.32055  -0.31679  -0.30912  -0.30880
 Alpha  occ. eigenvalues --   -0.30642  -0.30037  -0.29944  -0.28348  -0.27899
 Alpha  occ. eigenvalues --   -0.26800  -0.25966  -0.25547  -0.24110  -0.21333
 Alpha  occ. eigenvalues --   -0.20818
 Alpha virt. eigenvalues --   -0.06677  -0.05010  -0.00596   0.02208   0.03823
 Alpha virt. eigenvalues --    0.03954   0.04566   0.05018   0.05419   0.05915
 Alpha virt. eigenvalues --    0.06683   0.08121   0.09060   0.09763   0.09863

 Mulliken charges:
               1
     1  Mg   0.827336
     2  C   -0.003653
     3  C   -0.220718
     4  C   -0.175640
     5  C   -0.176588
     6  N   -0.615930
     7  C    0.326875
     8  C   -0.118337
     9  C   -0.160083
    10  C    0.323588
    11  C   -0.269187
    12  C   -0.170974
    13  C   -0.248009
    14  C    0.585880
    15  O   -0.477875
    16  O   -0.460229
    17  N   -0.700645
    18  C    0.357562
    19  C    0.052995
    20  C   -0.016080
    21  C    0.336197
    22  C   -0.386339
    23  C   -0.072431
    24  C   -0.218342
    25  N   -0.714017
    26  C    0.309903
    27  C   -0.021930
    28  C    0.036320
    29  C    0.279615
    30  C   -0.340336
    31  C   -0.257220
    32  C   -0.294857
    33  N   -0.765556
    34  C    0.287221
    35  C    0.007616
    36  C    0.114264
    37  C    0.356444
    38  C   -0.375669
    39  C    0.285198
    40  O   -0.514675
    41  C   -0.312364
    42  C    0.616414
    43  O   -0.454121
    44  O   -0.394176
    45  C   -0.074972
    46  C    0.026344
    47  C   -0.148297
    48  C    0.145606
    49  C   -0.370662
    50  C   -0.215157
    51  C   -0.189741
    52  C   -0.135751
    53  C   -0.031294
    54  C   -0.316314
    55  C   -0.174300
    56  C   -0.164113
    57  C   -0.141729
    58  C   -0.057428
    59  C   -0.321410
    60  C   -0.173016
    61  C   -0.169061
    62  C   -0.152179
    63  C   -0.049527
    64  C   -0.316201
    65  C   -0.290692
    66  H    0.052588
    67  H    0.081406
    68  H    0.097479
    69  H    0.113133
    70  H    0.092670
    71  H    0.093067
    72  H    0.067696
    73  H    0.144143
    74  H    0.109505
    75  H    0.115120
    76  H    0.136650
    77  H    0.137603
    78  H    0.117094
    79  H    0.142834
    80  H    0.118455
    81  H    0.066478
    82  H    0.105055
    83  H    0.089486
    84  H    0.110418
    85  H    0.113690
    86  H    0.106472
    87  H    0.090163
    88  H    0.100459
    89  H    0.082425
    90  H    0.106868
    91  H    0.109968
    92  H    0.129473
    93  H    0.156972
    94  H    0.138777
    95  H    0.155085
    96  H    0.080222
    97  H    0.120777
    98  H    0.108263
    99  H    0.130511
   100  H    0.101518
   101  H    0.083653
   102  H    0.092295
   103  H    0.126485
   104  H    0.138585
   105  H    0.104735
   106  H    0.108101
   107  H    0.083178
   108  H    0.083560
   109  H    0.087786
   110  H    0.051229
   111  H    0.044612
   112  H    0.115162
   113  H    0.109668
   114  H    0.083508
   115  H    0.069694
   116  H    0.090092
   117  H    0.101661
   118  H    0.086178
   119  H    0.096509
   120  H    0.053420
   121  H    0.092095
   122  H    0.061119
   123  H    0.112096
   124  H    0.110054
   125  H    0.073347
   126  H    0.091914
   127  H    0.079577
   128  H    0.095724
   129  H    0.075318
   130  H    0.058704
   131  H    0.092935
   132  H    0.103700
   133  H    0.073758
   134  H    0.099784
   135  H    0.096182
   136  H    0.086917
   137  H    0.116592
 Sum of Mulliken charges =  -0.00000

 Dipole moment (field-independent basis, Debye):
    X=              2.6125    Y=              4.4177    Z=              0.5313  Tot=              5.1598
 Quadrupole moment (field-independent basis, Debye-Ang):
   XX=           -349.4588   YY=           -391.3798   ZZ=           -402.3331
   XY=            -17.3861   XZ=             -9.1494   YZ=             -0.2752

 Normal termination of Gaussian 16 at Fri Sep  6 13:02:59 2019.
