 Gaussian 09, Revision D.01,
 Gaussian 09:  ES64L-G09RevD.01 24-Apr-2013

 -------------------------------------
 # td=(NStates=1) CAM-B3LYP/6-31G(d,p)
 -------------------------------------

 --
 TD
 --
 Symbolic Z-matrix:
 Charge =  0 Multiplicity = 1

                         Standard orientation:
 ---------------------------------------------------------------------
 Center     Atomic      Atomic             Coordinates (Angstroms)
 Number     Number       Type             X           Y           Z
 ---------------------------------------------------------------------
      1         12           0       -7.128998    0.589365    0.095744
      2          6           0       -4.851793   -1.948738    0.508175
      3          6           0       -4.711405    2.874166    1.146636
      4          6           0       -9.432293    3.051652   -0.431122
      5          6           0       -9.548089   -1.710185   -0.845402
      6          7           0       -5.076291    0.420023    0.765897
      7          6           0       -4.354602   -0.713409    0.832312
      8          6           0       -2.904770   -0.365551    1.272041
      9          6           0       -2.973222    1.117051    1.768033
     10          6           0       -4.411346    1.526467    1.127831
     11          6           0       -2.835995    1.252067    3.176217
     12          6           0       -1.987893   -0.608657    0.010049
     13          6           0       -0.436241   -0.358956    0.432913
     14          6           0        0.484675   -0.498069   -0.628487
     15          8           0        0.214374   -0.827065   -1.887284
     16          8           0        1.775386   -0.415573   -0.272885
     17          7           0       -7.083170    2.592497    0.307836
     18          6           0       -6.068986    3.327251    0.731984
     19          6           0       -6.372362    4.716586    0.677017
     20          6           0       -7.683781    4.840811    0.427138
     21          6           0       -8.207382    3.412342    0.122377
     22          6           0       -5.365136    5.839172    1.083540
     23          6           0       -8.500364    5.964510    0.170432
     24          6           0       -8.414369    7.288725    0.677717
     25          7           0       -9.066634    0.654815   -0.576216
     26          6           0       -9.824709    1.734153   -0.777872
     27          6           0      -11.118355    1.394994   -1.213585
     28          6           0      -11.253085    0.057786   -1.246407
     29          6           0       -9.889231   -0.401705   -0.859826
     30          6           0      -12.260356    2.362481   -1.408824
     31          6           0      -12.415552   -0.776881   -1.709391
     32          6           0      -12.308583   -1.192627   -3.092107
     33          7           0       -7.206784   -1.438051   -0.020442
     34          6           0       -8.233201   -2.263180   -0.527654
     35          6           0       -7.843587   -3.596818   -0.480898
     36          6           0       -6.496161   -3.595999   -0.025762
     37          6           0       -6.140973   -2.248534    0.095623
     38          6           0       -8.604819   -4.930939   -0.901463
     39          6           0       -5.252230   -4.329229    0.314085
     40          8           0       -5.066163   -5.505983    0.284630
     41          6           0       -4.183723   -3.280910    0.649207
     42          6           0       -3.433625   -3.552896    1.907376
     43          8           0       -3.730941   -3.041683    3.051007
     44          8           0       -2.580171   -4.496580    1.706444
     45          6           0       -2.122878   -5.099185    2.878949
     46          6           0        2.866292   -0.542488   -1.186471
     47          6           0        4.107692   -0.285537   -0.551651
     48          6           0        5.100019    0.379238   -0.893629
     49          6           0        5.167856    1.237242   -2.208102
     50          6           0        6.411008    0.497175   -0.140467
     51          6           0        7.588252   -0.114070   -0.929992
     52          6           0        8.868636   -0.216937   -0.185721
     53          6           0       10.207549   -0.701864   -0.826581
     54          6           0        9.982959   -2.145224   -1.363309
     55          6           0       11.377942   -0.536883    0.180144
     56          6           0       12.694497   -0.502737   -0.675168
     57          6           0       13.978625   -0.162419    0.292897
     58          6           0       15.210762   -0.224296   -0.541136
     59          6           0       15.608544   -1.704190   -1.043524
     60          6           0       16.292515    0.440061    0.435492
     61          6           0       17.775564    0.500883   -0.126679
     62          6           0       18.714862    1.310411    0.700667
     63          6           0       20.142469    1.365771    0.184436
     64          6           0       20.206331    2.131045   -1.122759
     65          6           0       21.119218    2.045831    1.331315
     66          1           0       -3.844119    3.551586    1.473273
     67          1           0      -10.195059    3.802686   -0.527037
     68          1           0      -10.401920   -2.335663   -1.042431
     69          1           0       -2.608184   -0.908725    1.969985
     70          1           0       -2.229832    1.680147    1.307820
     71          1           0       -1.666316    0.989509    3.195297
     72          1           0       -2.932300    2.417371    3.565580
     73          1           0       -3.391525    0.397566    3.630236
     74          1           0       -2.004463   -1.678079   -0.252578
     75          1           0       -2.201179   -0.128815   -0.951876
     76          1           0       -0.272172    0.573918    0.848036
     77          1           0       -0.354762   -1.219151    1.100127
     78          1           0       -5.411552    6.651428    0.320773
     79          1           0       -5.552244    6.008400    2.155661
     80          1           0       -4.246151    5.511848    0.727557
     81          1           0       -9.274264    5.740226   -0.554635
     82          1           0       -9.055841    8.134739    0.431356
     83          1           0       -7.578012    7.408757    1.397512
     84          1           0      -12.060966    3.281038   -2.096013
     85          1           0      -13.285817    1.757452   -1.686883
     86          1           0      -12.455306    2.910331   -0.265433
     87          1           0      -12.277798   -1.638054   -1.189643
     88          1           0      -13.458298   -0.065709   -1.723292
     89          1           0      -13.192976   -1.829714   -3.387874
     90          1           0      -11.890648   -0.205094   -3.786778
     91          1           0      -11.477795   -1.715138   -3.124943
     92          1           0       -9.045277   -4.999987   -2.079423
     93          1           0       -8.078914   -5.688757   -0.641277
     94          1           0       -9.567110   -5.016302   -0.181581
     95          1           0       -3.382560   -3.472541   -0.335124
     96          1           0       -1.471572   -4.430843    3.566564
     97          1           0       -3.006160   -5.339525    3.528200
     98          1           0       -1.565825   -5.879560    2.554582
     99          1           0        3.199663   -1.685289   -1.508248
    100          1           0        2.554418    0.066820   -2.141492
    101          1           0        4.129409   -0.824620    0.422356
    102          1           0        4.058493    1.216625   -2.524155
    103          1           0        5.414861    2.170835   -1.857234
    104          1           0        5.759775    0.636018   -2.965050
    105          1           0        6.598140    1.416938    0.233001
    106          1           0        5.905456   -0.078844    0.674260
    107          1           0        7.230784   -1.167160   -1.306739
    108          1           0        7.565629    0.511794   -1.935589
    109          1           0        9.315981    0.910311    0.264064
    110          1           0        8.452365   -0.896987    0.793027
    111          1           0       10.256916   -0.119089   -1.851527
    112          1           0        9.120488   -2.325185   -1.911770
    113          1           0       10.954627   -2.409367   -1.830572
    114          1           0       10.020033   -2.920189   -0.646817
    115          1           0       11.296852    0.352463    0.619790
    116          1           0       11.373751   -1.553409    0.851721
    117          1           0       12.757341   -1.544063   -1.064863
    118          1           0       12.511968    0.276554   -1.455290
    119          1           0       13.813147    0.818444    0.506844
    120          1           0       14.212868   -0.773861    1.153749
    121          1           0       15.004966    0.389180   -1.357516
    122          1           0       15.859962   -2.276804   -0.158939
    123          1           0       14.727963   -2.145866   -1.724136
    124          1           0       16.560139   -1.586647   -1.724664
    125          1           0       16.063574    1.458237    0.661007
    126          1           0       16.275372   -0.310299    1.254148
    127          1           0       17.932715   -0.537562   -0.206225
    128          1           0       17.389410    0.812080   -1.122275
    129          1           0       18.079197    2.175400    0.871144
    130          1           0       18.453005    0.880944    1.713204
    131          1           0       20.598617    0.397963    0.103527
    132          1           0       19.826174    3.228550   -1.060819
    133          1           0       21.192762    2.172012   -1.468458
    134          1           0       19.771038    1.525928   -1.885667
    135          1           0       20.896188    1.579455    2.350383
    136          1           0       22.385208    2.109520    1.175794
    137          1           0       20.804896    3.048990    1.426865
 ---------------------------------------------------------------------

 SCF Done:  E(RCAM-B3LYP) =  -2932.52179957     A.U. after   17 cycles

 Excitation energies and oscillator strengths:

 Excited State   1:      Singlet-A      2.1434 eV  578.44 nm  f=0.3401  <S**2>=0.000
     240 -> 242       -0.19274
     240 -> 243        0.18447
     241 -> 242        0.63643
     241 -> 243        0.13145
 This state for optimization and/or second-order correction.
 Total Energy, E(TD-HF/TD-KS) =  -2932.44303023
 Copying the excited state density for this state as the 1-particle RhoCI density.

 The electronic state is 1-A.
 Alpha  occ. eigenvalues --  -46.84498 -19.28377 -19.27162 -19.20286 -19.19573
 Alpha  occ. eigenvalues --  -19.19493 -14.41297 -14.40721 -14.40187 -14.38558
 Alpha  occ. eigenvalues --  -10.39767 -10.39595 -10.34489 -10.33682 -10.31426
 Alpha  occ. eigenvalues --  -10.31337 -10.31226 -10.30719 -10.30254 -10.29737
 Alpha  occ. eigenvalues --  -10.29673 -10.29136 -10.28907 -10.28707 -10.28564
 Alpha  occ. eigenvalues --  -10.28122 -10.28122 -10.28092 -10.27936 -10.27905
 Alpha  occ. eigenvalues --  -10.27838 -10.27802 -10.27620 -10.27547 -10.27444
 Alpha  occ. eigenvalues --  -10.27433 -10.27375 -10.27360 -10.27195 -10.27194
 Alpha  occ. eigenvalues --  -10.27190 -10.27143 -10.26872 -10.26825 -10.26691
 Alpha  occ. eigenvalues --  -10.26333 -10.26134 -10.26102 -10.26069 -10.26054
 Alpha  occ. eigenvalues --  -10.25815 -10.25762 -10.25658 -10.25552 -10.25457
 Alpha  occ. eigenvalues --  -10.25214 -10.25145 -10.24888 -10.24857 -10.24676
 Alpha  occ. eigenvalues --  -10.24181 -10.24126 -10.24108 -10.23680 -10.23451
 Alpha  occ. eigenvalues --   -3.13558  -1.88269  -1.87793  -1.87737  -1.21501
 Alpha  occ. eigenvalues --   -1.17799  -1.11797  -1.06375  -1.05481  -1.04590
 Alpha  occ. eigenvalues --   -1.03917  -1.03748  -1.02596  -0.92722  -0.92687
 Alpha  occ. eigenvalues --   -0.91007  -0.90705  -0.90430  -0.89710  -0.89306
 Alpha  occ. eigenvalues --   -0.89007  -0.88357  -0.87908  -0.87130  -0.85964
 Alpha  occ. eigenvalues --   -0.85369  -0.84871  -0.84716  -0.83463  -0.83112
 Alpha  occ. eigenvalues --   -0.82529  -0.81641  -0.80488  -0.79456  -0.78489
 Alpha  occ. eigenvalues --   -0.77543  -0.77129  -0.76269  -0.75941  -0.75396
 Alpha  occ. eigenvalues --   -0.75152  -0.74905  -0.74173  -0.73669  -0.73194
 Alpha  occ. eigenvalues --   -0.71110  -0.70667  -0.69656  -0.69269  -0.68967
 Alpha  occ. eigenvalues --   -0.67583  -0.66112  -0.65970  -0.65578  -0.64418
 Alpha  occ. eigenvalues --   -0.64326  -0.63864  -0.63342  -0.63083  -0.62784
 Alpha  occ. eigenvalues --   -0.61339  -0.60802  -0.60652  -0.60130  -0.59653
 Alpha  occ. eigenvalues --   -0.58870  -0.58725  -0.57685  -0.57341  -0.56780
 Alpha  occ. eigenvalues --   -0.56605  -0.56450  -0.56030  -0.55534  -0.55046
 Alpha  occ. eigenvalues --   -0.54638  -0.54475  -0.54159  -0.54038  -0.53407
 Alpha  occ. eigenvalues --   -0.53152  -0.52895  -0.52631  -0.52427  -0.52003
 Alpha  occ. eigenvalues --   -0.51751  -0.51695  -0.51292  -0.50977  -0.50780
 Alpha  occ. eigenvalues --   -0.50588  -0.50303  -0.49872  -0.49723  -0.49668
 Alpha  occ. eigenvalues --   -0.49369  -0.49239  -0.48867  -0.48721  -0.48512
 Alpha  occ. eigenvalues --   -0.48272  -0.48223  -0.47489  -0.47398  -0.47062
 Alpha  occ. eigenvalues --   -0.46837  -0.46710  -0.46409  -0.46053  -0.45890
 Alpha  occ. eigenvalues --   -0.45739  -0.45401  -0.45202  -0.45157  -0.44781
 Alpha  occ. eigenvalues --   -0.44620  -0.44548  -0.44368  -0.43996  -0.43954
 Alpha  occ. eigenvalues --   -0.43726  -0.43636  -0.43233  -0.43174  -0.43074
 Alpha  occ. eigenvalues --   -0.42822  -0.42642  -0.42463  -0.42262  -0.42089
 Alpha  occ. eigenvalues --   -0.41899  -0.41805  -0.41730  -0.41689  -0.41385
 Alpha  occ. eigenvalues --   -0.40904  -0.40760  -0.40653  -0.40460  -0.40160
 Alpha  occ. eigenvalues --   -0.40118  -0.40091  -0.39434  -0.39283  -0.39138
 Alpha  occ. eigenvalues --   -0.38765  -0.38682  -0.38465  -0.38045  -0.37987
 Alpha  occ. eigenvalues --   -0.37706  -0.37674  -0.37117  -0.36876  -0.36214
 Alpha  occ. eigenvalues --   -0.36208  -0.35680  -0.35605  -0.35579  -0.34836
 Alpha  occ. eigenvalues --   -0.34683  -0.34535  -0.33740  -0.33174  -0.32454
 Alpha  occ. eigenvalues --   -0.32379  -0.32205  -0.32015  -0.31507  -0.30681
 Alpha  occ. eigenvalues --   -0.29741  -0.29557  -0.28194  -0.28063  -0.23845
 Alpha  occ. eigenvalues --   -0.21485
 Alpha virt. eigenvalues --   -0.06979  -0.02948   0.02004   0.03250   0.03987
 Alpha virt. eigenvalues --    0.04724   0.05883   0.06583   0.07014   0.08384
 Alpha virt. eigenvalues --    0.09179   0.09303   0.10274   0.10574   0.11204

 Mulliken charges:
               1
     1  Mg   0.819516
     2  C    0.106658
     3  C   -0.205758
     4  C   -0.178457
     5  C   -0.163652
     6  N   -0.649229
     7  C    0.292906
     8  C   -0.113913
     9  C   -0.136651
    10  C    0.347185
    11  C   -0.278560
    12  C   -0.203876
    13  C   -0.263989
    14  C    0.591853
    15  O   -0.531230
    16  O   -0.462103
    17  N   -0.716429
    18  C    0.338434
    19  C    0.002380
    20  C    0.023247
    21  C    0.290063
    22  C   -0.363114
    23  C   -0.105372
    24  C   -0.251093
    25  N   -0.696617
    26  C    0.327572
    27  C    0.031725
    28  C    0.034590
    29  C    0.286705
    30  C   -0.358826
    31  C   -0.208747
    32  C   -0.278627
    33  N   -0.707657
    34  C    0.243700
    35  C   -0.021801
    36  C    0.006675
    37  C    0.258269
    38  C   -0.327092
    39  C    0.368698
    40  O   -0.450016
    41  C   -0.322367
    42  C    0.619867
    43  O   -0.533281
    44  O   -0.386358
    45  C   -0.087950
    46  C    0.030375
    47  C   -0.118970
    48  C    0.072200
    49  C   -0.340709
    50  C   -0.196689
    51  C   -0.174204
    52  C   -0.123119
    53  C   -0.060310
    54  C   -0.323178
    55  C   -0.156676
    56  C   -0.206108
    57  C   -0.155833
    58  C   -0.078540
    59  C   -0.309019
    60  C   -0.213798
    61  C   -0.184018
    62  C   -0.166302
    63  C   -0.058989
    64  C   -0.305708
    65  C   -0.315161
    66  H    0.099593
    67  H    0.097658
    68  H    0.087667
    69  H    0.093110
    70  H    0.098600
    71  H    0.083352
    72  H    0.094525
    73  H    0.137793
    74  H    0.119590
    75  H    0.136133
    76  H    0.141795
    77  H    0.158354
    78  H    0.133603
    79  H    0.143626
    80  H    0.096793
    81  H    0.094034
    82  H    0.120678
    83  H    0.101192
    84  H    0.116228
    85  H    0.097586
    86  H    0.085879
    87  H    0.115673
    88  H    0.083984
    89  H    0.108172
    90  H    0.073986
    91  H    0.120402
    92  H    0.097547
    93  H    0.151382
    94  H    0.092596
    95  H    0.137153
    96  H    0.114216
    97  H    0.140858
    98  H    0.130086
    99  H    0.106695
   100  H    0.128607
   101  H    0.092201
   102  H    0.080929
   103  H    0.126449
   104  H    0.124268
   105  H    0.112299
   106  H    0.082499
   107  H    0.087481
   108  H    0.080896
   109  H    0.035082
   110  H    0.063227
   111  H    0.076459
   112  H    0.112140
   113  H    0.090004
   114  H    0.101944
   115  H    0.101338
   116  H    0.085584
   117  H    0.098070
   118  H    0.096609
   119  H    0.103077
   120  H    0.090916
   121  H    0.086215
   122  H    0.106772
   123  H    0.095255
   124  H    0.097730
   125  H    0.093381
   126  H    0.081289
   127  H    0.094370
   128  H    0.089545
   129  H    0.092853
   130  H    0.086918
   131  H    0.105023
   132  H    0.094537
   133  H    0.107711
   134  H    0.113845
   135  H    0.094283
   136  H    0.065931
   137  H    0.111202
 Sum of Mulliken charges =   0.00000

 Dipole moment (field-independent basis, Debye):
    X=              0.3656    Y=              5.1083    Z=              0.4529  Tot=              5.1414
 Quadrupole moment (field-independent basis, Debye-Ang):
   XX=           -351.4141   YY=           -387.3375   ZZ=           -407.1455
   XY=            -29.0295   XZ=             11.2567   YZ=             -0.8643

 Normal termination of Gaussian 09 at Sat Jul  6 02:55:36 2019.
