 Gaussian 09, Revision D.01,
 Gaussian 09:  ES64L-G09RevD.01 24-Apr-2013

 -------------------------------------
 # td=(NStates=1) CAM-B3LYP/6-31G(d,p)
 -------------------------------------

 --
 TD
 --
 Symbolic Z-matrix:
 Charge =  0 Multiplicity = 1

                         Standard orientation:
 ---------------------------------------------------------------------
 Center     Atomic      Atomic             Coordinates (Angstroms)
 Number     Number       Type             X           Y           Z
 ---------------------------------------------------------------------
      1         12           0       -7.185140    0.595576    0.022580
      2          6           0       -4.777087   -2.003239    0.403198
      3          6           0       -4.771394    2.812714    1.150902
      4          6           0       -9.411282    3.085766   -0.294646
      5          6           0       -9.605773   -1.688434   -0.802096
      6          7           0       -5.015295    0.401681    0.630187
      7          6           0       -4.291968   -0.733219    0.720025
      8          6           0       -2.971040   -0.456744    1.243200
      9          6           0       -3.029604    0.965167    1.812748
     10          6           0       -4.273749    1.420353    1.125911
     11          6           0       -3.111620    1.149769    3.305244
     12          6           0       -1.904294   -0.682161    0.090730
     13          6           0       -0.454095   -0.460527    0.570033
     14          6           0        0.583930   -0.576577   -0.538431
     15          8           0        0.205198   -0.868975   -1.668266
     16          8           0        1.797188   -0.324792   -0.163075
     17          7           0       -7.057692    2.585834    0.278670
     18          6           0       -5.990955    3.295170    0.708506
     19          6           0       -6.363890    4.701822    0.857954
     20          6           0       -7.660917    4.851955    0.409541
     21          6           0       -8.092193    3.511155    0.053994
     22          6           0       -5.513441    5.833307    1.246318
     23          6           0       -8.525244    5.916616    0.139271
     24          6           0       -8.499553    7.286550    0.660622
     25          7           0       -9.177531    0.695048   -0.427040
     26          6           0       -9.888775    1.838769   -0.541530
     27          6           0      -11.234621    1.497064   -1.010444
     28          6           0      -11.286604    0.110013   -1.225749
     29          6           0       -9.966467   -0.330889   -0.816190
     30          6           0      -12.330779    2.472926   -1.351920
     31          6           0      -12.308815   -0.746328   -1.800910
     32          6           0      -12.348124   -0.870132   -3.265799
     33          7           0       -7.274125   -1.362131   -0.192040
     34          6           0       -8.338439   -2.215779   -0.551457
     35          6           0       -7.929147   -3.610792   -0.519776
     36          6           0       -6.536825   -3.582992   -0.191635
     37          6           0       -6.187457   -2.214293   -0.089244
     38          6           0       -8.635096   -4.803633   -0.986278
     39          6           0       -5.382766   -4.376484    0.094042
     40          8           0       -5.246590   -5.581632    0.196397
     41          6           0       -4.208741   -3.428406    0.486449
     42          6           0       -3.604093   -3.786954    1.759085
     43          8           0       -3.931356   -3.329886    2.870579
     44          8           0       -2.728292   -4.743653    1.684344
     45          6           0       -2.215748   -5.303900    2.888857
     46          6           0        2.950997   -0.435658   -1.123291
     47          6           0        4.176651   -0.317605   -0.455577
     48          6           0        5.175022    0.546599   -0.802395
     49          6           0        5.224813    1.492567   -2.017199
     50          6           0        6.454598    0.545274   -0.026576
     51          6           0        7.651829   -0.154673   -0.820334
     52          6           0        8.963757   -0.085226   -0.005987
     53          6           0       10.198603   -0.619831   -0.744256
     54          6           0       10.198011   -2.125792   -1.222067
     55          6           0       11.477133   -0.262792    0.151050
     56          6           0       12.791346   -0.458332   -0.752875
     57          6           0       13.987153   -0.084953    0.217848
     58          6           0       15.392871   -0.262858   -0.394666
     59          6           0       15.601402   -1.614356   -1.022962
     60          6           0       16.481375    0.267978    0.355155
     61          6           0       17.841634    0.425045   -0.315187
     62          6           0       18.832623    1.142093    0.662035
     63          6           0       20.206575    1.387404    0.202969
     64          6           0       20.333698    2.227455   -1.129304
     65          6           0       21.261044    1.916279    1.205260
     66          1           0       -4.118753    3.589869    1.399573
     67          1           0      -10.133351    3.964884   -0.599013
     68          1           0      -10.408087   -2.394550   -0.995990
     69          1           0       -2.733313   -1.130269    1.961379
     70          1           0       -2.174677    1.500717    1.475624
     71          1           0       -2.177425    1.032927    3.951927
     72          1           0       -3.571232    2.211189    3.366293
     73          1           0       -3.984909    0.559909    3.642712
     74          1           0       -2.196788   -1.678113   -0.243492
     75          1           0       -2.252769    0.112754   -0.687409
     76          1           0       -0.161154    0.561001    0.996177
     77          1           0       -0.171896   -1.152892    1.238669
     78          1           0       -5.799496    6.644274    0.693905
     79          1           0       -5.503321    6.120820    2.254965
     80          1           0       -4.429896    5.592028    0.858147
     81          1           0       -9.336830    5.691481   -0.499010
     82          1           0       -9.127031    7.804084    0.343566
     83          1           0       -7.801858    7.590669    1.394924
     84          1           0      -12.049698    2.970821   -2.325627
     85          1           0      -13.364149    1.989759   -1.569575
     86          1           0      -12.324399    3.425149   -0.733484
     87          1           0      -12.269335   -1.848323   -1.279277
     88          1           0      -13.215413   -0.311438   -1.614927
     89          1           0      -13.033255   -1.719332   -3.780147
     90          1           0      -12.443053   -0.108515   -3.937245
     91          1           0      -11.413452   -1.411724   -3.565540
     92          1           0       -9.101167   -4.701415   -2.075426
     93          1           0       -8.176087   -5.839774   -0.844721
     94          1           0       -9.549282   -4.938693   -0.437927
     95          1           0       -3.314782   -3.763150   -0.327284
     96          1           0       -1.606152   -4.513088    3.343138
     97          1           0       -3.014562   -5.650860    3.405005
     98          1           0       -1.708268   -6.129132    2.537436
     99          1           0        2.694243   -1.426859   -1.679169
    100          1           0        2.909635    0.199518   -1.832886
    101          1           0        4.296703   -0.907934    0.400698
    102          1           0        4.132668    1.597504   -2.393503
    103          1           0        5.830902    2.363667   -1.831041
    104          1           0        5.722331    0.932294   -3.001884
    105          1           0        6.771911    1.638129    0.261105
    106          1           0        6.289081    0.115219    0.851647
    107          1           0        7.158537   -0.993979   -1.426242
    108          1           0        7.826556    0.573048   -1.773896
    109          1           0        8.982800    0.906408    0.206654
    110          1           0        8.768806   -0.735162    0.678430
    111          1           0       10.172136   -0.080014   -1.666280
    112          1           0        9.270679   -2.380691   -1.827448
    113          1           0       11.172477   -2.250629   -1.836868
    114          1           0       10.285005   -2.590296   -0.240131
    115          1           0       11.327134    0.729018    0.572442
    116          1           0       11.637313   -1.236292    0.749413
    117          1           0       12.926531   -1.513353   -1.217403
    118          1           0       12.781495    0.145161   -1.660677
    119          1           0       13.793633    0.924814    0.517371
    120          1           0       13.910192   -0.674731    1.157045
    121          1           0       15.313366    0.391354   -1.227803
    122          1           0       15.302409   -2.475826   -0.181222
    123          1           0       15.079754   -1.885590   -2.024366
    124          1           0       16.981536   -1.905402   -1.170097
    125          1           0       15.918236    1.209655    0.562360
    126          1           0       16.617552   -0.157121    1.465661
    127          1           0       18.115685   -0.537844   -0.493358
    128          1           0       17.758600    0.764804   -1.418123
    129          1           0       18.404694    2.067743    0.987592
    130          1           0       18.917867    0.401131    1.446625
    131          1           0       20.634700    0.330715    0.010835
    132          1           0       20.012696    3.224538   -0.849327
    133          1           0       21.310544    2.134377   -1.538866
    134          1           0       19.680148    1.939073   -2.037703
    135          1           0       21.096637    1.378000    2.142324
    136          1           0       22.130566    1.654141    0.621360
    137          1           0       21.048289    3.024420    1.477182
 ---------------------------------------------------------------------

 SCF Done:  E(RCAM-B3LYP) =  -2932.64826673     A.U. after   18 cycles

 Excitation energies and oscillator strengths:

 Excited State   1:      Singlet-A      1.9669 eV  630.37 nm  f=0.2413  <S**2>=0.000
     240 -> 243       -0.24303
     241 -> 242        0.65670
 This state for optimization and/or second-order correction.
 Total Energy, E(TD-HF/TD-KS) =  -2932.57598611
 Copying the excited state density for this state as the 1-particle RhoCI density.

 The electronic state is 1-A.
 Alpha  occ. eigenvalues --  -46.84263 -19.26460 -19.25597 -19.19489 -19.18798
 Alpha  occ. eigenvalues --  -19.18585 -14.41960 -14.39704 -14.39457 -14.38957
 Alpha  occ. eigenvalues --  -10.37996 -10.37848 -10.34557 -10.31781 -10.31404
 Alpha  occ. eigenvalues --  -10.29958 -10.29772 -10.29746 -10.29627 -10.29570
 Alpha  occ. eigenvalues --  -10.29183 -10.29114 -10.28990 -10.28847 -10.28698
 Alpha  occ. eigenvalues --  -10.28686 -10.28667 -10.28401 -10.27793 -10.27748
 Alpha  occ. eigenvalues --  -10.27703 -10.27399 -10.27385 -10.27256 -10.27137
 Alpha  occ. eigenvalues --  -10.27037 -10.26990 -10.26864 -10.26739 -10.26716
 Alpha  occ. eigenvalues --  -10.26706 -10.26594 -10.26580 -10.26513 -10.26424
 Alpha  occ. eigenvalues --  -10.26227 -10.26154 -10.26009 -10.25965 -10.25943
 Alpha  occ. eigenvalues --  -10.25880 -10.25831 -10.25495 -10.25457 -10.25236
 Alpha  occ. eigenvalues --  -10.25214 -10.25156 -10.25089 -10.25063 -10.25000
 Alpha  occ. eigenvalues --  -10.24979 -10.24837 -10.24492 -10.24423 -10.24034
 Alpha  occ. eigenvalues --   -3.13346  -1.88042  -1.87588  -1.87530  -1.19012
 Alpha  occ. eigenvalues --   -1.18176  -1.10469  -1.07515  -1.06387  -1.05221
 Alpha  occ. eigenvalues --   -1.03879  -1.02922  -1.01882  -0.92438  -0.91725
 Alpha  occ. eigenvalues --   -0.91668  -0.90033  -0.89785  -0.89715  -0.89501
 Alpha  occ. eigenvalues --   -0.88854  -0.88321  -0.87501  -0.86715  -0.86664
 Alpha  occ. eigenvalues --   -0.85594  -0.84504  -0.84183  -0.83457  -0.83092
 Alpha  occ. eigenvalues --   -0.82003  -0.81693  -0.81136  -0.79653  -0.78607
 Alpha  occ. eigenvalues --   -0.78392  -0.77353  -0.76944  -0.76550  -0.75188
 Alpha  occ. eigenvalues --   -0.74918  -0.74758  -0.74158  -0.73563  -0.72414
 Alpha  occ. eigenvalues --   -0.71450  -0.70980  -0.70443  -0.70008  -0.69787
 Alpha  occ. eigenvalues --   -0.67999  -0.67498  -0.65785  -0.65555  -0.64526
 Alpha  occ. eigenvalues --   -0.64280  -0.63944  -0.63572  -0.62094  -0.62032
 Alpha  occ. eigenvalues --   -0.61126  -0.60797  -0.60668  -0.60215  -0.59414
 Alpha  occ. eigenvalues --   -0.59002  -0.58328  -0.57687  -0.57273  -0.56792
 Alpha  occ. eigenvalues --   -0.56341  -0.56155  -0.55684  -0.55166  -0.55067
 Alpha  occ. eigenvalues --   -0.54767  -0.54477  -0.54162  -0.53921  -0.53768
 Alpha  occ. eigenvalues --   -0.53104  -0.52885  -0.52564  -0.52506  -0.52185
 Alpha  occ. eigenvalues --   -0.51498  -0.51240  -0.50977  -0.50911  -0.50649
 Alpha  occ. eigenvalues --   -0.50576  -0.50339  -0.50210  -0.49706  -0.49677
 Alpha  occ. eigenvalues --   -0.49357  -0.49196  -0.49099  -0.48789  -0.48304
 Alpha  occ. eigenvalues --   -0.48211  -0.47941  -0.47802  -0.47486  -0.47188
 Alpha  occ. eigenvalues --   -0.47018  -0.46734  -0.46568  -0.46460  -0.45940
 Alpha  occ. eigenvalues --   -0.45884  -0.45647  -0.45487  -0.45385  -0.45201
 Alpha  occ. eigenvalues --   -0.45147  -0.44826  -0.44675  -0.44364  -0.44048
 Alpha  occ. eigenvalues --   -0.43915  -0.43888  -0.43796  -0.43640  -0.43481
 Alpha  occ. eigenvalues --   -0.43120  -0.43099  -0.42906  -0.42642  -0.42296
 Alpha  occ. eigenvalues --   -0.42161  -0.42064  -0.42015  -0.41568  -0.41312
 Alpha  occ. eigenvalues --   -0.41201  -0.41052  -0.40700  -0.40470  -0.40334
 Alpha  occ. eigenvalues --   -0.40098  -0.39982  -0.39753  -0.39534  -0.38922
 Alpha  occ. eigenvalues --   -0.38797  -0.38407  -0.38329  -0.37775  -0.37568
 Alpha  occ. eigenvalues --   -0.37436  -0.37256  -0.37133  -0.36718  -0.36405
 Alpha  occ. eigenvalues --   -0.36390  -0.36210  -0.36120  -0.35775  -0.35660
 Alpha  occ. eigenvalues --   -0.35545  -0.35016  -0.34948  -0.33871  -0.33623
 Alpha  occ. eigenvalues --   -0.32145  -0.31983  -0.31601  -0.30391  -0.29801
 Alpha  occ. eigenvalues --   -0.29705  -0.28937  -0.27834  -0.26643  -0.22909
 Alpha  occ. eigenvalues --   -0.20840
 Alpha virt. eigenvalues --   -0.06667  -0.03158   0.00983   0.02971   0.03525
 Alpha virt. eigenvalues --    0.05548   0.06344   0.06821   0.06930   0.08201
 Alpha virt. eigenvalues --    0.08813   0.09933   0.10187   0.11148   0.11198

 Mulliken charges:
               1
     1  Mg   0.835183
     2  C    0.061342
     3  C   -0.200327
     4  C   -0.194754
     5  C   -0.169562
     6  N   -0.611980
     7  C    0.331761
     8  C   -0.180396
     9  C   -0.123000
    10  C    0.300478
    11  C   -0.304512
    12  C   -0.152638
    13  C   -0.260027
    14  C    0.590234
    15  O   -0.497867
    16  O   -0.475086
    17  N   -0.723308
    18  C    0.358076
    19  C   -0.018053
    20  C    0.104094
    21  C    0.251763
    22  C   -0.378939
    23  C   -0.146847
    24  C   -0.185826
    25  N   -0.714985
    26  C    0.345040
    27  C    0.010466
    28  C    0.061524
    29  C    0.295247
    30  C   -0.391611
    31  C   -0.241588
    32  C   -0.306904
    33  N   -0.716193
    34  C    0.266684
    35  C    0.058441
    36  C    0.020254
    37  C    0.248362
    38  C   -0.396669
    39  C    0.360120
    40  O   -0.472737
    41  C   -0.320445
    42  C    0.634016
    43  O   -0.523723
    44  O   -0.437020
    45  C   -0.066976
    46  C    0.034553
    47  C   -0.118846
    48  C    0.101856
    49  C   -0.350936
    50  C   -0.218422
    51  C   -0.209894
    52  C   -0.138372
    53  C   -0.085475
    54  C   -0.314081
    55  C   -0.178918
    56  C   -0.200686
    57  C   -0.183587
    58  C   -0.045671
    59  C   -0.275696
    60  C   -0.150913
    61  C   -0.180081
    62  C   -0.155334
    63  C   -0.078463
    64  C   -0.307494
    65  C   -0.291147
    66  H    0.073995
    67  H    0.078040
    68  H    0.086864
    69  H    0.118857
    70  H    0.105677
    71  H    0.112574
    72  H    0.101368
    73  H    0.129211
    74  H    0.122492
    75  H    0.104668
    76  H    0.122816
    77  H    0.137962
    78  H    0.132529
    79  H    0.133609
    80  H    0.098294
    81  H    0.093061
    82  H    0.075541
    83  H    0.103986
    84  H    0.119691
    85  H    0.112657
    86  H    0.116110
    87  H    0.092921
    88  H    0.114933
    89  H    0.080313
    90  H    0.125772
    91  H    0.100341
    92  H    0.114942
    93  H    0.148016
    94  H    0.125458
    95  H    0.141010
    96  H    0.125120
    97  H    0.144819
    98  H    0.128796
    99  H    0.124560
   100  H    0.117150
   101  H    0.094327
   102  H    0.110772
   103  H    0.131063
   104  H    0.105638
   105  H    0.078520
   106  H    0.109218
   107  H    0.102051
   108  H    0.060148
   109  H    0.104658
   110  H    0.108985
   111  H    0.082118
   112  H    0.106675
   113  H    0.102730
   114  H    0.104861
   115  H    0.104074
   116  H    0.101518
   117  H    0.091763
   118  H    0.094448
   119  H    0.096570
   120  H    0.088639
   121  H    0.098382
   122  H    0.071220
   123  H    0.104056
   124  H    0.031713
   125  H    0.081534
   126  H    0.061364
   127  H    0.107590
   128  H    0.079657
   129  H    0.090908
   130  H    0.095897
   131  H    0.062841
   132  H    0.102967
   133  H    0.104895
   134  H    0.087257
   135  H    0.100799
   136  H    0.115154
   137  H    0.087333
 Sum of Mulliken charges =   0.00000

 Dipole moment (field-independent basis, Debye):
    X=              3.4498    Y=              4.7092    Z=             -0.2349  Tot=              5.8424
 Quadrupole moment (field-independent basis, Debye-Ang):
   XX=           -354.9583   YY=           -391.8498   ZZ=           -398.3659
   XY=            -18.1025   XZ=             18.1637   YZ=             -0.7376

 Normal termination of Gaussian 09 at Fri Jul  5 11:51:22 2019.
