 Gaussian 16, Revision A.03,
 Gaussian 16:  ES64L-G16RevA.03 25-Dec-2016

 ----------------------------------------------------------------------
 # td=(NStates=1) iop(3/107=0140000000,3/108=0140000000) CAM-B3LYP/6-31
 G(d,p)
 ----------------------------------------------------------------------

 --
 TD
 --
 Symbolic Z-matrix:
 Charge =  0 Multiplicity = 1

                         Standard orientation:
 ---------------------------------------------------------------------
 Center     Atomic      Atomic             Coordinates (Angstroms)
 Number     Number       Type             X           Y           Z
 ---------------------------------------------------------------------
      1         12           0       -7.151454    0.608218    0.201408
      2          6           0       -4.899920   -1.976858    0.566581
      3          6           0       -4.659147    2.780665    1.305557
      4          6           0       -9.381348    3.114149   -0.273604
      5          6           0       -9.643644   -1.641474   -0.970421
      6          7           0       -5.154793    0.434238    0.831392
      7          6           0       -4.365677   -0.758521    0.954504
      8          6           0       -2.963101   -0.462581    1.347512
      9          6           0       -3.009574    1.084215    1.739701
     10          6           0       -4.350501    1.457804    1.274279
     11          6           0       -2.835245    1.122398    3.281296
     12          6           0       -1.983212   -0.573217    0.111133
     13          6           0       -0.523885   -0.449673    0.613852
     14          6           0        0.462559   -0.716057   -0.541003
     15          8           0        0.249471   -1.161803   -1.677507
     16          8           0        1.698891   -0.419768   -0.162809
     17          7           0       -7.068955    2.596077    0.488657
     18          6           0       -5.924874    3.368443    0.868871
     19          6           0       -6.255813    4.776419    0.846262
     20          6           0       -7.617967    4.811724    0.457033
     21          6           0       -8.075542    3.497880    0.151374
     22          6           0       -5.344490    5.824300    1.084215
     23          6           0       -8.302810    6.022071    0.076897
     24          6           0       -8.244972    7.336163    0.690320
     25          7           0       -9.119989    0.714479   -0.566952
     26          6           0       -9.850957    1.840050   -0.727860
     27          6           0      -11.148176    1.524688   -1.263866
     28          6           0      -11.250544    0.197077   -1.298911
     29          6           0       -9.890731   -0.330078   -0.923366
     30          6           0      -12.184826    2.685219   -1.511565
     31          6           0      -12.380323   -0.715816   -1.981165
     32          6           0      -12.137561   -1.054224   -3.390944
     33          7           0       -7.266643   -1.424021   -0.146689
     34          6           0       -8.304453   -2.179882   -0.538359
     35          6           0       -7.924457   -3.581277   -0.567620
     36          6           0       -6.577046   -3.539886   -0.135447
     37          6           0       -6.179301   -2.140571    0.132909
     38          6           0       -8.706382   -4.824648   -0.912293
     39          6           0       -5.431853   -4.334861    0.136431
     40          8           0       -5.210860   -5.511328    0.083655
     41          6           0       -4.206108   -3.396911    0.623874
     42          6           0       -3.680591   -3.805203    1.871441
     43          8           0       -3.943287   -3.293463    2.958855
     44          8           0       -2.714214   -4.868352    1.736348
     45          6           0       -2.067008   -5.260366    2.891981
     46          6           0        2.790711   -0.640344   -1.205500
     47          6           0        4.083565   -0.514916   -0.488449
     48          6           0        5.045256    0.346532   -0.890533
     49          6           0        4.888585    1.369597   -1.938851
     50          6           0        6.427838    0.459202   -0.236473
     51          6           0        7.566166   -0.176819   -0.964118
     52          6           0        8.891632   -0.104695   -0.182057
     53          6           0       10.226442   -0.490003   -0.876469
     54          6           0       10.040109   -1.877493   -1.444934
     55          6           0       11.347773   -0.268472    0.142465
     56          6           0       12.744912   -0.425319   -0.797454
     57          6           0       14.030039   -0.150804    0.196899
     58          6           0       15.388354   -0.221492   -0.539536
     59          6           0       15.693044   -1.638069   -0.954186
     60          6           0       16.373109    0.307647    0.328672
     61          6           0       17.824930    0.469990   -0.273587
     62          6           0       18.838045    1.189984    0.694726
     63          6           0       20.228341    1.343888    0.156974
     64          6           0       20.263557    2.168689   -1.113313
     65          6           0       21.144104    1.866721    1.275837
     66          1           0       -3.944345    3.598654    1.707573
     67          1           0      -10.046704    4.021684   -0.242295
     68          1           0      -10.215054   -2.279380   -1.340221
     69          1           0       -2.625528   -1.036307    2.190222
     70          1           0       -2.126729    1.655437    1.117863
     71          1           0       -1.854295    0.736493    3.424508
     72          1           0       -3.065352    2.114292    3.544604
     73          1           0       -3.780274    0.493823    3.616097
     74          1           0       -1.868808   -1.450413   -0.413748
     75          1           0       -2.198929    0.154379   -0.690880
     76          1           0       -0.493750    0.465830    0.903096
     77          1           0       -0.374785   -1.050009    1.376173
     78          1           0       -5.393534    6.514928    0.292474
     79          1           0       -5.246487    6.151963    2.063626
     80          1           0       -4.390098    5.390510    1.040399
     81          1           0       -8.972891    5.865903   -0.820043
     82          1           0       -8.656039    8.183673    0.423861
     83          1           0       -7.532331    7.279455    1.452891
     84          1           0      -12.175948    3.367066   -2.266690
     85          1           0      -13.095064    2.219629   -1.626506
     86          1           0      -12.344584    3.205367   -0.621685
     87          1           0      -12.409410   -1.597239   -1.323073
     88          1           0      -13.359184   -0.296611   -1.582281
     89          1           0      -13.268446   -1.435710   -3.898082
     90          1           0      -11.950847   -0.140039   -4.202836
     91          1           0      -11.137079   -1.738407   -3.535445
     92          1           0       -9.067524   -4.683406   -1.954172
     93          1           0       -8.199287   -5.760046   -0.937393
     94          1           0       -9.597570   -5.063150   -0.257576
     95          1           0       -3.361461   -3.397158   -0.238680
     96          1           0       -1.558090   -4.273230    3.139203
     97          1           0       -2.886743   -5.651578    3.661951
     98          1           0       -1.517038   -6.214943    2.693591
     99          1           0        2.613155   -1.737313   -1.427519
    100          1           0        2.474447   -0.098797   -2.035086
    101          1           0        4.119305   -1.193882    0.319218
    102          1           0        3.890485    1.435982   -2.200314
    103          1           0        5.414019    2.373624   -1.606692
    104          1           0        5.588670    1.204752   -2.787179
    105          1           0        6.558961    1.397024    0.302064
    106          1           0        6.318435   -0.317148    0.642151
    107          1           0        7.338977   -1.136151   -1.075521
    108          1           0        7.915563    0.045190   -1.829510
    109          1           0        9.013622    0.912698    0.403575
    110          1           0        8.870340   -0.708263    0.826030
    111          1           0       10.333399    0.293717   -1.663101
    112          1           0        9.377243   -2.121792   -2.454970
    113          1           0       11.072321   -2.365574   -1.742486
    114          1           0        9.622217   -2.458635   -0.555634
    115          1           0       11.343953    0.754764    0.307826
    116          1           0       11.391955   -0.890399    0.955014
    117          1           0       12.884261   -1.412449   -1.276320
    118          1           0       12.689831    0.487411   -1.637098
    119          1           0       13.862643    0.847549    0.610243
    120          1           0       14.040659   -0.613064    0.996830
    121          1           0       15.389905    0.386434   -1.433111
    122          1           0       15.498697   -2.418397   -0.248871
    123          1           0       14.839927   -2.010025   -1.585047
    124          1           0       16.704579   -1.583303   -1.380904
    125          1           0       16.120937    1.374260    0.559858
    126          1           0       16.369908   -0.253293    1.429018
    127          1           0       18.049808   -0.534302   -0.543376
    128          1           0       17.701614    0.979994   -1.147357
    129          1           0       18.408130    2.260108    0.824954
    130          1           0       18.769110    0.792416    1.672026
    131          1           0       20.604501    0.294172   -0.126975
    132          1           0       20.020429    3.163113   -0.700977
    133          1           0       21.374996    2.141175   -1.510029
    134          1           0       19.514201    1.869281   -1.804431
    135          1           0       21.035172    1.069785    1.955934
    136          1           0       22.066912    1.797910    0.994575
    137          1           0       20.978832    2.823731    1.828297
 ---------------------------------------------------------------------

 SCF Done:  E(RCAM-B3LYP) =  -2933.43626093     A.U. after   16 cycles

 Excitation energies and oscillator strengths:

 Excited State   1:      Singlet-A      1.9157 eV  647.21 nm  f=0.3380  <S**2>=0.000
     240 -> 243       -0.19446
     241 -> 242        0.67533
 This state for optimization and/or second-order correction.
 Total Energy, E(TD-HF/TD-DFT) =  -2933.36586179
 Copying the excited state density for this state as the 1-particle RhoCI density.

 The electronic state is 1-A.
 Alpha  occ. eigenvalues --  -46.80155 -19.21132 -19.19775 -19.16639 -19.15877
 Alpha  occ. eigenvalues --  -19.14963 -14.38290 -14.35531 -14.35445 -14.35300
 Alpha  occ. eigenvalues --  -10.34073 -10.33984 -10.29452 -10.27306 -10.26655
 Alpha  occ. eigenvalues --  -10.26358 -10.25914 -10.25840 -10.25616 -10.25506
 Alpha  occ. eigenvalues --  -10.25398 -10.25349 -10.24498 -10.24234 -10.24212
 Alpha  occ. eigenvalues --  -10.24088 -10.23947 -10.23804 -10.23640 -10.23620
 Alpha  occ. eigenvalues --  -10.23539 -10.23364 -10.23199 -10.23017 -10.22798
 Alpha  occ. eigenvalues --  -10.22740 -10.22478 -10.22444 -10.22390 -10.22355
 Alpha  occ. eigenvalues --  -10.22351 -10.22229 -10.22095 -10.22012 -10.21969
 Alpha  occ. eigenvalues --  -10.21921 -10.21796 -10.21782 -10.21490 -10.21424
 Alpha  occ. eigenvalues --  -10.21163 -10.20966 -10.20849 -10.20848 -10.20753
 Alpha  occ. eigenvalues --  -10.20645 -10.20237 -10.20162 -10.20079 -10.20025
 Alpha  occ. eigenvalues --  -10.19726 -10.19690 -10.19165 -10.19065 -10.18312
 Alpha  occ. eigenvalues --   -3.08689  -1.83641  -1.83177  -1.83072  -1.11923
 Alpha  occ. eigenvalues --   -1.10327  -1.06167  -1.03333  -1.01943  -0.99768
 Alpha  occ. eigenvalues --   -0.98946  -0.97810  -0.96256  -0.87110  -0.86811
 Alpha  occ. eigenvalues --   -0.86212  -0.85426  -0.84699  -0.84416  -0.84075
 Alpha  occ. eigenvalues --   -0.83470  -0.83060  -0.82914  -0.81870  -0.81460
 Alpha  occ. eigenvalues --   -0.80737  -0.79496  -0.78703  -0.77890  -0.77837
 Alpha  occ. eigenvalues --   -0.77111  -0.76591  -0.75385  -0.74747  -0.73683
 Alpha  occ. eigenvalues --   -0.73603  -0.73292  -0.72104  -0.71499  -0.71278
 Alpha  occ. eigenvalues --   -0.70825  -0.70131  -0.70100  -0.68949  -0.68286
 Alpha  occ. eigenvalues --   -0.67295  -0.66370  -0.65479  -0.64652  -0.64029
 Alpha  occ. eigenvalues --   -0.63946  -0.63594  -0.61444  -0.61258  -0.61044
 Alpha  occ. eigenvalues --   -0.59859  -0.59066  -0.58747  -0.58378  -0.57589
 Alpha  occ. eigenvalues --   -0.57506  -0.57329  -0.56383  -0.55493  -0.55092
 Alpha  occ. eigenvalues --   -0.54883  -0.54303  -0.53428  -0.52983  -0.52625
 Alpha  occ. eigenvalues --   -0.52534  -0.52053  -0.51763  -0.51239  -0.50836
 Alpha  occ. eigenvalues --   -0.50517  -0.50466  -0.49913  -0.49689  -0.49542
 Alpha  occ. eigenvalues --   -0.49393  -0.49160  -0.48645  -0.48533  -0.48430
 Alpha  occ. eigenvalues --   -0.47957  -0.47767  -0.47606  -0.47309  -0.47278
 Alpha  occ. eigenvalues --   -0.47134  -0.46989  -0.46665  -0.46386  -0.45946
 Alpha  occ. eigenvalues --   -0.45767  -0.45613  -0.45422  -0.45205  -0.44809
 Alpha  occ. eigenvalues --   -0.44468  -0.44355  -0.44246  -0.44161  -0.44027
 Alpha  occ. eigenvalues --   -0.43704  -0.43659  -0.43513  -0.43323  -0.42999
 Alpha  occ. eigenvalues --   -0.42866  -0.42614  -0.42273  -0.42116  -0.41859
 Alpha  occ. eigenvalues --   -0.41781  -0.41677  -0.41353  -0.41043  -0.40909
 Alpha  occ. eigenvalues --   -0.40685  -0.40625  -0.40428  -0.40106  -0.39898
 Alpha  occ. eigenvalues --   -0.39842  -0.39599  -0.39493  -0.39452  -0.39004
 Alpha  occ. eigenvalues --   -0.38828  -0.38738  -0.38468  -0.38252  -0.37813
 Alpha  occ. eigenvalues --   -0.37606  -0.37429  -0.37369  -0.37213  -0.37144
 Alpha  occ. eigenvalues --   -0.36628  -0.36318  -0.36302  -0.36029  -0.35717
 Alpha  occ. eigenvalues --   -0.35588  -0.35327  -0.35316  -0.34684  -0.34437
 Alpha  occ. eigenvalues --   -0.34243  -0.34030  -0.33668  -0.33607  -0.33328
 Alpha  occ. eigenvalues --   -0.33127  -0.33072  -0.32865  -0.32692  -0.32375
 Alpha  occ. eigenvalues --   -0.32309  -0.31121  -0.30492  -0.30231  -0.29966
 Alpha  occ. eigenvalues --   -0.29744  -0.29459  -0.29304  -0.28897  -0.27436
 Alpha  occ. eigenvalues --   -0.27258  -0.26716  -0.25772  -0.24142  -0.21991
 Alpha  occ. eigenvalues --   -0.20036
 Alpha virt. eigenvalues --   -0.07954  -0.03599  -0.00172   0.01630   0.02787
 Alpha virt. eigenvalues --    0.03121   0.04337   0.04639   0.05073   0.05319
 Alpha virt. eigenvalues --    0.06072   0.08586   0.09253   0.09289   0.10040

 Mulliken charges:
               1
     1  Mg   0.807408
     2  C    0.076441
     3  C   -0.204367
     4  C   -0.188566
     5  C   -0.085349
     6  N   -0.639493
     7  C    0.300310
     8  C   -0.166237
     9  C   -0.170557
    10  C    0.387457
    11  C   -0.290559
    12  C   -0.195943
    13  C   -0.240284
    14  C    0.578945
    15  O   -0.500403
    16  O   -0.474135
    17  N   -0.715873
    18  C    0.285315
    19  C    0.046038
    20  C    0.002310
    21  C    0.315966
    22  C   -0.389935
    23  C   -0.128449
    24  C   -0.234062
    25  N   -0.679142
    26  C    0.306020
    27  C    0.038797
    28  C   -0.042402
    29  C    0.337596
    30  C   -0.381296
    31  C   -0.217478
    32  C   -0.268273
    33  N   -0.752994
    34  C    0.236711
    35  C    0.025290
    36  C    0.026739
    37  C    0.324099
    38  C   -0.388489
    39  C    0.319389
    40  O   -0.451529
    41  C   -0.319160
    42  C    0.643386
    43  O   -0.476219
    44  O   -0.470803
    45  C   -0.057822
    46  C   -0.007408
    47  C   -0.112404
    48  C    0.126375
    49  C   -0.352021
    50  C   -0.250032
    51  C   -0.135300
    52  C   -0.196894
    53  C   -0.049424
    54  C   -0.297655
    55  C   -0.169359
    56  C   -0.201982
    57  C   -0.165835
    58  C   -0.039571
    59  C   -0.308374
    60  C   -0.161233
    61  C   -0.199732
    62  C   -0.155559
    63  C   -0.065319
    64  C   -0.293865
    65  C   -0.308076
    66  H    0.081429
    67  H    0.091764
    68  H    0.045574
    69  H    0.119630
    70  H    0.090426
    71  H    0.121106
    72  H    0.114191
    73  H    0.118556
    74  H    0.128974
    75  H    0.113078
    76  H    0.131483
    77  H    0.138790
    78  H    0.137191
    79  H    0.134222
    80  H    0.109596
    81  H    0.084797
    82  H    0.107160
    83  H    0.099547
    84  H    0.131177
    85  H    0.114709
    86  H    0.127609
    87  H    0.114745
    88  H    0.107032
    89  H    0.077204
    90  H    0.095914
    91  H    0.105130
    92  H    0.117890
    93  H    0.152995
    94  H    0.121761
    95  H    0.155187
    96  H    0.106489
    97  H    0.103018
    98  H    0.122177
    99  H    0.129636
   100  H    0.136311
   101  H    0.099542
   102  H    0.113980
   103  H    0.103251
   104  H    0.124732
   105  H    0.111098
   106  H    0.084440
   107  H    0.115874
   108  H    0.098790
   109  H    0.062244
   110  H    0.060408
   111  H    0.082914
   112  H    0.088569
   113  H    0.085571
   114  H    0.100389
   115  H    0.116387
   116  H    0.105122
   117  H    0.100964
   118  H    0.069480
   119  H    0.076383
   120  H    0.094730
   121  H    0.082772
   122  H    0.103828
   123  H    0.085355
   124  H    0.101049
   125  H    0.079055
   126  H    0.049665
   127  H    0.095964
   128  H    0.099755
   129  H    0.068573
   130  H    0.095312
   131  H    0.071683
   132  H    0.098494
   133  H    0.085282
   134  H    0.107533
   135  H    0.105232
   136  H    0.106793
   137  H    0.097552
 Sum of Mulliken charges =  -0.00000

 Dipole moment (field-independent basis, Debye):
    X=              1.7566    Y=              5.1376    Z=             -0.1940  Tot=              5.4330
 Quadrupole moment (field-independent basis, Debye-Ang):
   XX=           -331.7443   YY=           -400.1625   ZZ=           -399.3190
   XY=            -20.4877   XZ=             18.0098   YZ=             -0.2221

 Normal termination of Gaussian 16 at Thu Sep 12 05:35:54 2019.
