 Gaussian 16, Revision A.03,
 Gaussian 16:  ES64L-G16RevA.03 25-Dec-2016

 ----------------------------------------------------------------------
 # td=(NStates=1) iop(3/107=0140000000,3/108=0140000000) CAM-B3LYP/6-31
 G(d,p)
 ----------------------------------------------------------------------

 --
 TD
 --
 Symbolic Z-matrix:
 Charge =  0 Multiplicity = 1

                         Standard orientation:
 ---------------------------------------------------------------------
 Center     Atomic      Atomic             Coordinates (Angstroms)
 Number     Number       Type             X           Y           Z
 ---------------------------------------------------------------------
      1         12           0       -7.142040    0.637517    0.096333
      2          6           0       -4.941576   -1.960654    0.557623
      3          6           0       -4.688925    2.891119    1.158449
      4          6           0       -9.374462    3.147160   -0.403504
      5          6           0       -9.533351   -1.670666   -0.936822
      6          7           0       -5.092639    0.476670    0.664388
      7          6           0       -4.371660   -0.763357    0.737472
      8          6           0       -2.962412   -0.360418    1.164729
      9          6           0       -2.990708    1.074947    1.671777
     10          6           0       -4.353715    1.554570    1.105327
     11          6           0       -2.954428    1.217949    3.157971
     12          6           0       -1.936813   -0.548171    0.037570
     13          6           0       -0.550614   -0.540620    0.512961
     14          6           0        0.479995   -0.670035   -0.656146
     15          8           0        0.172862   -1.343300   -1.685572
     16          8           0        1.705881   -0.392145   -0.198558
     17          7           0       -7.086105    2.661866    0.273148
     18          6           0       -5.902066    3.451657    0.825480
     19          6           0       -6.239456    4.801533    0.662440
     20          6           0       -7.551774    4.837707    0.302590
     21          6           0       -8.064055    3.511644   -0.033789
     22          6           0       -5.324174    5.911240    1.123751
     23          6           0       -8.471384    6.084189    0.208710
     24          6           0       -8.304585    7.177127    0.916174
     25          7           0       -9.107968    0.744496   -0.575724
     26          6           0       -9.886809    1.887199   -0.723128
     27          6           0      -11.199903    1.469595   -1.106796
     28          6           0      -11.249032    0.058615   -1.273364
     29          6           0       -9.893434   -0.350872   -0.956840
     30          6           0      -12.337728    2.517626   -1.274216
     31          6           0      -12.387052   -0.748627   -1.614362
     32          6           0      -12.337644   -1.192845   -3.052193
     33          7           0       -7.261146   -1.328404   -0.185144
     34          6           0       -8.319665   -2.262485   -0.620991
     35          6           0       -7.856812   -3.512559   -0.587828
     36          6           0       -6.536922   -3.549064   -0.119588
     37          6           0       -6.228914   -2.120115    0.092591
     38          6           0       -8.723628   -4.729828   -0.828093
     39          6           0       -5.364295   -4.303995    0.123328
     40          8           0       -5.130631   -5.529393    0.195662
     41          6           0       -4.287258   -3.360482    0.545528
     42          6           0       -3.638979   -3.735510    1.869276
     43          8           0       -4.006681   -3.225408    2.923192
     44          8           0       -2.876954   -4.780573    1.668040
     45          6           0       -2.408195   -5.323265    2.930766
     46          6           0        2.708419   -0.731270   -1.212398
     47          6           0        4.146719   -0.480820   -0.527503
     48          6           0        5.137723    0.270670   -1.001673
     49          6           0        5.128859    1.046103   -2.362808
     50          6           0        6.420767    0.293836   -0.234192
     51          6           0        7.545695   -0.219276   -0.958080
     52          6           0        8.959953    0.065046   -0.119330
     53          6           0       10.233215   -0.411303   -0.822631
     54          6           0       10.079428   -1.923604   -1.165058
     55          6           0       11.459734   -0.162571    0.085554
     56          6           0       12.789740   -0.405017   -0.563635
     57          6           0       13.950336   -0.148695    0.344262
     58          6           0       15.311806   -0.308395   -0.428973
     59          6           0       15.719599   -1.736162   -0.639697
     60          6           0       16.470449    0.451331    0.461833
     61          6           0       17.825559    0.637118   -0.249657
     62          6           0       18.835474    1.211982    0.642534
     63          6           0       20.265431    1.274341    0.070095
     64          6           0       20.512869    2.051510   -1.196762
     65          6           0       21.293896    1.854711    1.214209
     66          1           0       -3.938838    3.649331    1.655578
     67          1           0      -10.059573    3.970731   -0.507559
     68          1           0      -10.320650   -2.371689   -1.171748
     69          1           0       -2.575645   -1.022983    1.835835
     70          1           0       -2.279762    1.619739    1.138644
     71          1           0       -1.948210    0.888506    3.483629
     72          1           0       -3.332984    2.207309    3.643860
     73          1           0       -3.611720    0.437741    3.632423
     74          1           0       -2.030026   -1.481127   -0.407231
     75          1           0       -2.195089    0.073974   -0.668766
     76          1           0       -0.347498    0.536987    1.070784
     77          1           0       -0.299377   -1.315123    1.274221
     78          1           0       -5.582126    6.926604    0.642693
     79          1           0       -5.463800    6.128064    2.158660
     80          1           0       -4.208048    5.546208    0.843818
     81          1           0       -9.378954    6.177449   -0.548087
     82          1           0       -8.928582    8.004647    0.843542
     83          1           0       -7.334152    7.607421    1.582349
     84          1           0      -12.096959    3.303517   -2.032360
     85          1           0      -13.205861    2.104266   -1.772388
     86          1           0      -12.792615    3.149554   -0.392095
     87          1           0      -12.503008   -1.543680   -0.717095
     88          1           0      -13.347241   -0.192935   -1.587181
     89          1           0      -13.275972   -1.713962   -3.288623
     90          1           0      -12.320308   -0.412805   -3.638062
     91          1           0      -11.390777   -1.877954   -3.348668
     92          1           0       -9.181623   -4.640631   -1.867915
     93          1           0       -8.149897   -5.625260   -0.606999
     94          1           0       -9.545630   -4.809613   -0.137714
     95          1           0       -3.457445   -3.175363   -0.128191
     96          1           0       -1.733314   -4.736837    3.550073
     97          1           0       -3.254469   -5.586567    3.592604
     98          1           0       -2.105854   -6.294318    2.535231
     99          1           0        2.659859   -1.710261   -1.564625
    100          1           0        2.585036   -0.205392   -1.986366
    101          1           0        4.164069   -0.998718    0.483923
    102          1           0        4.203672    1.445897   -2.479804
    103          1           0        5.603760    1.955317   -2.115630
    104          1           0        5.553076    0.520029   -3.232606
    105          1           0        6.548169    1.423892   -0.154932
    106          1           0        6.258725   -0.297782    0.755280
    107          1           0        7.574580   -1.414316   -0.843960
    108          1           0        7.728137    0.286441   -2.024364
    109          1           0        9.073146    1.219625    0.029978
    110          1           0        8.894240   -0.427731    0.861117
    111          1           0       10.299012    0.180153   -1.602654
    112          1           0        9.358750   -2.086752   -1.951563
    113          1           0       11.027936   -2.238068   -1.657520
    114          1           0        9.804376   -2.468983   -0.268648
    115          1           0       11.382793    0.646572    0.536110
    116          1           0       11.363192   -0.892163    0.888992
    117          1           0       12.886377   -1.476420   -0.968020
    118          1           0       12.818371    0.262787   -1.442025
    119          1           0       13.825509    0.970487    0.768132
    120          1           0       14.238284   -0.778936    1.181655
    121          1           0       15.163933    0.184722   -1.432572
    122          1           0       16.343076   -2.336963    0.235981
    123          1           0       14.967943   -2.430124   -1.102285
    124          1           0       16.500730   -1.676455   -1.387682
    125          1           0       16.111603    1.390321    0.924164
    126          1           0       16.555384   -0.129809    1.496351
    127          1           0       18.329924   -0.323653   -0.583789
    128          1           0       17.749356    1.310768   -1.083072
    129          1           0       18.488273    2.333725    1.002544
    130          1           0       19.023872    0.731148    1.783398
    131          1           0       20.566600    0.223785   -0.114716
    132          1           0       20.187093    3.034759   -0.960632
    133          1           0       21.507453    2.185424   -1.481948
    134          1           0       20.134344    1.536520   -2.179801
    135          1           0       21.469604    1.218745    2.129234
    136          1           0       22.344237    1.927383    0.885287
    137          1           0       20.905727    2.887713    1.261375
 ---------------------------------------------------------------------

 SCF Done:  E(RCAM-B3LYP) =  -2933.53993532     A.U. after   16 cycles

 Excitation energies and oscillator strengths:

 Excited State   1:      Singlet-A      1.9822 eV  625.49 nm  f=0.2337  <S**2>=0.000
     240 -> 243       -0.20328
     241 -> 242        0.66780
 This state for optimization and/or second-order correction.
 Total Energy, E(TD-HF/TD-DFT) =  -2933.46709154
 Copying the excited state density for this state as the 1-particle RhoCI density.

 The electronic state is 1-A.
 Alpha  occ. eigenvalues --  -46.78569 -19.23783 -19.23140 -19.17019 -19.16037
 Alpha  occ. eigenvalues --  -19.13987 -14.37578 -14.34709 -14.34568 -14.34542
 Alpha  occ. eigenvalues --  -10.35292 -10.33803 -10.28832 -10.26697 -10.26663
 Alpha  occ. eigenvalues --  -10.26110 -10.25728 -10.25721 -10.25017 -10.24578
 Alpha  occ. eigenvalues --  -10.24385 -10.24236 -10.24141 -10.23858 -10.23624
 Alpha  occ. eigenvalues --  -10.23358 -10.23327 -10.23297 -10.23015 -10.22997
 Alpha  occ. eigenvalues --  -10.22882 -10.22707 -10.22704 -10.22646 -10.22561
 Alpha  occ. eigenvalues --  -10.22554 -10.22440 -10.22438 -10.22392 -10.22376
 Alpha  occ. eigenvalues --  -10.22357 -10.22342 -10.22333 -10.22196 -10.22155
 Alpha  occ. eigenvalues --  -10.22153 -10.22126 -10.22085 -10.21793 -10.21618
 Alpha  occ. eigenvalues --  -10.21591 -10.21271 -10.21263 -10.21107 -10.21082
 Alpha  occ. eigenvalues --  -10.21051 -10.20926 -10.20911 -10.20835 -10.20485
 Alpha  occ. eigenvalues --  -10.20052 -10.19962 -10.19949 -10.19641 -10.18269
 Alpha  occ. eigenvalues --   -3.07229  -1.82173  -1.81699  -1.81635  -1.14182
 Alpha  occ. eigenvalues --   -1.13275  -1.03894  -1.02914  -1.02740  -0.97933
 Alpha  occ. eigenvalues --   -0.96859  -0.96651  -0.95688  -0.87582  -0.86389
 Alpha  occ. eigenvalues --   -0.85958  -0.85300  -0.84796  -0.84270  -0.83773
 Alpha  occ. eigenvalues --   -0.83051  -0.82561  -0.82546  -0.82107  -0.81139
 Alpha  occ. eigenvalues --   -0.80085  -0.79217  -0.78532  -0.78393  -0.77549
 Alpha  occ. eigenvalues --   -0.77148  -0.76825  -0.76203  -0.75814  -0.73431
 Alpha  occ. eigenvalues --   -0.72906  -0.72357  -0.71860  -0.71394  -0.70876
 Alpha  occ. eigenvalues --   -0.70536  -0.70494  -0.69397  -0.69055  -0.68685
 Alpha  occ. eigenvalues --   -0.67481  -0.66407  -0.65802  -0.64267  -0.64126
 Alpha  occ. eigenvalues --   -0.61996  -0.61951  -0.61501  -0.60958  -0.60705
 Alpha  occ. eigenvalues --   -0.60650  -0.59839  -0.58913  -0.57931  -0.57890
 Alpha  occ. eigenvalues --   -0.56941  -0.56924  -0.56096  -0.55606  -0.54924
 Alpha  occ. eigenvalues --   -0.54474  -0.53811  -0.53712  -0.52812  -0.52654
 Alpha  occ. eigenvalues --   -0.51969  -0.51431  -0.51304  -0.51143  -0.50978
 Alpha  occ. eigenvalues --   -0.50592  -0.50244  -0.50080  -0.49982  -0.49379
 Alpha  occ. eigenvalues --   -0.49320  -0.48672  -0.48508  -0.48190  -0.47896
 Alpha  occ. eigenvalues --   -0.47780  -0.47442  -0.47427  -0.46820  -0.46751
 Alpha  occ. eigenvalues --   -0.46702  -0.46335  -0.46092  -0.45957  -0.45763
 Alpha  occ. eigenvalues --   -0.45527  -0.45268  -0.44790  -0.44741  -0.44352
 Alpha  occ. eigenvalues --   -0.44280  -0.44030  -0.43782  -0.43716  -0.43628
 Alpha  occ. eigenvalues --   -0.43309  -0.43005  -0.42840  -0.42530  -0.42287
 Alpha  occ. eigenvalues --   -0.42241  -0.42224  -0.41901  -0.41543  -0.41435
 Alpha  occ. eigenvalues --   -0.41301  -0.41223  -0.41052  -0.41006  -0.40658
 Alpha  occ. eigenvalues --   -0.40484  -0.40343  -0.40211  -0.39990  -0.39766
 Alpha  occ. eigenvalues --   -0.39550  -0.39491  -0.39161  -0.39005  -0.38971
 Alpha  occ. eigenvalues --   -0.38701  -0.38331  -0.38032  -0.37957  -0.37750
 Alpha  occ. eigenvalues --   -0.37651  -0.37435  -0.37280  -0.37100  -0.37066
 Alpha  occ. eigenvalues --   -0.36935  -0.36610  -0.36353  -0.36112  -0.35910
 Alpha  occ. eigenvalues --   -0.35478  -0.35429  -0.35031  -0.34962  -0.34694
 Alpha  occ. eigenvalues --   -0.34681  -0.34203  -0.34111  -0.33585  -0.33521
 Alpha  occ. eigenvalues --   -0.33328  -0.33066  -0.32801  -0.32764  -0.32290
 Alpha  occ. eigenvalues --   -0.32147  -0.32019  -0.31275  -0.30335  -0.30204
 Alpha  occ. eigenvalues --   -0.29633  -0.29587  -0.29452  -0.28825  -0.27604
 Alpha  occ. eigenvalues --   -0.26617  -0.25711  -0.25290  -0.24954  -0.21985
 Alpha  occ. eigenvalues --   -0.20153
 Alpha virt. eigenvalues --   -0.07467  -0.04011  -0.00024   0.01852   0.03103
 Alpha virt. eigenvalues --    0.04532   0.05054   0.05271   0.05637   0.06161
 Alpha virt. eigenvalues --    0.06634   0.09255   0.09566   0.09814   0.09891

 Mulliken charges:
               1
     1  Mg   0.788828
     2  C    0.115018
     3  C   -0.195730
     4  C   -0.173926
     5  C   -0.195682
     6  N   -0.648585
     7  C    0.287767
     8  C   -0.162597
     9  C   -0.110601
    10  C    0.324334
    11  C   -0.314701
    12  C   -0.162947
    13  C   -0.262918
    14  C    0.600914
    15  O   -0.486221
    16  O   -0.444956
    17  N   -0.726964
    18  C    0.283263
    19  C    0.047417
    20  C   -0.021702
    21  C    0.373001
    22  C   -0.371332
    23  C   -0.087310
    24  C   -0.225082
    25  N   -0.703219
    26  C    0.341854
    27  C   -0.004667
    28  C    0.081702
    29  C    0.314838
    30  C   -0.391771
    31  C   -0.263078
    32  C   -0.299346
    33  N   -0.757643
    34  C    0.298472
    35  C    0.001034
    36  C    0.055699
    37  C    0.308245
    38  C   -0.376745
    39  C    0.338626
    40  O   -0.503595
    41  C   -0.314518
    42  C    0.623229
    43  O   -0.487768
    44  O   -0.404464
    45  C   -0.111782
    46  C    0.011846
    47  C   -0.156298
    48  C    0.109731
    49  C   -0.366273
    50  C   -0.191826
    51  C   -0.164527
    52  C   -0.188165
    53  C   -0.051861
    54  C   -0.319284
    55  C   -0.143435
    56  C   -0.177757
    57  C   -0.154068
    58  C   -0.067023
    59  C   -0.307256
    60  C   -0.176590
    61  C   -0.162187
    62  C   -0.136719
    63  C   -0.067520
    64  C   -0.308378
    65  C   -0.323567
    66  H    0.089408
    67  H    0.077056
    68  H    0.084429
    69  H    0.094853
    70  H    0.107427
    71  H    0.107619
    72  H    0.104422
    73  H    0.130994
    74  H    0.126530
    75  H    0.113963
    76  H    0.088019
    77  H    0.139126
    78  H    0.116315
    79  H    0.140513
    80  H    0.096011
    81  H    0.099003
    82  H    0.104018
    83  H    0.072999
    84  H    0.114503
    85  H    0.108465
    86  H    0.110252
    87  H    0.095732
    88  H    0.109419
    89  H    0.102291
    90  H    0.132160
    91  H    0.088907
    92  H    0.112178
    93  H    0.144674
    94  H    0.129290
    95  H    0.156926
    96  H    0.135590
    97  H    0.140006
    98  H    0.132685
    99  H    0.142483
   100  H    0.120257
   101  H    0.085820
   102  H    0.125970
   103  H    0.113916
   104  H    0.134088
   105  H    0.087418
   106  H    0.091823
   107  H    0.091157
   108  H    0.084261
   109  H    0.065650
   110  H    0.085774
   111  H    0.085218
   112  H    0.107803
   113  H    0.093811
   114  H    0.104188
   115  H    0.087149
   116  H    0.081101
   117  H    0.085836
   118  H    0.087991
   119  H    0.060448
   120  H    0.098880
   121  H    0.078263
   122  H    0.080475
   123  H    0.100734
   124  H    0.113086
   125  H    0.091520
   126  H    0.072727
   127  H    0.089728
   128  H    0.112845
   129  H    0.049148
   130  H    0.063458
   131  H    0.081372
   132  H    0.103847
   133  H    0.114299
   134  H    0.087076
   135  H    0.100547
   136  H    0.096113
   137  H    0.104699
 Sum of Mulliken charges =  -0.00000

 Dipole moment (field-independent basis, Debye):
    X=              2.5054    Y=              5.1991    Z=             -0.1277  Tot=              5.7727
 Quadrupole moment (field-independent basis, Debye-Ang):
   XX=           -330.1574   YY=           -393.9070   ZZ=           -394.5155
   XY=            -25.8852   XZ=              1.5516   YZ=             -5.6098

 Normal termination of Gaussian 16 at Mon Sep 23 08:35:22 2019.
