 Gaussian 16, Revision A.03,
 Gaussian 16:  ES64L-G16RevA.03 25-Dec-2016

 -------------------------------------
 # td=(NStates=1) CAM-B3LYP/6-31G(d,p)
 -------------------------------------

 --
 TD
 --
 Symbolic Z-matrix:
 Charge =  0 Multiplicity = 1

                         Standard orientation:
 ---------------------------------------------------------------------
 Center     Atomic      Atomic             Coordinates (Angstroms)
 Number     Number       Type             X           Y           Z
 ---------------------------------------------------------------------
      1         12           0       -7.216635    0.578462    0.230443
      2          6           0       -4.745739   -1.921453    0.445111
      3          6           0       -4.986230    2.913942    1.261332
      4          6           0       -9.408935    3.045148   -0.368413
      5          6           0       -9.553013   -1.770392   -0.895274
      6          7           0       -5.088381    0.542813    0.679902
      7          6           0       -4.284802   -0.715092    0.840317
      8          6           0       -2.896408   -0.323125    1.225944
      9          6           0       -3.097649    1.230463    1.722781
     10          6           0       -4.421029    1.624013    1.148404
     11          6           0       -2.875118    1.456100    3.162852
     12          6           0       -1.927513   -0.456485    0.072856
     13          6           0       -0.498292   -0.432237    0.467954
     14          6           0        0.527162   -0.615879   -0.625824
     15          8           0        0.177465   -1.034264   -1.748667
     16          8           0        1.784189   -0.384093   -0.280415
     17          7           0       -7.206667    2.569426    0.313322
     18          6           0       -6.191060    3.332880    0.738272
     19          6           0       -6.579056    4.738999    0.659892
     20          6           0       -7.849942    4.803626    0.191595
     21          6           0       -8.266941    3.448526    0.057418
     22          6           0       -5.536628    5.866539    0.949377
     23          6           0       -8.685382    6.005887    0.020612
     24          6           0       -8.593369    7.173475    0.611776
     25          7           0       -9.162826    0.651552   -0.386754
     26          6           0       -9.950864    1.733499   -0.626629
     27          6           0      -11.244879    1.447474   -1.105187
     28          6           0      -11.227243    0.003563   -1.267979
     29          6           0       -9.908188   -0.395959   -0.824074
     30          6           0      -12.346357    2.430046   -1.324681
     31          6           0      -12.345690   -0.890802   -1.712856
     32          6           0      -12.110059   -1.459421   -3.080478
     33          7           0       -7.201128   -1.437198   -0.115097
     34          6           0       -8.263287   -2.218481   -0.502035
     35          6           0       -7.848029   -3.585568   -0.390864
     36          6           0       -6.497379   -3.548027   -0.047989
     37          6           0       -6.111791   -2.142612    0.117011
     38          6           0       -8.515681   -4.854144   -0.626215
     39          6           0       -5.238903   -4.363556    0.300377
     40          8           0       -5.165457   -5.522140    0.349213
     41          6           0       -4.166774   -3.343143    0.536042
     42          6           0       -3.584470   -3.583798    1.913334
     43          8           0       -3.721623   -2.951551    2.910919
     44          8           0       -2.674311   -4.666149    1.728866
     45          6           0       -2.175335   -5.190335    2.890141
     46          6           0        2.807557   -0.626084   -1.304727
     47          6           0        4.155629   -0.520718   -0.633594
     48          6           0        5.056768    0.338324   -0.979786
     49          6           0        5.179410    1.177316   -2.350777
     50          6           0        6.399034    0.359011   -0.206637
     51          6           0        7.682579   -0.192690   -1.042313
     52          6           0        8.973082   -0.150428   -0.239763
     53          6           0       10.207690   -0.604024   -0.962491
     54          6           0       10.233354   -2.120799   -1.527612
     55          6           0       11.483332   -0.287095   -0.064431
     56          6           0       12.867379   -0.377360   -0.697735
     57          6           0       14.021712   -0.054465    0.222787
     58          6           0       15.345241   -0.075131   -0.440857
     59          6           0       15.727034   -1.500101   -0.853993
     60          6           0       16.353645    0.455526    0.612766
     61          6           0       17.845788    0.475212   -0.025489
     62          6           0       18.796240    1.176187    0.770812
     63          6           0       20.252818    1.308190    0.386128
     64          6           0       20.382954    1.952219   -0.998037
     65          6           0       21.184858    2.001190    1.350806
     66          1           0       -4.173903    3.718365    1.483907
     67          1           0      -10.072665    3.984724   -0.827998
     68          1           0      -10.242721   -2.405324   -1.289697
     69          1           0       -2.612349   -0.984063    2.051083
     70          1           0       -2.209639    1.668717    1.313720
     71          1           0       -1.837382    1.161990    3.213347
     72          1           0       -2.859180    2.446091    3.370113
     73          1           0       -3.619158    1.098298    3.695343
     74          1           0       -2.078264   -1.351508   -0.605886
     75          1           0       -2.098890    0.258040   -0.690805
     76          1           0       -0.258413    0.781817    0.894255
     77          1           0       -0.255055   -0.880954    1.290143
     78          1           0       -6.006351    6.752408    0.402315
     79          1           0       -5.411716    5.985088    2.039831
     80          1           0       -4.473221    5.641427    0.648266
     81          1           0       -9.634597    5.821523   -0.477363
     82          1           0       -9.183373    7.885337    0.331276
     83          1           0       -7.882003    7.344413    1.402848
     84          1           0      -11.989243    3.048416   -2.299078
     85          1           0      -13.286421    1.990892   -1.589506
     86          1           0      -12.538978    2.849900   -0.435176
     87          1           0      -12.347373   -1.801929   -1.081887
     88          1           0      -13.452467   -0.465351   -1.593338
     89          1           0      -12.879591   -2.335443   -3.338795
     90          1           0      -12.094897   -0.895758   -3.884524
     91          1           0      -11.158942   -2.177937   -3.185228
     92          1           0       -9.036724   -4.790055   -1.582100
     93          1           0       -7.956292   -5.594700   -0.704904
     94          1           0       -9.377858   -5.139673    0.130911
     95          1           0       -3.335748   -3.458371   -0.211629
     96          1           0       -1.437863   -4.649192    3.360719
     97          1           0       -3.021491   -5.340634    3.514585
     98          1           0       -1.655195   -6.355503    2.686696
     99          1           0        2.668870   -1.641825   -1.728896
    100          1           0        2.677455   -0.030404   -2.243992
    101          1           0        4.043184   -1.011797    0.309510
    102          1           0        4.207533    1.185955   -2.633703
    103          1           0        5.214689    2.197902   -2.019747
    104          1           0        6.138456    0.659717   -2.980256
    105          1           0        6.580693    1.529571   -0.221778
    106          1           0        6.266726   -0.107288    0.714794
    107          1           0        7.301383   -1.073385   -1.456252
    108          1           0        7.687445    0.218572   -2.025159
    109          1           0        9.156315    0.846179    0.096924
    110          1           0        9.028475   -1.056945    0.511457
    111          1           0       10.196700   -0.104875   -1.770195
    112          1           0        9.383752   -2.307260   -2.302884
    113          1           0       11.202142   -2.297890   -1.932514
    114          1           0       10.188008   -2.718490   -0.505378
    115          1           0       11.501037    0.782282    0.281669
    116          1           0       11.408717   -0.903834    0.818763
    117          1           0       13.077190   -1.494020   -1.131665
    118          1           0       12.836097    0.295301   -1.625891
    119          1           0       13.948188    0.968820    0.529749
    120          1           0       13.856666   -0.622434    1.265733
    121          1           0       15.078005    0.424136   -1.342942
    122          1           0       16.002576   -2.159087   -0.140299
    123          1           0       14.824390   -1.907639   -1.393778
    124          1           0       16.604954   -1.195278   -1.815357
    125          1           0       15.997574    1.488762    0.909290
    126          1           0       16.425001    0.007174    1.477689
    127          1           0       18.277909   -0.541760   -0.120925
    128          1           0       17.804193    1.123995   -1.012472
    129          1           0       18.239619    2.070094    1.138366
    130          1           0       18.989747    0.449822    1.740048
    131          1           0       20.464409    0.269013    0.102968
    132          1           0       20.360066    3.068512   -0.955979
    133          1           0       21.392972    1.786960   -1.377510
    134          1           0       19.568229    1.549638   -1.788953
    135          1           0       21.407943    1.222944    2.304148
    136          1           0       22.275559    2.323351    1.094861
    137          1           0       20.898233    3.064619    1.615126
 ---------------------------------------------------------------------

 SCF Done:  E(RCAM-B3LYP) =  -2932.56327476     A.U. after   16 cycles

 Excitation energies and oscillator strengths:

 Excited State   1:      Singlet-A      2.2497 eV  551.12 nm  f=0.1985  <S**2>=0.000
     240 -> 243       -0.26674
     241 -> 242        0.64714
 This state for optimization and/or second-order correction.
 Total Energy, E(TD-HF/TD-DFT) =  -2932.48060039
 Copying the excited state density for this state as the 1-particle RhoCI density.

 The electronic state is 1-A.
 Alpha  occ. eigenvalues --  -46.83532 -19.27411 -19.25535 -19.23424 -19.20617
 Alpha  occ. eigenvalues --  -19.20222 -14.41077 -14.39071 -14.38808 -14.38625
 Alpha  occ. eigenvalues --  -10.40445 -10.39533 -10.34952 -10.32272 -10.31114
 Alpha  occ. eigenvalues --  -10.30802 -10.30680 -10.29532 -10.29028 -10.28486
 Alpha  occ. eigenvalues --  -10.28479 -10.28445 -10.28231 -10.27980 -10.27908
 Alpha  occ. eigenvalues --  -10.27894 -10.27651 -10.27578 -10.27393 -10.27298
 Alpha  occ. eigenvalues --  -10.27281 -10.27101 -10.27075 -10.27042 -10.26991
 Alpha  occ. eigenvalues --  -10.26893 -10.26880 -10.26772 -10.26603 -10.26580
 Alpha  occ. eigenvalues --  -10.26518 -10.26328 -10.26304 -10.26270 -10.26201
 Alpha  occ. eigenvalues --  -10.25897 -10.25734 -10.25703 -10.25652 -10.25645
 Alpha  occ. eigenvalues --  -10.25622 -10.25545 -10.25536 -10.25520 -10.25514
 Alpha  occ. eigenvalues --  -10.25279 -10.25265 -10.25077 -10.25067 -10.24840
 Alpha  occ. eigenvalues --  -10.24794 -10.24762 -10.24157 -10.23996 -10.23328
 Alpha  occ. eigenvalues --   -3.12622  -1.87329  -1.86844  -1.86814  -1.18557
 Alpha  occ. eigenvalues --   -1.18440  -1.14375  -1.11572  -1.07656  -1.04218
 Alpha  occ. eigenvalues --   -1.03716  -1.02629  -1.00861  -0.92885  -0.91694
 Alpha  occ. eigenvalues --   -0.91114  -0.90479  -0.90068  -0.89714  -0.89239
 Alpha  occ. eigenvalues --   -0.88947  -0.87902  -0.87630  -0.87222  -0.86380
 Alpha  occ. eigenvalues --   -0.85240  -0.84597  -0.83797  -0.83672  -0.83391
 Alpha  occ. eigenvalues --   -0.82000  -0.80989  -0.80694  -0.79877  -0.78620
 Alpha  occ. eigenvalues --   -0.77962  -0.77067  -0.76631  -0.75598  -0.75544
 Alpha  occ. eigenvalues --   -0.75347  -0.74769  -0.74300  -0.73983  -0.72485
 Alpha  occ. eigenvalues --   -0.72050  -0.70965  -0.69754  -0.69184  -0.68484
 Alpha  occ. eigenvalues --   -0.67548  -0.67156  -0.65744  -0.65469  -0.64486
 Alpha  occ. eigenvalues --   -0.64301  -0.63902  -0.63781  -0.63354  -0.62380
 Alpha  occ. eigenvalues --   -0.61499  -0.61070  -0.60817  -0.60142  -0.59483
 Alpha  occ. eigenvalues --   -0.58719  -0.58484  -0.58211  -0.57725  -0.56847
 Alpha  occ. eigenvalues --   -0.55855  -0.55756  -0.55699  -0.55504  -0.55455
 Alpha  occ. eigenvalues --   -0.54711  -0.54274  -0.53899  -0.53475  -0.53059
 Alpha  occ. eigenvalues --   -0.52959  -0.52825  -0.52568  -0.52194  -0.51980
 Alpha  occ. eigenvalues --   -0.51734  -0.51559  -0.51129  -0.50887  -0.50741
 Alpha  occ. eigenvalues --   -0.50388  -0.50214  -0.50071  -0.49823  -0.49696
 Alpha  occ. eigenvalues --   -0.49492  -0.49363  -0.49155  -0.48980  -0.48942
 Alpha  occ. eigenvalues --   -0.48714  -0.48490  -0.48289  -0.47665  -0.47565
 Alpha  occ. eigenvalues --   -0.47452  -0.47300  -0.46877  -0.46829  -0.46421
 Alpha  occ. eigenvalues --   -0.46019  -0.45933  -0.45823  -0.45794  -0.45305
 Alpha  occ. eigenvalues --   -0.45158  -0.44905  -0.44793  -0.44663  -0.44462
 Alpha  occ. eigenvalues --   -0.44046  -0.43870  -0.43804  -0.43562  -0.43511
 Alpha  occ. eigenvalues --   -0.43333  -0.43090  -0.42740  -0.42372  -0.42344
 Alpha  occ. eigenvalues --   -0.42202  -0.42022  -0.41467  -0.41359  -0.41034
 Alpha  occ. eigenvalues --   -0.40912  -0.40573  -0.40283  -0.40175  -0.40093
 Alpha  occ. eigenvalues --   -0.39760  -0.39571  -0.39417  -0.39083  -0.38975
 Alpha  occ. eigenvalues --   -0.38566  -0.38137  -0.38060  -0.37727  -0.37620
 Alpha  occ. eigenvalues --   -0.37264  -0.37131  -0.36618  -0.36383  -0.36240
 Alpha  occ. eigenvalues --   -0.36180  -0.36130  -0.35705  -0.35553  -0.35358
 Alpha  occ. eigenvalues --   -0.35335  -0.34885  -0.34827  -0.34202  -0.33343
 Alpha  occ. eigenvalues --   -0.33001  -0.32834  -0.32127  -0.30892  -0.30719
 Alpha  occ. eigenvalues --   -0.29772  -0.28651  -0.28096  -0.27180  -0.23294
 Alpha  occ. eigenvalues --   -0.21458
 Alpha virt. eigenvalues --   -0.05439  -0.02744   0.02078   0.04165   0.05268
 Alpha virt. eigenvalues --    0.05746   0.05786   0.06407   0.07360   0.07891
 Alpha virt. eigenvalues --    0.08520   0.10776   0.11048   0.11380   0.11533

 Mulliken charges:
               1
     1  Mg   0.820675
     2  C    0.087311
     3  C   -0.231942
     4  C   -0.239645
     5  C   -0.101827
     6  N   -0.639937
     7  C    0.249882
     8  C   -0.167254
     9  C   -0.175407
    10  C    0.372834
    11  C   -0.279729
    12  C   -0.169564
    13  C   -0.240461
    14  C    0.614779
    15  O   -0.500489
    16  O   -0.466634
    17  N   -0.737327
    18  C    0.373549
    19  C   -0.036507
    20  C    0.057091
    21  C    0.348373
    22  C   -0.368986
    23  C   -0.069681
    24  C   -0.221173
    25  N   -0.693457
    26  C    0.285334
    27  C   -0.001505
    28  C    0.017729
    29  C    0.295490
    30  C   -0.351041
    31  C   -0.247230
    32  C   -0.298570
    33  N   -0.749084
    34  C    0.266820
    35  C   -0.001155
    36  C   -0.071664
    37  C    0.305833
    38  C   -0.353537
    39  C    0.403307
    40  O   -0.412457
    41  C   -0.317701
    42  C    0.616417
    43  O   -0.430948
    44  O   -0.457735
    45  C   -0.064450
    46  C   -0.007690
    47  C   -0.115053
    48  C    0.056608
    49  C   -0.329676
    50  C   -0.195971
    51  C   -0.200893
    52  C   -0.141972
    53  C   -0.075066
    54  C   -0.313474
    55  C   -0.175775
    56  C   -0.182931
    57  C   -0.165494
    58  C   -0.045405
    59  C   -0.278774
    60  C   -0.173962
    61  C   -0.167878
    62  C   -0.150947
    63  C   -0.028612
    64  C   -0.315275
    65  C   -0.302165
    66  H    0.068837
    67  H    0.073860
    68  H    0.089129
    69  H    0.123163
    70  H    0.102820
    71  H    0.104780
    72  H    0.115303
    73  H    0.126917
    74  H    0.125128
    75  H    0.127666
    76  H    0.070893
    77  H    0.143193
    78  H    0.116604
    79  H    0.124572
    80  H    0.118017
    81  H    0.086497
    82  H    0.099519
    83  H    0.109542
    84  H    0.108094
    85  H    0.112680
    86  H    0.137349
    87  H    0.114311
    88  H    0.100536
    89  H    0.076048
    90  H    0.129095
    91  H    0.086438
    92  H    0.108841
    93  H    0.142822
    94  H    0.103213
    95  H    0.183841
    96  H    0.120731
    97  H    0.122417
    98  H    0.081520
    99  H    0.130048
   100  H    0.124222
   101  H    0.102018
   102  H    0.115785
   103  H    0.126856
   104  H    0.116343
   105  H    0.075780
   106  H    0.103296
   107  H    0.105644
   108  H    0.083147
   109  H    0.105150
   110  H    0.080173
   111  H    0.087806
   112  H    0.098240
   113  H    0.119599
   114  H    0.081971
   115  H    0.085101
   116  H    0.092076
   117  H    0.067580
   118  H    0.083757
   119  H    0.090804
   120  H    0.067893
   121  H    0.098005
   122  H    0.114703
   123  H    0.089490
   124  H    0.053527
   125  H    0.080951
   126  H    0.112982
   127  H    0.097669
   128  H    0.076730
   129  H    0.079673
   130  H    0.043292
   131  H    0.091014
   132  H    0.090096
   133  H    0.101595
   134  H    0.081859
   135  H    0.076856
   136  H    0.097648
   137  H    0.108321
 Sum of Mulliken charges =  -0.00000

 Dipole moment (field-independent basis, Debye):
    X=              1.8398    Y=              4.5687    Z=              0.5911  Tot=              4.9606
 Quadrupole moment (field-independent basis, Debye-Ang):
   XX=           -345.1338   YY=           -394.2831   ZZ=           -397.9216
   XY=            -13.5414   XZ=              9.3966   YZ=             -0.9215

 Normal termination of Gaussian 16 at Sun Jun 30 00:10:35 2019.
