 Gaussian 09, Revision D.01,
 Gaussian 09:  ES64L-G09RevD.01 24-Apr-2013

 -------------------------------------
 # td=(NStates=1) CAM-B3LYP/6-31G(d,p)
 -------------------------------------

 --
 TD
 --
 Symbolic Z-matrix:
 Charge =  0 Multiplicity = 1

                         Standard orientation:
 ---------------------------------------------------------------------
 Center     Atomic      Atomic             Coordinates (Angstroms)
 Number     Number       Type             X           Y           Z
 ---------------------------------------------------------------------
      1         12           0       -7.013178    0.682133    0.006455
      2          6           0       -4.891678   -2.015891    0.506287
      3          6           0       -4.775506    2.787547    1.174334
      4          6           0       -9.446646    3.090317   -0.423844
      5          6           0       -9.528690   -1.748182   -1.042006
      6          7           0       -5.124199    0.346534    0.774827
      7          6           0       -4.331255   -0.742474    0.824718
      8          6           0       -2.908033   -0.417250    1.207319
      9          6           0       -3.098302    1.079776    1.769422
     10          6           0       -4.467108    1.491334    1.122328
     11          6           0       -3.111890    1.235570    3.271350
     12          6           0       -1.870588   -0.642517    0.102191
     13          6           0       -0.509611   -0.516494    0.653430
     14          6           0        0.523431   -0.777408   -0.406737
     15          8           0        0.209135   -0.974233   -1.552869
     16          8           0        1.853120   -0.508945   -0.004316
     17          7           0       -7.024364    2.650520    0.276454
     18          6           0       -6.015897    3.354037    0.775606
     19          6           0       -6.316158    4.711368    0.778293
     20          6           0       -7.651241    4.905091    0.365656
     21          6           0       -8.111471    3.428286    0.077287
     22          6           0       -5.521339    5.949632    1.043298
     23          6           0       -8.447622    6.072768    0.169032
     24          6           0       -8.319058    7.225002    0.842979
     25          7           0       -9.101979    0.696879   -0.545549
     26          6           0       -9.909018    1.772048   -0.737501
     27          6           0      -11.194698    1.468404   -1.197152
     28          6           0      -11.276849    0.059802   -1.298488
     29          6           0       -9.959653   -0.430015   -0.948825
     30          6           0      -12.313175    2.553212   -1.451812
     31          6           0      -12.457346   -0.720989   -1.712652
     32          6           0      -12.429741   -0.997700   -3.200294
     33          7           0       -7.205562   -1.396284   -0.268127
     34          6           0       -8.272325   -2.213886   -0.568220
     35          6           0       -7.881500   -3.538632   -0.518640
     36          6           0       -6.600953   -3.604992   -0.107857
     37          6           0       -6.280776   -2.182922    0.097132
     38          6           0       -8.668896   -4.766205   -1.133548
     39          6           0       -5.440903   -4.436729    0.242615
     40          8           0       -5.204846   -5.586907    0.382351
     41          6           0       -4.275087   -3.342282    0.540597
     42          6           0       -3.583519   -3.682874    1.830555
     43          8           0       -3.630311   -3.113389    2.855303
     44          8           0       -2.805182   -4.779638    1.679084
     45          6           0       -2.286226   -5.198486    2.929854
     46          6           0        2.846174   -0.685474   -1.100916
     47          6           0        4.167669   -0.426732   -0.372536
     48          6           0        5.127928    0.323542   -0.844772
     49          6           0        5.140312    1.143700   -2.188989
     50          6           0        6.445800    0.426171   -0.037921
     51          6           0        7.627138   -0.038708   -0.862950
     52          6           0        8.920389   -0.102237   -0.108854
     53          6           0       10.171839   -0.478614   -0.795298
     54          6           0       10.139897   -1.952994   -1.244900
     55          6           0       11.475662   -0.182998   -0.055929
     56          6           0       12.788494   -0.530362   -0.665278
     57          6           0       13.979687   -0.053862    0.066278
     58          6           0       15.359505   -0.161604   -0.556653
     59          6           0       15.592876   -1.582346   -0.963603
     60          6           0       16.367614    0.399292    0.430470
     61          6           0       17.879131    0.457191   -0.206677
     62          6           0       18.905330    1.117148    0.682650
     63          6           0       20.351266    1.262384    0.135829
     64          6           0       20.279708    2.093618   -1.117485
     65          6           0       21.394325    1.907328    1.105754
     66          1           0       -4.077315    3.533635    1.507389
     67          1           0      -10.098387    3.921380   -0.399773
     68          1           0      -10.396918   -2.424051   -1.214743
     69          1           0       -2.712272   -1.056119    2.025934
     70          1           0       -2.199761    1.748656    1.487584
     71          1           0       -2.187334    1.019494    3.727761
     72          1           0       -3.498230    2.309427    3.567989
     73          1           0       -4.008126    0.712845    3.743251
     74          1           0       -1.926404   -1.706963   -0.227730
     75          1           0       -1.943694    0.044505   -0.729513
     76          1           0       -0.349580    0.487547    1.025271
     77          1           0       -0.134599   -1.300440    1.440881
     78          1           0       -5.809950    6.653266    0.222530
     79          1           0       -5.691605    6.496508    2.149638
     80          1           0       -4.266591    5.749174    0.958730
     81          1           0       -9.377028    5.772300   -0.612133
     82          1           0       -9.148283    7.844423    0.789892
     83          1           0       -7.469747    7.362731    1.661859
     84          1           0      -12.125290    3.362198   -2.292967
     85          1           0      -13.115425    1.898546   -1.741658
     86          1           0      -12.445848    2.974381   -0.453796
     87          1           0      -12.377768   -1.778813   -1.148013
     88          1           0      -13.434884   -0.358524   -1.448735
     89          1           0      -13.397953   -1.497853   -3.594814
     90          1           0      -12.165425    0.041643   -3.644419
     91          1           0      -11.555675   -1.662271   -3.529668
     92          1           0       -8.997039   -4.502325   -2.163591
     93          1           0       -7.987810   -5.719399   -1.240228
     94          1           0       -9.694580   -4.963118   -0.342140
     95          1           0       -3.516992   -3.680823   -0.296379
     96          1           0       -1.626164   -4.325228    3.396167
     97          1           0       -3.116983   -5.387891    3.692182
     98          1           0       -1.668486   -6.022623    2.665887
     99          1           0        2.503540   -1.560581   -1.560225
    100          1           0        2.586016    0.037251   -1.871224
    101          1           0        4.262617   -0.955312    0.458250
    102          1           0        4.114299    1.471710   -2.549096
    103          1           0        5.539753    2.132148   -1.891229
    104          1           0        5.763726    0.555973   -3.030218
    105          1           0        6.531307    1.484468    0.284421
    106          1           0        6.318729   -0.188010    0.838125
    107          1           0        7.137509   -0.891964   -1.029221
    108          1           0        7.641899    0.513066   -1.806811
    109          1           0        9.006449    0.841620    0.317740
    110          1           0        8.678591   -0.855556    0.747546
    111          1           0       10.207985    0.189476   -1.682911
    112          1           0        9.191247   -2.160856   -1.759723
    113          1           0       11.005184   -2.022395   -2.017051
    114          1           0       10.171264   -2.817855   -0.489086
    115          1           0       11.347661    0.681273    0.326894
    116          1           0       11.454331   -0.831936    0.677420
    117          1           0       12.857923   -1.772295   -0.825415
    118          1           0       12.948768    0.095712   -1.558711
    119          1           0       14.050099    0.955636    0.276520
    120          1           0       13.970459   -0.436979    1.159722
    121          1           0       15.577177    0.476592   -1.532136
    122          1           0       15.282836   -2.221904   -0.019450
    123          1           0       14.802431   -1.739780   -1.796118
    124          1           0       16.547108   -1.785678   -1.446697
    125          1           0       16.138058    1.401186    0.871575
    126          1           0       16.302657   -0.386412    1.418604
    127          1           0       18.474560   -0.472941   -0.504291
    128          1           0       17.840491    1.112031   -1.100033
    129          1           0       18.530632    2.125981    1.074128
    130          1           0       18.833043    0.554344    1.713888
    131          1           0       20.730214    0.398130   -0.211532
    132          1           0       20.124640    3.093079   -0.943405
    133          1           0       21.271358    2.203881   -1.610642
    134          1           0       19.742056    1.751988   -2.056096
    135          1           0       21.657783    1.350591    2.091959
    136          1           0       22.428013    1.813034    0.857121
    137          1           0       20.936790    2.894565    1.328078
 ---------------------------------------------------------------------

 SCF Done:  E(RCAM-B3LYP) =  -2932.69435831     A.U. after   16 cycles

 Excitation energies and oscillator strengths:

 Excited State   1:      Singlet-A      2.0382 eV  608.29 nm  f=0.2787  <S**2>=0.000
     240 -> 242       -0.21696
     240 -> 243        0.21023
     241 -> 242        0.61913
     241 -> 243        0.13038
 This state for optimization and/or second-order correction.
 Total Energy, E(TD-HF/TD-KS) =  -2932.61945487
 Copying the excited state density for this state as the 1-particle RhoCI density.

 The electronic state is 1-A.
 Alpha  occ. eigenvalues --  -46.85339 -19.24915 -19.24670 -19.21170 -19.20761
 Alpha  occ. eigenvalues --  -19.20355 -14.41683 -14.40241 -14.39517 -14.39494
 Alpha  occ. eigenvalues --  -10.38662 -10.37665 -10.35438 -10.31144 -10.30919
 Alpha  occ. eigenvalues --  -10.30751 -10.30718 -10.30687 -10.30101 -10.29452
 Alpha  occ. eigenvalues --  -10.29261 -10.29045 -10.29017 -10.28837 -10.28724
 Alpha  occ. eigenvalues --  -10.28562 -10.28254 -10.28227 -10.28082 -10.28023
 Alpha  occ. eigenvalues --  -10.27910 -10.27682 -10.27534 -10.27533 -10.27496
 Alpha  occ. eigenvalues --  -10.27470 -10.27464 -10.27460 -10.27306 -10.27008
 Alpha  occ. eigenvalues --  -10.26946 -10.26849 -10.26743 -10.26470 -10.26459
 Alpha  occ. eigenvalues --  -10.26348 -10.26174 -10.26079 -10.25962 -10.25960
 Alpha  occ. eigenvalues --  -10.25699 -10.25607 -10.25591 -10.25540 -10.25480
 Alpha  occ. eigenvalues --  -10.25243 -10.25102 -10.25029 -10.24989 -10.24890
 Alpha  occ. eigenvalues --  -10.24771 -10.24271 -10.23939 -10.23673 -10.21752
 Alpha  occ. eigenvalues --   -3.14278  -1.88987  -1.88494  -1.88477  -1.19003
 Alpha  occ. eigenvalues --   -1.16033  -1.13089  -1.09699  -1.08179  -1.06406
 Alpha  occ. eigenvalues --   -1.05295  -1.03760  -1.01264  -0.92304  -0.91724
 Alpha  occ. eigenvalues --   -0.91205  -0.90328  -0.89891  -0.89703  -0.89401
 Alpha  occ. eigenvalues --   -0.88886  -0.88535  -0.87671  -0.86999  -0.86240
 Alpha  occ. eigenvalues --   -0.85424  -0.84245  -0.83199  -0.83120  -0.82534
 Alpha  occ. eigenvalues --   -0.81368  -0.80647  -0.80434  -0.79349  -0.77619
 Alpha  occ. eigenvalues --   -0.76902  -0.76122  -0.76066  -0.75712  -0.75554
 Alpha  occ. eigenvalues --   -0.75130  -0.74735  -0.74535  -0.73901  -0.72795
 Alpha  occ. eigenvalues --   -0.70955  -0.70448  -0.69258  -0.68992  -0.68610
 Alpha  occ. eigenvalues --   -0.67819  -0.67281  -0.65209  -0.65014  -0.64860
 Alpha  occ. eigenvalues --   -0.63775  -0.63358  -0.63096  -0.62508  -0.61287
 Alpha  occ. eigenvalues --   -0.60756  -0.60424  -0.60135  -0.59693  -0.58986
 Alpha  occ. eigenvalues --   -0.58533  -0.57803  -0.57079  -0.56717  -0.56486
 Alpha  occ. eigenvalues --   -0.56213  -0.55995  -0.55230  -0.55121  -0.54899
 Alpha  occ. eigenvalues --   -0.54420  -0.54353  -0.54145  -0.53532  -0.53018
 Alpha  occ. eigenvalues --   -0.52729  -0.52636  -0.52240  -0.52098  -0.52026
 Alpha  occ. eigenvalues --   -0.51841  -0.51340  -0.51156  -0.50927  -0.50699
 Alpha  occ. eigenvalues --   -0.50272  -0.50034  -0.49960  -0.49845  -0.49708
 Alpha  occ. eigenvalues --   -0.49407  -0.49250  -0.49136  -0.48585  -0.48324
 Alpha  occ. eigenvalues --   -0.48290  -0.48031  -0.47699  -0.47582  -0.47162
 Alpha  occ. eigenvalues --   -0.46971  -0.46218  -0.46152  -0.46090  -0.45700
 Alpha  occ. eigenvalues --   -0.45474  -0.45319  -0.45226  -0.45207  -0.45021
 Alpha  occ. eigenvalues --   -0.44860  -0.44772  -0.44442  -0.44219  -0.44038
 Alpha  occ. eigenvalues --   -0.43666  -0.43531  -0.43431  -0.43281  -0.43047
 Alpha  occ. eigenvalues --   -0.42908  -0.42657  -0.42503  -0.42395  -0.42070
 Alpha  occ. eigenvalues --   -0.41911  -0.41729  -0.41597  -0.41472  -0.41221
 Alpha  occ. eigenvalues --   -0.41112  -0.40907  -0.40728  -0.40436  -0.40303
 Alpha  occ. eigenvalues --   -0.40240  -0.39628  -0.39458  -0.39336  -0.39142
 Alpha  occ. eigenvalues --   -0.38513  -0.38260  -0.38234  -0.37816  -0.37536
 Alpha  occ. eigenvalues --   -0.37485  -0.37388  -0.37153  -0.36861  -0.36645
 Alpha  occ. eigenvalues --   -0.36316  -0.36038  -0.35945  -0.35649  -0.35363
 Alpha  occ. eigenvalues --   -0.35146  -0.35031  -0.34711  -0.34033  -0.33830
 Alpha  occ. eigenvalues --   -0.33572  -0.33346  -0.32551  -0.31224  -0.30718
 Alpha  occ. eigenvalues --   -0.30348  -0.29604  -0.27883  -0.27730  -0.23141
 Alpha  occ. eigenvalues --   -0.21461
 Alpha virt. eigenvalues --   -0.07023  -0.03349   0.02043   0.03684   0.04988
 Alpha virt. eigenvalues --    0.06151   0.06295   0.06966   0.07229   0.07851
 Alpha virt. eigenvalues --    0.08636   0.10282   0.11077   0.11243   0.11563

 Mulliken charges:
               1
     1  Mg   0.831393
     2  C    0.054987
     3  C   -0.172427
     4  C   -0.169592
     5  C   -0.166007
     6  N   -0.678348
     7  C    0.323620
     8  C   -0.156617
     9  C   -0.153370
    10  C    0.361580
    11  C   -0.303499
    12  C   -0.156023
    13  C   -0.260778
    14  C    0.595049
    15  O   -0.460620
    16  O   -0.526714
    17  N   -0.740072
    18  C    0.342129
    19  C    0.023908
    20  C    0.027614
    21  C    0.274730
    22  C   -0.371559
    23  C   -0.092384
    24  C   -0.242537
    25  N   -0.674370
    26  C    0.330129
    27  C   -0.009343
    28  C    0.031906
    29  C    0.242024
    30  C   -0.348075
    31  C   -0.246491
    32  C   -0.294118
    33  N   -0.673737
    34  C    0.250766
    35  C   -0.023786
    36  C    0.032631
    37  C    0.293667
    38  C   -0.342888
    39  C    0.368057
    40  O   -0.422817
    41  C   -0.368868
    42  C    0.629061
    43  O   -0.462385
    44  O   -0.450660
    45  C   -0.074587
    46  C    0.011212
    47  C   -0.100929
    48  C    0.089386
    49  C   -0.358436
    50  C   -0.233573
    51  C   -0.172301
    52  C   -0.158998
    53  C   -0.068479
    54  C   -0.320258
    55  C   -0.135727
    56  C   -0.180894
    57  C   -0.171088
    58  C   -0.057387
    59  C   -0.285499
    60  C   -0.159147
    61  C   -0.182083
    62  C   -0.164465
    63  C   -0.056261
    64  C   -0.321677
    65  C   -0.310511
    66  H    0.090300
    67  H    0.088158
    68  H    0.102381
    69  H    0.138002
    70  H    0.085072
    71  H    0.120241
    72  H    0.093227
    73  H    0.117478
    74  H    0.121201
    75  H    0.127054
    76  H    0.139650
    77  H    0.124777
    78  H    0.140183
    79  H    0.098272
    80  H    0.074890
    81  H    0.086767
    82  H    0.112804
    83  H    0.111610
    84  H    0.113341
    85  H    0.116065
    86  H    0.131269
    87  H    0.082602
    88  H    0.119895
    89  H    0.097952
    90  H    0.103284
    91  H    0.106151
    92  H    0.127264
    93  H    0.133754
    94  H    0.085468
    95  H    0.153316
    96  H    0.100668
    97  H    0.126455
    98  H    0.121749
    99  H    0.135191
   100  H    0.118471
   101  H    0.091508
   102  H    0.112673
   103  H    0.119016
   104  H    0.119524
   105  H    0.090309
   106  H    0.100128
   107  H    0.111620
   108  H    0.091871
   109  H    0.092003
   110  H    0.070070
   111  H    0.075868
   112  H    0.100518
   113  H    0.097785
   114  H    0.094424
   115  H    0.084244
   116  H    0.103230
   117  H    0.082974
   118  H    0.087757
   119  H    0.098819
   120  H    0.070568
   121  H    0.067499
   122  H    0.085661
   123  H    0.095630
   124  H    0.103121
   125  H    0.097821
   126  H    0.054522
   127  H    0.093221
   128  H    0.097007
   129  H    0.069017
   130  H    0.071239
   131  H    0.096565
   132  H    0.109062
   133  H    0.086987
   134  H    0.099564
   135  H    0.082364
   136  H    0.111748
   137  H    0.105633
 Sum of Mulliken charges =   0.00000

 Dipole moment (field-independent basis, Debye):
    X=              0.2858    Y=              5.3681    Z=             -0.5461  Tot=              5.4034
 Quadrupole moment (field-independent basis, Debye-Ang):
   XX=           -330.1168   YY=           -396.1589   ZZ=           -398.8883
   XY=            -21.0626   XZ=              7.1700   YZ=              3.0040

 Normal termination of Gaussian 09 at Tue Jul  2 19:20:42 2019.
