 Gaussian 09, Revision D.01,
 Gaussian 09:  ES64L-G09RevD.01 24-Apr-2013

 -------------------------------------
 # td=(NStates=1) CAM-B3LYP/6-31G(d,p)
 -------------------------------------

 --
 TD
 --
 Symbolic Z-matrix:
 Charge =  0 Multiplicity = 1

                         Standard orientation:
 ---------------------------------------------------------------------
 Center     Atomic      Atomic             Coordinates (Angstroms)
 Number     Number       Type             X           Y           Z
 ---------------------------------------------------------------------
      1         12           0       -7.197283    0.616529    0.070372
      2          6           0       -4.840724   -1.900097    0.446127
      3          6           0       -4.802177    2.855626    1.212157
      4          6           0       -9.373950    3.100171   -0.404408
      5          6           0       -9.534298   -1.743058   -0.989297
      6          7           0       -5.076187    0.452182    0.819241
      7          6           0       -4.277879   -0.750672    0.746932
      8          6           0       -2.866100   -0.400493    1.274576
      9          6           0       -2.965403    1.081118    1.592232
     10          6           0       -4.333543    1.515407    1.144555
     11          6           0       -2.955349    1.256776    3.162505
     12          6           0       -1.906753   -0.694268    0.041501
     13          6           0       -0.468952   -0.422937    0.437274
     14          6           0        0.604131   -0.750843   -0.600487
     15          8           0        0.310538   -1.047158   -1.724184
     16          8           0        1.867268   -0.540132   -0.142353
     17          7           0       -7.118618    2.608279    0.254907
     18          6           0       -6.033042    3.418287    0.728009
     19          6           0       -6.406796    4.810860    0.773631
     20          6           0       -7.683320    4.810359    0.247330
     21          6           0       -8.130916    3.544221   -0.031178
     22          6           0       -5.533089    5.905574    1.084956
     23          6           0       -8.477240    6.065567    0.165954
     24          6           0       -8.382938    7.195604    0.927761
     25          7           0       -9.084743    0.705599   -0.597462
     26          6           0       -9.864550    1.790540   -0.654204
     27          6           0      -11.162428    1.518496   -1.140004
     28          6           0      -11.237951    0.109289   -1.283900
     29          6           0       -9.973900   -0.376700   -1.075429
     30          6           0      -12.332117    2.547167   -1.396447
     31          6           0      -12.348008   -0.776220   -1.702381
     32          6           0      -12.287806   -1.055982   -3.323206
     33          7           0       -7.175905   -1.328823   -0.102875
     34          6           0       -8.331518   -2.164809   -0.555983
     35          6           0       -7.787063   -3.503554   -0.397937
     36          6           0       -6.494467   -3.509744   -0.012741
     37          6           0       -6.221532   -2.139736    0.140614
     38          6           0       -8.607368   -4.715896   -0.893568
     39          6           0       -5.366321   -4.347454    0.297911
     40          8           0       -5.326596   -5.553817    0.579337
     41          6           0       -4.169357   -3.259426    0.604312
     42          6           0       -3.559795   -3.633528    1.941358
     43          8           0       -3.780778   -3.123414    3.010518
     44          8           0       -2.621368   -4.608277    1.729725
     45          6           0       -1.962969   -5.197117    2.938920
     46          6           0        2.842108   -0.935556   -1.090798
     47          6           0        4.188052   -0.657894   -0.458283
     48          6           0        5.179911    0.091486   -0.996028
     49          6           0        5.032768    0.860152   -2.363489
     50          6           0        6.460085    0.341145   -0.251740
     51          6           0        7.636112   -0.305904   -1.061481
     52          6           0        8.898277   -0.219023   -0.167600
     53          6           0       10.245031   -0.664744   -0.889541
     54          6           0       10.096751   -2.135620   -1.331784
     55          6           0       11.398246   -0.420037    0.019460
     56          6           0       12.774589   -0.732941   -0.655671
     57          6           0       14.020076   -0.257601    0.162156
     58          6           0       15.332644   -0.257145   -0.540415
     59          6           0       15.722796   -1.647788   -0.874675
     60          6           0       16.354120    0.379770    0.439910
     61          6           0       17.703680    0.674396   -0.317809
     62          6           0       18.586986    1.521989    0.734139
     63          6           0       20.093011    1.629374    0.373367
     64          6           0       20.294281    2.352037   -1.073561
     65          6           0       20.939125    2.308425    1.423097
     66          1           0       -4.223939    3.605793    1.703575
     67          1           0      -10.042600    3.957749   -0.539028
     68          1           0      -10.244125   -2.599686   -1.268342
     69          1           0       -2.443159   -0.883683    2.194433
     70          1           0       -2.186353    1.648234    1.074499
     71          1           0       -1.899980    1.021627    3.650408
     72          1           0       -3.175871    2.215608    3.368000
     73          1           0       -3.649714    0.458645    3.857514
     74          1           0       -1.974202   -1.699793   -0.452339
     75          1           0       -2.369259   -0.041802   -0.821009
     76          1           0       -0.358621    0.606329    0.892286
     77          1           0       -0.218379   -0.928859    1.419320
     78          1           0       -5.746990    6.972511    0.541736
     79          1           0       -5.591132    6.137590    2.098934
     80          1           0       -4.552351    5.485589    0.899717
     81          1           0       -9.166616    6.208275   -0.589434
     82          1           0       -9.171124    8.037764    0.587913
     83          1           0       -7.774224    7.259299    1.697984
     84          1           0      -12.222898    3.180366   -2.213216
     85          1           0      -13.206299    1.915209   -1.514752
     86          1           0      -12.288857    3.208259   -0.450216
     87          1           0      -12.223776   -1.810044   -1.253665
     88          1           0      -13.212796   -0.294285   -1.213452
     89          1           0      -13.011642   -1.700405   -3.660625
     90          1           0      -12.098172    0.062319   -3.677461
     91          1           0      -11.237895   -1.558497   -3.434467
     92          1           0       -8.551105   -4.561505   -1.966422
     93          1           0       -8.147108   -5.759478   -0.533598
     94          1           0       -9.818399   -4.928289   -0.431535
     95          1           0       -3.500693   -3.570262   -0.316978
     96          1           0       -1.211706   -4.432226    3.286818
     97          1           0       -2.651453   -5.307651    3.833767
     98          1           0       -1.529337   -6.282027    2.698357
     99          1           0        2.730325   -1.931593   -1.443585
    100          1           0        2.639734   -0.619326   -1.965552
    101          1           0        4.390419   -0.988498    0.548137
    102          1           0        3.971414    0.976978   -2.535669
    103          1           0        5.226711    2.021982   -2.261038
    104          1           0        5.429270    0.488876   -3.344481
    105          1           0        6.570266    1.423185   -0.116475
    106          1           0        6.185185   -0.360484    0.438415
    107          1           0        7.533791   -1.327230   -1.092191
    108          1           0        7.853934    0.259500   -1.947033
    109          1           0        9.136802    0.765927    0.180223
    110          1           0        8.605865   -0.765893    0.835886
    111          1           0       10.302903    0.065595   -1.708092
    112          1           0        9.076649   -2.186734   -1.707144
    113          1           0       10.894043   -2.439596   -2.039908
    114          1           0       10.079636   -2.774121   -0.535898
    115          1           0       11.296678    0.762412    0.154906
    116          1           0       11.348976   -0.872832    1.154317
    117          1           0       12.970781   -1.739570   -0.959250
    118          1           0       12.938947   -0.231940   -1.646437
    119          1           0       13.800591    0.812869    0.589109
    120          1           0       14.225329   -0.866725    0.997523
    121          1           0       15.394575    0.432670   -1.549927
    122          1           0       15.776514   -2.263180   -0.076846
    123          1           0       14.700054   -2.041223   -1.569620
    124          1           0       16.654791   -1.600537   -1.463485
    125          1           0       15.892518    1.260723    0.867501
    126          1           0       16.533587   -0.393186    1.193432
    127          1           0       18.294178   -0.245401   -0.803600
    128          1           0       17.478367    1.423704   -1.141690
    129          1           0       17.966566    2.468177    0.648323
    130          1           0       18.408446    1.132105    1.838856
    131          1           0       20.484445    0.520345    0.309847
    132          1           0       19.671022    3.401024   -1.067931
    133          1           0       21.307620    2.505534   -1.414616
    134          1           0       19.956274    1.773358   -1.929667
    135          1           0       21.124252    1.644789    2.224910
    136          1           0       21.977270    2.577810    1.009225
    137          1           0       20.496154    3.188929    1.615096
 ---------------------------------------------------------------------

 SCF Done:  E(RCAM-B3LYP) =  -2932.68749989     A.U. after   15 cycles

 Excitation energies and oscillator strengths:

 Excited State   1:      Singlet-A      2.1147 eV  586.30 nm  f=0.1757  <S**2>=0.000
     240 -> 243        0.24941
     241 -> 242        0.63800
 This state for optimization and/or second-order correction.
 Total Energy, E(TD-HF/TD-KS) =  -2932.60978680
 Copying the excited state density for this state as the 1-particle RhoCI density.

 The electronic state is 1-A.
 Alpha  occ. eigenvalues --  -46.83021 -19.26748 -19.25813 -19.21605 -19.21205
 Alpha  occ. eigenvalues --  -19.20902 -14.40879 -14.39978 -14.38734 -14.38583
 Alpha  occ. eigenvalues --  -10.39593 -10.39330 -10.36177 -10.32976 -10.31213
 Alpha  occ. eigenvalues --  -10.30598 -10.30543 -10.29975 -10.29593 -10.29534
 Alpha  occ. eigenvalues --  -10.29472 -10.29444 -10.29375 -10.28994 -10.28430
 Alpha  occ. eigenvalues --  -10.28381 -10.28264 -10.28249 -10.28096 -10.27829
 Alpha  occ. eigenvalues --  -10.27746 -10.27629 -10.27446 -10.27319 -10.27050
 Alpha  occ. eigenvalues --  -10.27048 -10.27036 -10.26850 -10.26843 -10.26831
 Alpha  occ. eigenvalues --  -10.26773 -10.26770 -10.26563 -10.26528 -10.26436
 Alpha  occ. eigenvalues --  -10.26377 -10.26369 -10.26196 -10.26066 -10.25997
 Alpha  occ. eigenvalues --  -10.25821 -10.25658 -10.25651 -10.25587 -10.25455
 Alpha  occ. eigenvalues --  -10.25371 -10.25144 -10.25124 -10.25119 -10.24944
 Alpha  occ. eigenvalues --  -10.24859 -10.24848 -10.24546 -10.23434 -10.23266
 Alpha  occ. eigenvalues --   -3.12271  -1.86960  -1.86495  -1.86487  -1.19128
 Alpha  occ. eigenvalues --   -1.16596  -1.10654  -1.10289  -1.08426  -1.04983
 Alpha  occ. eigenvalues --   -1.02623  -1.02190  -1.01148  -0.92404  -0.91413
 Alpha  occ. eigenvalues --   -0.90778  -0.89730  -0.89540  -0.89046  -0.88979
 Alpha  occ. eigenvalues --   -0.88248  -0.87576  -0.87373  -0.86955  -0.85968
 Alpha  occ. eigenvalues --   -0.84815  -0.83837  -0.83144  -0.82627  -0.82050
 Alpha  occ. eigenvalues --   -0.80992  -0.80491  -0.80369  -0.79426  -0.78464
 Alpha  occ. eigenvalues --   -0.77336  -0.77155  -0.76364  -0.75477  -0.75446
 Alpha  occ. eigenvalues --   -0.75381  -0.74542  -0.74186  -0.72939  -0.72529
 Alpha  occ. eigenvalues --   -0.71653  -0.70671  -0.70225  -0.69695  -0.68461
 Alpha  occ. eigenvalues --   -0.66920  -0.66344  -0.65974  -0.65710  -0.64419
 Alpha  occ. eigenvalues --   -0.64325  -0.63796  -0.62473  -0.61961  -0.61211
 Alpha  occ. eigenvalues --   -0.60994  -0.60902  -0.60875  -0.60015  -0.59014
 Alpha  occ. eigenvalues --   -0.58862  -0.58227  -0.57313  -0.57148  -0.56752
 Alpha  occ. eigenvalues --   -0.56340  -0.55969  -0.55197  -0.54908  -0.54212
 Alpha  occ. eigenvalues --   -0.54139  -0.53877  -0.53542  -0.53108  -0.53046
 Alpha  occ. eigenvalues --   -0.52267  -0.52107  -0.51831  -0.51626  -0.51469
 Alpha  occ. eigenvalues --   -0.51435  -0.51027  -0.50964  -0.50543  -0.50178
 Alpha  occ. eigenvalues --   -0.50144  -0.49818  -0.49523  -0.49331  -0.49171
 Alpha  occ. eigenvalues --   -0.48964  -0.48762  -0.48657  -0.48367  -0.48038
 Alpha  occ. eigenvalues --   -0.47892  -0.47518  -0.47403  -0.47302  -0.47224
 Alpha  occ. eigenvalues --   -0.47004  -0.46740  -0.46667  -0.46623  -0.46204
 Alpha  occ. eigenvalues --   -0.45763  -0.45531  -0.45384  -0.45342  -0.45127
 Alpha  occ. eigenvalues --   -0.44994  -0.44528  -0.44398  -0.44332  -0.43994
 Alpha  occ. eigenvalues --   -0.43880  -0.43762  -0.43367  -0.43026  -0.42605
 Alpha  occ. eigenvalues --   -0.42597  -0.42485  -0.42290  -0.41966  -0.41747
 Alpha  occ. eigenvalues --   -0.41671  -0.41481  -0.41269  -0.41174  -0.41132
 Alpha  occ. eigenvalues --   -0.40945  -0.40658  -0.40546  -0.40493  -0.40485
 Alpha  occ. eigenvalues --   -0.40031  -0.39998  -0.39656  -0.39567  -0.39183
 Alpha  occ. eigenvalues --   -0.38835  -0.38445  -0.38190  -0.38114  -0.37539
 Alpha  occ. eigenvalues --   -0.37188  -0.37167  -0.37048  -0.36887  -0.36861
 Alpha  occ. eigenvalues --   -0.36491  -0.36258  -0.36207  -0.35998  -0.35648
 Alpha  occ. eigenvalues --   -0.35643  -0.35036  -0.34821  -0.34365  -0.33801
 Alpha  occ. eigenvalues --   -0.33405  -0.32546  -0.32248  -0.31391  -0.30837
 Alpha  occ. eigenvalues --   -0.30242  -0.29829  -0.27715  -0.27239  -0.23851
 Alpha  occ. eigenvalues --   -0.21517
 Alpha virt. eigenvalues --   -0.06246  -0.03812   0.01226   0.04405   0.05988
 Alpha virt. eigenvalues --    0.06051   0.06504   0.06529   0.06949   0.07193
 Alpha virt. eigenvalues --    0.08058   0.10487   0.11389   0.11634   0.11697

 Mulliken charges:
               1
     1  Mg   0.816521
     2  C    0.056361
     3  C   -0.226715
     4  C   -0.192459
     5  C   -0.176596
     6  N   -0.619798
     7  C    0.275740
     8  C   -0.139797
     9  C   -0.148416
    10  C    0.369927
    11  C   -0.308439
    12  C   -0.176182
    13  C   -0.284505
    14  C    0.623912
    15  O   -0.462659
    16  O   -0.472278
    17  N   -0.730818
    18  C    0.283187
    19  C    0.057495
    20  C    0.000691
    21  C    0.353208
    22  C   -0.386533
    23  C   -0.088618
    24  C   -0.224588
    25  N   -0.707558
    26  C    0.353971
    27  C   -0.022537
    28  C    0.027557
    29  C    0.231840
    30  C   -0.352843
    31  C   -0.249350
    32  C   -0.300252
    33  N   -0.751534
    34  C    0.284574
    35  C   -0.039916
    36  C    0.105889
    37  C    0.353579
    38  C   -0.372941
    39  C    0.333671
    40  O   -0.454673
    41  C   -0.333301
    42  C    0.652088
    43  O   -0.474237
    44  O   -0.473725
    45  C   -0.087769
    46  C    0.028645
    47  C   -0.148440
    48  C    0.093767
    49  C   -0.374900
    50  C   -0.200840
    51  C   -0.179840
    52  C   -0.193587
    53  C   -0.057085
    54  C   -0.311500
    55  C   -0.148093
    56  C   -0.194299
    57  C   -0.158180
    58  C   -0.064951
    59  C   -0.273464
    60  C   -0.166606
    61  C   -0.189913
    62  C   -0.164447
    63  C   -0.053284
    64  C   -0.316678
    65  C   -0.296616
    66  H    0.069682
    67  H    0.078899
    68  H    0.114436
    69  H    0.128323
    70  H    0.117377
    71  H    0.086750
    72  H    0.124596
    73  H    0.114879
    74  H    0.124298
    75  H    0.104972
    76  H    0.132266
    77  H    0.125698
    78  H    0.117175
    79  H    0.136082
    80  H    0.119611
    81  H    0.092213
    82  H    0.093521
    83  H    0.096856
    84  H    0.131321
    85  H    0.113157
    86  H    0.111920
    87  H    0.095523
    88  H    0.103936
    89  H    0.122821
    90  H    0.111348
    91  H    0.099370
    92  H    0.142910
    93  H    0.136019
    94  H    0.086036
    95  H    0.157334
    96  H    0.124637
    97  H    0.140507
    98  H    0.127151
    99  H    0.115868
   100  H    0.124629
   101  H    0.093632
   102  H    0.118282
   103  H    0.093141
   104  H    0.122820
   105  H    0.114393
   106  H    0.097793
   107  H    0.117898
   108  H    0.104022
   109  H    0.084873
   110  H    0.067302
   111  H    0.091199
   112  H    0.094101
   113  H    0.099512
   114  H    0.113794
   115  H    0.070006
   116  H    0.074778
   117  H    0.103104
   118  H    0.088802
   119  H    0.067831
   120  H    0.090981
   121  H    0.052158
   122  H    0.112569
   123  H    0.051868
   124  H    0.103752
   125  H    0.096911
   126  H    0.091965
   127  H    0.081773
   128  H    0.097187
   129  H    0.088080
   130  H    0.076003
   131  H    0.069980
   132  H    0.077176
   133  H    0.104522
   134  H    0.106044
   135  H    0.107910
   136  H    0.086311
   137  H    0.114543
 Sum of Mulliken charges =   0.00000

 Dipole moment (field-independent basis, Debye):
    X=              1.3684    Y=              3.3623    Z=              0.0134  Tot=              3.6301
 Quadrupole moment (field-independent basis, Debye-Ang):
   XX=           -357.4628   YY=           -388.7026   ZZ=           -397.3288
   XY=            -18.4769   XZ=             15.3589   YZ=              1.8303

 Normal termination of Gaussian 09 at Tue Jul  2 12:40:19 2019.
