 Gaussian 09, Revision D.01,
 Gaussian 09:  ES64L-G09RevD.01 24-Apr-2013

 -------------------------------------
 # td=(NStates=1) CAM-B3LYP/6-31G(d,p)
 -------------------------------------

 --
 TD
 --
 Symbolic Z-matrix:
 Charge =  0 Multiplicity = 1

                         Standard orientation:
 ---------------------------------------------------------------------
 Center     Atomic      Atomic             Coordinates (Angstroms)
 Number     Number       Type             X           Y           Z
 ---------------------------------------------------------------------
      1         12           0       -7.195916    0.594521    0.015923
      2          6           0       -4.907971   -1.944292    0.495987
      3          6           0       -4.829739    2.817160    1.043456
      4          6           0       -9.477177    3.035931   -0.262299
      5          6           0       -9.627102   -1.865741   -0.850712
      6          7           0       -5.086640    0.430042    0.651214
      7          6           0       -4.368068   -0.720375    0.811028
      8          6           0       -2.875373   -0.433991    1.069602
      9          6           0       -3.003208    1.055746    1.689063
     10          6           0       -4.383537    1.578295    1.076884
     11          6           0       -2.910768    1.212951    3.131971
     12          6           0       -1.931894   -0.571856    0.017434
     13          6           0       -0.450418   -0.405522    0.572244
     14          6           0        0.540134   -0.546027   -0.508520
     15          8           0        0.195543   -0.807678   -1.674136
     16          8           0        1.875315   -0.455337   -0.100046
     17          7           0       -7.155262    2.660963    0.171835
     18          6           0       -6.046727    3.408935    0.724215
     19          6           0       -6.427248    4.845862    0.701952
     20          6           0       -7.779892    4.806891    0.368265
     21          6           0       -8.209000    3.465796    0.074763
     22          6           0       -5.616765    5.915046    1.156387
     23          6           0       -8.612153    5.989236    0.193505
     24          6           0       -8.382778    7.238268    0.702270
     25          7           0       -9.265358    0.627829   -0.398590
     26          6           0       -9.917271    1.767553   -0.519147
     27          6           0      -11.246782    1.503836   -1.044016
     28          6           0      -11.206602    0.116994   -1.309714
     29          6           0       -9.966139   -0.477107   -0.838568
     30          6           0      -12.338224    2.491525   -1.278773
     31          6           0      -12.418353   -0.706903   -1.811803
     32          6           0      -12.145630   -1.053706   -3.311400
     33          7           0       -7.281563   -1.413586   -0.286455
     34          6           0       -8.324314   -2.323373   -0.632651
     35          6           0       -7.893675   -3.665269   -0.521329
     36          6           0       -6.536393   -3.621216   -0.148762
     37          6           0       -6.206824   -2.208337    0.005610
     38          6           0       -8.784708   -4.816948   -0.976308
     39          6           0       -5.392569   -4.415754    0.114696
     40          8           0       -5.227236   -5.634609    0.262432
     41          6           0       -4.205334   -3.336074    0.626910
     42          6           0       -3.636927   -3.822865    1.953976
     43          8           0       -3.906012   -2.999771    2.893662
     44          8           0       -2.690721   -4.645127    1.848535
     45          6           0       -2.168830   -5.081883    3.019364
     46          6           0        2.863221   -0.600398   -1.116688
     47          6           0        4.112697   -0.333341   -0.384711
     48          6           0        5.137678    0.434838   -0.827234
     49          6           0        5.194044    1.285329   -2.040269
     50          6           0        6.534411    0.397397   -0.144865
     51          6           0        7.660831   -0.269465   -0.765541
     52          6           0        9.079959   -0.142462   -0.046872
     53          6           0       10.257174   -0.629085   -0.807208
     54          6           0       10.184690   -2.164696   -1.160596
     55          6           0       11.646940   -0.303889   -0.012851
     56          6           0       12.818862   -0.343732   -0.859693
     57          6           0       14.066072   -0.123280    0.103612
     58          6           0       15.323365   -0.292460   -0.600566
     59          6           0       15.786487   -1.756315   -0.987667
     60          6           0       16.518644    0.341214    0.250626
     61          6           0       17.905834    0.544861   -0.327140
     62          6           0       18.765990    1.316578    0.656824
     63          6           0       20.203645    1.427499    0.209873
     64          6           0       20.407925    2.237003   -1.006582
     65          6           0       21.104703    1.876267    1.449705
     66          1           0       -4.160246    3.510284    1.379975
     67          1           0      -10.160791    3.837283   -0.484140
     68          1           0      -10.511909   -2.683153   -1.262714
     69          1           0       -2.758663   -1.101341    1.952676
     70          1           0       -2.037681    1.795177    1.323598
     71          1           0       -1.858370    0.954887    3.533765
     72          1           0       -3.363805    2.136892    3.647238
     73          1           0       -3.597543    0.448427    3.741629
     74          1           0       -2.011856   -1.471953   -0.303771
     75          1           0       -2.124501    0.125868   -0.744554
     76          1           0       -0.251602    0.631952    1.124467
     77          1           0       -0.434413   -1.164272    1.327488
     78          1           0       -5.831368    6.749511    0.316882
     79          1           0       -6.012234    6.276300    2.115036
     80          1           0       -4.484733    5.507276    1.045894
     81          1           0       -9.424545    6.000414   -0.702365
     82          1           0       -9.063164    7.984116    0.361615
     83          1           0       -7.482056    7.301757    1.426973
     84          1           0      -12.320239    2.999685   -2.218366
     85          1           0      -13.360426    2.068111   -1.468989
     86          1           0      -12.457657    3.045610   -0.354460
     87          1           0      -12.428500   -1.773462   -1.342032
     88          1           0      -13.306134   -0.148937   -1.547949
     89          1           0      -12.613688   -1.768620   -3.711132
     90          1           0      -12.265121   -0.007019   -3.873665
     91          1           0      -11.164911   -1.622304   -3.247238
     92          1           0       -9.150127   -4.697609   -1.967603
     93          1           0       -8.315925   -5.893503   -0.664692
     94          1           0       -9.804705   -5.086689   -0.487070
     95          1           0       -3.182362   -3.627826   -0.103983
     96          1           0       -1.666277   -4.270145    3.685916
     97          1           0       -2.907298   -5.378742    3.668652
     98          1           0       -1.604166   -5.873555    2.701219
     99          1           0        2.822716   -1.628950   -1.562991
    100          1           0        2.667246    0.132158   -1.882148
    101          1           0        4.370471   -0.925690    0.449367
    102          1           0        4.006917    1.692369   -2.427624
    103          1           0        5.901973    2.123741   -1.928046
    104          1           0        5.508559    0.560751   -2.909361
    105          1           0        6.784869    1.508889   -0.072164
    106          1           0        6.497214   -0.170991    0.805070
    107          1           0        7.319838   -1.369050   -0.786700
    108          1           0        8.037278    0.096910   -1.892312
    109          1           0        9.285205    0.918858    0.376872
    110          1           0        8.948707   -0.866064    0.574026
    111          1           0       10.350666   -0.218582   -1.700494
    112          1           0        9.247585   -2.553933   -1.913143
    113          1           0       11.083079   -2.584200   -1.494554
    114          1           0        9.997447   -2.817497   -0.289080
    115          1           0       11.504251    0.649752    0.470904
    116          1           0       11.559557   -1.100103    0.797198
    117          1           0       12.893217   -1.265146   -1.332738
    118          1           0       12.950703    0.269271   -1.764240
    119          1           0       14.111920    0.872098    0.477813
    120          1           0       13.968074   -0.888355    0.950739
    121          1           0       15.385143    0.375912   -1.628379
    122          1           0       15.997698   -2.467412   -0.102478
    123          1           0       14.931350   -2.279765   -1.525325
    124          1           0       16.618645   -1.688219   -1.479781
    125          1           0       16.340130    1.463947    0.337814
    126          1           0       16.672045   -0.108629    1.324075
    127          1           0       18.307210   -0.296918   -0.463262
    128          1           0       17.971260    0.881270   -1.324061
    129          1           0       18.133906    2.292028    0.712952
    130          1           0       18.838302    0.917690    1.678734
    131          1           0       20.343544    0.462287   -0.175584
    132          1           0       20.294481    3.245007   -0.824338
    133          1           0       21.438199    2.127548   -1.562940
    134          1           0       19.530452    2.162144   -1.918838
    135          1           0       20.856594    1.299442    2.421406
    136          1           0       22.201362    1.747455    1.144472
    137          1           0       21.027351    2.886830    1.863725
 ---------------------------------------------------------------------

 SCF Done:  E(RCAM-B3LYP) =  -2932.54792830     A.U. after   16 cycles

 Excitation energies and oscillator strengths:

 Excited State   1:      Singlet-A      1.9859 eV  624.31 nm  f=0.2613  <S**2>=0.000
     240 -> 243        0.25298
     241 -> 242        0.65189
 This state for optimization and/or second-order correction.
 Total Energy, E(TD-HF/TD-KS) =  -2932.47494603
 Copying the excited state density for this state as the 1-particle RhoCI density.

 The electronic state is 1-A.
 Alpha  occ. eigenvalues --  -46.85008 -19.29268 -19.25722 -19.21040 -19.20090
 Alpha  occ. eigenvalues --  -19.19633 -14.41624 -14.39985 -14.39367 -14.38918
 Alpha  occ. eigenvalues --  -10.39492 -10.39347 -10.35096 -10.31401 -10.31043
 Alpha  occ. eigenvalues --  -10.30861 -10.30753 -10.30669 -10.30127 -10.29954
 Alpha  occ. eigenvalues --  -10.29624 -10.29478 -10.29404 -10.29381 -10.29330
 Alpha  occ. eigenvalues --  -10.28753 -10.28426 -10.28368 -10.28347 -10.28309
 Alpha  occ. eigenvalues --  -10.28122 -10.27790 -10.27548 -10.27315 -10.27193
 Alpha  occ. eigenvalues --  -10.27169 -10.27123 -10.27113 -10.26949 -10.26782
 Alpha  occ. eigenvalues --  -10.26729 -10.26544 -10.26514 -10.26404 -10.26208
 Alpha  occ. eigenvalues --  -10.26205 -10.25955 -10.25925 -10.25897 -10.25763
 Alpha  occ. eigenvalues --  -10.25673 -10.25589 -10.25532 -10.25399 -10.25117
 Alpha  occ. eigenvalues --  -10.25108 -10.24997 -10.24953 -10.24855 -10.24706
 Alpha  occ. eigenvalues --  -10.24504 -10.24497 -10.24468 -10.24336 -10.22285
 Alpha  occ. eigenvalues --   -3.13786  -1.88513  -1.88009  -1.87956  -1.24051
 Alpha  occ. eigenvalues --   -1.16345  -1.09362  -1.08243  -1.07059  -1.03884
 Alpha  occ. eigenvalues --   -1.02866  -1.02663  -1.01594  -0.91540  -0.91454
 Alpha  occ. eigenvalues --   -0.90971  -0.90721  -0.90080  -0.89899  -0.88840
 Alpha  occ. eigenvalues --   -0.88460  -0.87719  -0.87285  -0.87050  -0.86079
 Alpha  occ. eigenvalues --   -0.85915  -0.85084  -0.84404  -0.83669  -0.82674
 Alpha  occ. eigenvalues --   -0.82451  -0.82162  -0.80964  -0.80051  -0.78499
 Alpha  occ. eigenvalues --   -0.78117  -0.76884  -0.75943  -0.75935  -0.75463
 Alpha  occ. eigenvalues --   -0.75392  -0.75371  -0.73712  -0.73498  -0.72886
 Alpha  occ. eigenvalues --   -0.71613  -0.70772  -0.69614  -0.69550  -0.68348
 Alpha  occ. eigenvalues --   -0.66895  -0.66745  -0.65898  -0.65536  -0.65458
 Alpha  occ. eigenvalues --   -0.64259  -0.63965  -0.63690  -0.63191  -0.63174
 Alpha  occ. eigenvalues --   -0.61069  -0.60466  -0.60032  -0.59166  -0.59098
 Alpha  occ. eigenvalues --   -0.58483  -0.58089  -0.57944  -0.57643  -0.57242
 Alpha  occ. eigenvalues --   -0.56584  -0.55722  -0.55520  -0.55048  -0.54764
 Alpha  occ. eigenvalues --   -0.54681  -0.54618  -0.54322  -0.53829  -0.52979
 Alpha  occ. eigenvalues --   -0.52559  -0.52270  -0.52103  -0.51991  -0.51707
 Alpha  occ. eigenvalues --   -0.51514  -0.51292  -0.50752  -0.50727  -0.50549
 Alpha  occ. eigenvalues --   -0.50373  -0.50220  -0.50040  -0.49891  -0.49557
 Alpha  occ. eigenvalues --   -0.49228  -0.49150  -0.48807  -0.48690  -0.48534
 Alpha  occ. eigenvalues --   -0.48223  -0.48081  -0.47726  -0.47400  -0.47271
 Alpha  occ. eigenvalues --   -0.47200  -0.46747  -0.46547  -0.46293  -0.46178
 Alpha  occ. eigenvalues --   -0.45836  -0.45415  -0.45234  -0.45018  -0.44878
 Alpha  occ. eigenvalues --   -0.44676  -0.44355  -0.44343  -0.44207  -0.44052
 Alpha  occ. eigenvalues --   -0.43618  -0.43245  -0.43112  -0.43041  -0.42910
 Alpha  occ. eigenvalues --   -0.42781  -0.42729  -0.42303  -0.42210  -0.42066
 Alpha  occ. eigenvalues --   -0.41974  -0.41900  -0.41612  -0.41534  -0.41296
 Alpha  occ. eigenvalues --   -0.41279  -0.40949  -0.40749  -0.40663  -0.40642
 Alpha  occ. eigenvalues --   -0.39788  -0.39684  -0.39273  -0.39043  -0.38714
 Alpha  occ. eigenvalues --   -0.38440  -0.38026  -0.37962  -0.37729  -0.37597
 Alpha  occ. eigenvalues --   -0.37553  -0.37441  -0.36868  -0.36839  -0.36452
 Alpha  occ. eigenvalues --   -0.36032  -0.35874  -0.35649  -0.35382  -0.35277
 Alpha  occ. eigenvalues --   -0.35122  -0.34443  -0.34285  -0.33616  -0.32710
 Alpha  occ. eigenvalues --   -0.32440  -0.32363  -0.31854  -0.31228  -0.29791
 Alpha  occ. eigenvalues --   -0.29373  -0.29090  -0.27580  -0.27252  -0.23234
 Alpha  occ. eigenvalues --   -0.21559
 Alpha virt. eigenvalues --   -0.07184  -0.03506   0.01161   0.03888   0.04414
 Alpha virt. eigenvalues --    0.04994   0.05839   0.06027   0.06821   0.07161
 Alpha virt. eigenvalues --    0.07794   0.09687   0.10972   0.11340   0.11543

 Mulliken charges:
               1
     1  Mg   0.816162
     2  C    0.092954
     3  C   -0.197231
     4  C   -0.156014
     5  C   -0.168520
     6  N   -0.650248
     7  C    0.296192
     8  C   -0.166522
     9  C   -0.118281
    10  C    0.340917
    11  C   -0.310333
    12  C   -0.114652
    13  C   -0.282626
    14  C    0.623338
    15  O   -0.479678
    16  O   -0.494366
    17  N   -0.728352
    18  C    0.268311
    19  C    0.077713
    20  C   -0.019644
    21  C    0.373338
    22  C   -0.394023
    23  C   -0.093788
    24  C   -0.245201
    25  N   -0.731517
    26  C    0.354409
    27  C    0.020542
    28  C   -0.022544
    29  C    0.318109
    30  C   -0.385175
    31  C   -0.246431
    32  C   -0.276094
    33  N   -0.736162
    34  C    0.263487
    35  C    0.063831
    36  C    0.040806
    37  C    0.294409
    38  C   -0.395308
    39  C    0.325508
    40  O   -0.475242
    41  C   -0.345460
    42  C    0.627046
    43  O   -0.511475
    44  O   -0.356049
    45  C   -0.101084
    46  C    0.027027
    47  C   -0.123438
    48  C    0.122282
    49  C   -0.345971
    50  C   -0.211012
    51  C   -0.175111
    52  C   -0.144827
    53  C   -0.072558
    54  C   -0.330848
    55  C   -0.178716
    56  C   -0.184331
    57  C   -0.155642
    58  C   -0.061107
    59  C   -0.301377
    60  C   -0.178167
    61  C   -0.187213
    62  C   -0.164441
    63  C   -0.038821
    64  C   -0.305461
    65  C   -0.326861
    66  H    0.067480
    67  H    0.090906
    68  H    0.099770
    69  H    0.130824
    70  H    0.063131
    71  H    0.103227
    72  H    0.111482
    73  H    0.105101
    74  H    0.124020
    75  H    0.126516
    76  H    0.123661
    77  H    0.145610
    78  H    0.123644
    79  H    0.146762
    80  H    0.107154
    81  H    0.084531
    82  H    0.109506
    83  H    0.092491
    84  H    0.131451
    85  H    0.107051
    86  H    0.128592
    87  H    0.083607
    88  H    0.103577
    89  H    0.107576
    90  H    0.094700
    91  H    0.090896
    92  H    0.140282
    93  H    0.129734
    94  H    0.114764
    95  H    0.112452
    96  H    0.119847
    97  H    0.141329
    98  H    0.130308
    99  H    0.125261
   100  H    0.120186
   101  H    0.087203
   102  H    0.075549
   103  H    0.118016
   104  H    0.127671
   105  H    0.084967
   106  H    0.096392
   107  H    0.086502
   108  H    0.055742
   109  H    0.082659
   110  H    0.107188
   111  H    0.095670
   112  H    0.074844
   113  H    0.112484
   114  H    0.094170
   115  H    0.094299
   116  H    0.091648
   117  H    0.103913
   118  H    0.096196
   119  H    0.103709
   120  H    0.088533
   121  H    0.056029
   122  H    0.086244
   123  H    0.087985
   124  H    0.118734
   125  H    0.073190
   126  H    0.076913
   127  H    0.098465
   128  H    0.094018
   129  H    0.070189
   130  H    0.089331
   131  H    0.103780
   132  H    0.116528
   133  H    0.087610
   134  H    0.065002
   135  H    0.092782
   136  H    0.095910
   137  H    0.114045
 Sum of Mulliken charges =   0.00000

 Dipole moment (field-independent basis, Debye):
    X=              2.2334    Y=              3.1603    Z=              0.6251  Tot=              3.9200
 Quadrupole moment (field-independent basis, Debye-Ang):
   XX=           -334.6006   YY=           -387.2371   ZZ=           -398.7770
   XY=            -21.8082   XZ=             14.6219   YZ=             -3.2644

 Normal termination of Gaussian 09 at Fri Jul  5 16:11:55 2019.
