 Gaussian 09, Revision D.01,
 Gaussian 09:  ES64L-G09RevD.01 24-Apr-2013

 -------------------------------------
 # td=(NStates=1) CAM-B3LYP/6-31G(d,p)
 -------------------------------------

 --
 TD
 --
 Symbolic Z-matrix:
 Charge =  0 Multiplicity = 1

                         Standard orientation:
 ---------------------------------------------------------------------
 Center     Atomic      Atomic             Coordinates (Angstroms)
 Number     Number       Type             X           Y           Z
 ---------------------------------------------------------------------
      1         12           0       -7.137675    0.629695   -0.019867
      2          6           0       -4.787029   -1.936775    0.507196
      3          6           0       -4.856473    2.793639    1.162518
      4          6           0       -9.528813    3.073562   -0.328850
      5          6           0       -9.505441   -1.797763   -0.811869
      6          7           0       -5.157796    0.473746    0.660739
      7          6           0       -4.362534   -0.629319    0.694713
      8          6           0       -2.874807   -0.465689    1.192594
      9          6           0       -2.993399    1.047188    1.690853
     10          6           0       -4.435104    1.480807    1.093871
     11          6           0       -2.950319    1.350609    3.317853
     12          6           0       -1.870991   -0.618127    0.067228
     13          6           0       -0.316759   -0.543733    0.521932
     14          6           0        0.541183   -0.716140   -0.562911
     15          8           0        0.279173   -1.036885   -1.714087
     16          8           0        1.771831   -0.510093   -0.193110
     17          7           0       -7.183679    2.587026    0.278153
     18          6           0       -6.158943    3.327422    0.810350
     19          6           0       -6.566728    4.742277    0.841929
     20          6           0       -7.844424    4.842256    0.353991
     21          6           0       -8.206122    3.499944    0.085236
     22          6           0       -5.495825    5.908796    1.110564
     23          6           0       -8.728925    5.969787    0.227003
     24          6           0       -8.604456    7.110255    0.869882
     25          7           0       -9.133476    0.699529   -0.614667
     26          6           0       -9.891978    1.801656   -0.626758
     27          6           0      -11.227437    1.404461   -1.129434
     28          6           0      -11.258941    0.027673   -1.306837
     29          6           0       -9.944510   -0.414249   -0.992364
     30          6           0      -12.369544    2.396081   -1.383794
     31          6           0      -12.444686   -0.747102   -1.544051
     32          6           0      -12.548559   -1.065704   -3.112612
     33          7           0       -7.171830   -1.390697   -0.173078
     34          6           0       -8.199217   -2.264330   -0.436857
     35          6           0       -7.785212   -3.678158   -0.485450
     36          6           0       -6.483820   -3.534914    0.024416
     37          6           0       -6.102676   -2.207537    0.121837
     38          6           0       -8.674899   -4.891070   -0.808931
     39          6           0       -5.301911   -4.342613    0.224663
     40          8           0       -5.166973   -5.585138    0.168017
     41          6           0       -4.185458   -3.298731    0.540660
     42          6           0       -3.527607   -3.688113    1.867017
     43          8           0       -3.717065   -3.119162    2.959292
     44          8           0       -2.710717   -4.726395    1.714282
     45          6           0       -2.181761   -5.166266    3.003358
     46          6           0        2.873347   -0.557166   -1.306284
     47          6           0        4.084811   -0.338686   -0.618282
     48          6           0        5.129793    0.490259   -1.020036
     49          6           0        5.059538    1.324088   -2.275870
     50          6           0        6.481817    0.492766   -0.204578
     51          6           0        7.627497   -0.020278   -1.033596
     52          6           0        8.979408    0.129816   -0.259109
     53          6           0       10.236298   -0.390148   -1.076882
     54          6           0       10.022304   -1.901368   -1.545391
     55          6           0       11.446371   -0.291447   -0.094889
     56          6           0       12.813531   -0.564649   -0.765436
     57          6           0       14.050814   -0.172812    0.197158
     58          6           0       15.359893   -0.269196   -0.410354
     59          6           0       15.770000   -1.764399   -0.654477
     60          6           0       16.452731    0.361376    0.477108
     61          6           0       17.965807    0.473713   -0.118841
     62          6           0       18.877970    1.156593    0.871481
     63          6           0       20.352910    1.392944    0.250353
     64          6           0       20.471911    2.140809   -1.043478
     65          6           0       21.162684    1.922811    1.359638
     66          1           0       -4.233166    3.472176    1.574373
     67          1           0      -10.406107    3.925600   -0.479389
     68          1           0      -10.232097   -2.753672   -1.004897
     69          1           0       -2.879465   -1.269531    1.999184
     70          1           0       -2.184178    1.743544    1.211042
     71          1           0       -1.933169    0.979304    3.427033
     72          1           0       -3.024651    2.518801    3.412428
     73          1           0       -3.760807    0.801837    3.714817
     74          1           0       -2.041115   -1.700552   -0.367815
     75          1           0       -2.201448   -0.133327   -0.890647
     76          1           0       -0.078158    0.501823    0.899604
     77          1           0       -0.040583   -1.283876    1.211353
     78          1           0       -5.555792    6.551955    0.137021
     79          1           0       -5.769987    6.373118    2.081485
     80          1           0       -4.530372    5.463035    1.036101
     81          1           0       -9.577850    6.015588   -0.405968
     82          1           0       -9.168479    7.895327    0.413645
     83          1           0       -7.556480    7.100917    1.544371
     84          1           0      -12.212562    2.741665   -2.443686
     85          1           0      -13.488364    2.125450   -1.506679
     86          1           0      -12.207923    3.213919   -0.499604
     87          1           0      -12.348768   -1.692916   -1.066108
     88          1           0      -13.259478   -0.090972   -1.357245
     89          1           0      -13.251623   -1.921207   -3.285782
     90          1           0      -12.575714   -0.200917   -3.592826
     91          1           0      -11.522498   -1.496016   -3.606537
     92          1           0       -9.643027   -4.877624   -1.694931
     93          1           0       -7.860818   -5.830708   -1.178629
     94          1           0       -9.061445   -5.271117    0.539420
     95          1           0       -3.457555   -3.324433   -0.272305
     96          1           0       -1.715619   -4.399928    3.417802
     97          1           0       -2.981600   -5.676691    3.482276
     98          1           0       -1.274818   -5.968482    2.744177
     99          1           0        2.805501   -1.612945   -1.672788
    100          1           0        2.470249    0.164166   -2.106268
    101          1           0        4.341322   -0.788477    0.489418
    102          1           0        3.995077    1.337225   -2.555759
    103          1           0        5.642908    2.194798   -2.241658
    104          1           0        5.551181    1.027208   -3.198980
    105          1           0        6.700237    1.640138    0.315349
    106          1           0        6.324539   -0.002241    0.712380
    107          1           0        7.530819   -1.117673   -1.474656
    108          1           0        7.603105    0.768524   -1.862456
    109          1           0        9.167685    1.076190   -0.121017
    110          1           0        8.916127   -0.456301    0.629895
    111          1           0       10.398393    0.379113   -1.726729
    112          1           0        9.337387   -1.932518   -2.282547
    113          1           0       11.076145   -2.496527   -1.662691
    114          1           0        9.672460   -2.525677   -0.570516
    115          1           0       11.373848    0.731122    0.409226
    116          1           0       11.408934   -1.073071    0.708057
    117          1           0       12.993350   -1.563188   -0.951488
    118          1           0       13.034274   -0.049740   -1.686580
    119          1           0       13.835769    0.810286    0.700106
    120          1           0       13.926013   -0.868165    0.893526
    121          1           0       15.468775    0.386429   -1.341247
    122          1           0       15.634758   -2.274859    0.285218
    123          1           0       14.956752   -2.361059   -1.132384
    124          1           0       16.571206   -1.940431   -1.237477
    125          1           0       16.033577    1.496686    0.662860
    126          1           0       16.396454   -0.198335    1.389974
    127          1           0       18.235923   -0.654619   -0.347735
    128          1           0       17.805997    1.011299   -0.954737
    129          1           0       18.371397    2.269931    0.910270
    130          1           0       19.233141    0.374937    1.640645
    131          1           0       20.846987    0.515550   -0.202908
    132          1           0       20.172738    3.216279   -0.732656
    133          1           0       21.475991    2.229123   -1.418168
    134          1           0       19.772338    1.894955   -1.775429
    135          1           0       21.118845    1.193369    2.183498
    136          1           0       22.194428    2.112679    0.963678
    137          1           0       20.898819    2.920931    1.711827
 ---------------------------------------------------------------------

 SCF Done:  E(RCAM-B3LYP) =  -2932.55006464     A.U. after   18 cycles

 Excitation energies and oscillator strengths:

 Excited State   1:      Singlet-A      1.9444 eV  637.64 nm  f=0.2854  <S**2>=0.000
     240 -> 243       -0.23651
     241 -> 242        0.66163
 This state for optimization and/or second-order correction.
 Total Energy, E(TD-HF/TD-KS) =  -2932.47860811
 Copying the excited state density for this state as the 1-particle RhoCI density.

 The electronic state is 1-A.
 Alpha  occ. eigenvalues --  -46.83842 -19.26903 -19.24852 -19.20752 -19.19994
 Alpha  occ. eigenvalues --  -19.18706 -14.42060 -14.39626 -14.39137 -14.39127
 Alpha  occ. eigenvalues --  -10.39596 -10.37046 -10.34790 -10.33386 -10.33297
 Alpha  occ. eigenvalues --  -10.31482 -10.30769 -10.30636 -10.30347 -10.29578
 Alpha  occ. eigenvalues --  -10.29557 -10.29467 -10.29452 -10.29338 -10.29124
 Alpha  occ. eigenvalues --  -10.28933 -10.28573 -10.28557 -10.28223 -10.28205
 Alpha  occ. eigenvalues --  -10.28112 -10.28062 -10.27903 -10.27780 -10.27555
 Alpha  occ. eigenvalues --  -10.27454 -10.27444 -10.27418 -10.27298 -10.27276
 Alpha  occ. eigenvalues --  -10.26749 -10.26726 -10.26541 -10.26360 -10.26335
 Alpha  occ. eigenvalues --  -10.26249 -10.26114 -10.25929 -10.25900 -10.25746
 Alpha  occ. eigenvalues --  -10.25735 -10.25503 -10.25495 -10.25474 -10.25283
 Alpha  occ. eigenvalues --  -10.25242 -10.25099 -10.24986 -10.24979 -10.24224
 Alpha  occ. eigenvalues --  -10.24091 -10.24034 -10.23830 -10.23819 -10.23594
 Alpha  occ. eigenvalues --   -3.13003  -1.87699  -1.87232  -1.87204  -1.18527
 Alpha  occ. eigenvalues --   -1.17564  -1.08781  -1.07929  -1.06616  -1.05146
 Alpha  occ. eigenvalues --   -1.03398  -1.03275  -1.01849  -0.93387  -0.91245
 Alpha  occ. eigenvalues --   -0.90606  -0.89801  -0.89608  -0.89314  -0.89193
 Alpha  occ. eigenvalues --   -0.88623  -0.87449  -0.86562  -0.86155  -0.85615
 Alpha  occ. eigenvalues --   -0.84600  -0.83900  -0.83233  -0.83139  -0.82190
 Alpha  occ. eigenvalues --   -0.81622  -0.80764  -0.80673  -0.80031  -0.78286
 Alpha  occ. eigenvalues --   -0.77730  -0.76870  -0.76507  -0.76381  -0.75743
 Alpha  occ. eigenvalues --   -0.75626  -0.74284  -0.73739  -0.72851  -0.71491
 Alpha  occ. eigenvalues --   -0.70807  -0.70436  -0.70031  -0.68872  -0.67848
 Alpha  occ. eigenvalues --   -0.66331  -0.66126  -0.64970  -0.64750  -0.64426
 Alpha  occ. eigenvalues --   -0.63829  -0.63450  -0.62214  -0.61797  -0.61684
 Alpha  occ. eigenvalues --   -0.61473  -0.60255  -0.60033  -0.59172  -0.58576
 Alpha  occ. eigenvalues --   -0.58449  -0.58326  -0.57643  -0.57341  -0.57050
 Alpha  occ. eigenvalues --   -0.56207  -0.55949  -0.55484  -0.55113  -0.54719
 Alpha  occ. eigenvalues --   -0.54580  -0.54334  -0.54254  -0.53556  -0.53173
 Alpha  occ. eigenvalues --   -0.52954  -0.52183  -0.52034  -0.51945  -0.51553
 Alpha  occ. eigenvalues --   -0.51303  -0.51074  -0.50848  -0.50707  -0.50448
 Alpha  occ. eigenvalues --   -0.50387  -0.50130  -0.49998  -0.49553  -0.49398
 Alpha  occ. eigenvalues --   -0.48846  -0.48663  -0.48438  -0.48242  -0.48087
 Alpha  occ. eigenvalues --   -0.48026  -0.47918  -0.47808  -0.47448  -0.46880
 Alpha  occ. eigenvalues --   -0.46795  -0.46497  -0.46075  -0.45841  -0.45616
 Alpha  occ. eigenvalues --   -0.45476  -0.45229  -0.45190  -0.45092  -0.44952
 Alpha  occ. eigenvalues --   -0.44623  -0.44500  -0.44257  -0.43915  -0.43816
 Alpha  occ. eigenvalues --   -0.43681  -0.43320  -0.43054  -0.42719  -0.42529
 Alpha  occ. eigenvalues --   -0.42373  -0.42203  -0.42109  -0.41903  -0.41804
 Alpha  occ. eigenvalues --   -0.41792  -0.41728  -0.41625  -0.41319  -0.41176
 Alpha  occ. eigenvalues --   -0.41046  -0.40944  -0.40407  -0.40326  -0.40110
 Alpha  occ. eigenvalues --   -0.39940  -0.39860  -0.39458  -0.39243  -0.39192
 Alpha  occ. eigenvalues --   -0.38784  -0.38739  -0.38426  -0.38193  -0.38154
 Alpha  occ. eigenvalues --   -0.37959  -0.37408  -0.37015  -0.36956  -0.36707
 Alpha  occ. eigenvalues --   -0.36190  -0.36166  -0.35683  -0.35484  -0.35122
 Alpha  occ. eigenvalues --   -0.35023  -0.34708  -0.34384  -0.33693  -0.33567
 Alpha  occ. eigenvalues --   -0.32476  -0.32285  -0.31665  -0.30862  -0.29877
 Alpha  occ. eigenvalues --   -0.29252  -0.28961  -0.28095  -0.27149  -0.22793
 Alpha  occ. eigenvalues --   -0.21033
 Alpha virt. eigenvalues --   -0.06921  -0.02760   0.01223   0.04375   0.04430
 Alpha virt. eigenvalues --    0.05933   0.06005   0.07187   0.07382   0.07930
 Alpha virt. eigenvalues --    0.08134   0.08713   0.10313   0.10751   0.10780

 Mulliken charges:
               1
     1  Mg   0.820090
     2  C    0.112830
     3  C   -0.209984
     4  C   -0.190591
     5  C   -0.175546
     6  N   -0.621516
     7  C    0.252836
     8  C   -0.148844
     9  C   -0.166315
    10  C    0.358140
    11  C   -0.293683
    12  C   -0.187585
    13  C   -0.260278
    14  C    0.622210
    15  O   -0.520497
    16  O   -0.500107
    17  N   -0.712196
    18  C    0.318491
    19  C   -0.075590
    20  C    0.081655
    21  C    0.263978
    22  C   -0.358662
    23  C   -0.069378
    24  C   -0.231754
    25  N   -0.701652
    26  C    0.377552
    27  C   -0.022571
    28  C    0.063549
    29  C    0.248147
    30  C   -0.373838
    31  C   -0.233290
    32  C   -0.314099
    33  N   -0.715783
    34  C    0.259876
    35  C    0.071295
    36  C   -0.004962
    37  C    0.279438
    38  C   -0.331630
    39  C    0.360036
    40  O   -0.488185
    41  C   -0.344182
    42  C    0.625465
    43  O   -0.503590
    44  O   -0.438135
    45  C   -0.070228
    46  C   -0.007198
    47  C   -0.117350
    48  C    0.110676
    49  C   -0.368956
    50  C   -0.214205
    51  C   -0.173348
    52  C   -0.163734
    53  C   -0.058535
    54  C   -0.306076
    55  C   -0.176954
    56  C   -0.193021
    57  C   -0.176339
    58  C   -0.051705
    59  C   -0.324313
    60  C   -0.169064
    61  C   -0.178273
    62  C   -0.156270
    63  C   -0.068385
    64  C   -0.316074
    65  C   -0.293319
    66  H    0.060771
    67  H    0.094350
    68  H    0.092720
    69  H    0.140164
    70  H    0.091723
    71  H    0.120985
    72  H    0.102041
    73  H    0.140545
    74  H    0.097495
    75  H    0.132434
    76  H    0.137805
    77  H    0.153067
    78  H    0.126702
    79  H    0.132596
    80  H    0.122401
    81  H    0.093386
    82  H    0.105429
    83  H    0.077202
    84  H    0.127313
    85  H    0.112711
    86  H    0.104034
    87  H    0.110912
    88  H    0.113335
    89  H    0.104482
    90  H    0.123249
    91  H    0.078086
    92  H    0.113155
    93  H    0.129952
    94  H    0.083798
    95  H    0.173347
    96  H    0.146254
    97  H    0.150195
    98  H    0.095921
    99  H    0.149462
   100  H    0.147514
   101  H    0.099284
   102  H    0.104480
   103  H    0.123514
   104  H    0.123457
   105  H    0.062816
   106  H    0.102766
   107  H    0.096993
   108  H    0.083838
   109  H    0.098705
   110  H    0.096206
   111  H    0.096032
   112  H    0.121656
   113  H    0.090162
   114  H    0.082039
   115  H    0.079117
   116  H    0.083522
   117  H    0.101891
   118  H    0.090650
   119  H    0.080422
   120  H    0.097931
   121  H    0.067303
   122  H    0.104546
   123  H    0.085397
   124  H    0.116038
   125  H    0.048788
   126  H    0.086989
   127  H    0.080921
   128  H    0.106262
   129  H    0.090630
   130  H    0.106667
   131  H    0.086823
   132  H    0.066521
   133  H    0.107420
   134  H    0.111829
   135  H    0.097887
   136  H    0.084906
   137  H    0.101584
 Sum of Mulliken charges =   0.00000

 Dipole moment (field-independent basis, Debye):
    X=              2.9375    Y=              3.6870    Z=             -0.5807  Tot=              4.7497
 Quadrupole moment (field-independent basis, Debye-Ang):
   XX=           -347.2130   YY=           -396.8075   ZZ=           -399.4198
   XY=            -23.7739   XZ=             10.9725   YZ=             -8.3554

 Normal termination of Gaussian 09 at Tue Jul  2 17:55:16 2019.
