 Gaussian 09, Revision D.01,
 Gaussian 09:  ES64L-G09RevD.01 24-Apr-2013

 -------------------------------------
 # td=(NStates=1) CAM-B3LYP/6-31G(d,p)
 -------------------------------------

 --
 TD
 --
 Symbolic Z-matrix:
 Charge =  0 Multiplicity = 1

                         Standard orientation:
 ---------------------------------------------------------------------
 Center     Atomic      Atomic             Coordinates (Angstroms)
 Number     Number       Type             X           Y           Z
 ---------------------------------------------------------------------
      1         12           0       -7.171887    0.589688    0.109260
      2          6           0       -4.852586   -1.887234    0.550851
      3          6           0       -4.920090    2.866416    1.034095
      4          6           0       -9.509469    3.031022   -0.260743
      5          6           0       -9.508657   -1.853447   -1.019733
      6          7           0       -5.069282    0.404425    0.625613
      7          6           0       -4.308980   -0.719819    0.906076
      8          6           0       -3.011518   -0.283895    1.218371
      9          6           0       -3.116349    1.225887    1.674779
     10          6           0       -4.535814    1.494261    1.064562
     11          6           0       -3.057047    1.341083    3.219681
     12          6           0       -1.923861   -0.513808    0.104025
     13          6           0       -0.466747   -0.390450    0.561071
     14          6           0        0.572278   -0.507927   -0.552335
     15          8           0        0.192294   -0.826347   -1.699823
     16          8           0        1.754909   -0.382276   -0.216094
     17          7           0       -7.139671    2.602223    0.258231
     18          6           0       -6.125598    3.423827    0.619344
     19          6           0       -6.524854    4.728996    0.664796
     20          6           0       -7.892290    4.930251    0.283521
     21          6           0       -8.229885    3.454136    0.033351
     22          6           0       -5.592648    5.859468    0.991680
     23          6           0       -8.641339    6.032723    0.152409
     24          6           0       -8.583429    7.171061    0.779010
     25          7           0       -9.202176    0.621191   -0.469714
     26          6           0       -9.897323    1.729988   -0.604903
     27          6           0      -11.225876    1.362765   -1.170591
     28          6           0      -11.197645   -0.092262   -1.294419
     29          6           0       -9.881009   -0.487316   -0.911352
     30          6           0      -12.365056    2.298320   -1.274296
     31          6           0      -12.360449   -0.961792   -1.769717
     32          6           0      -12.172163   -1.189540   -3.282907
     33          7           0       -7.197906   -1.418184   -0.156696
     34          6           0       -8.196180   -2.255984   -0.633170
     35          6           0       -7.721165   -3.689808   -0.563615
     36          6           0       -6.462365   -3.643050   -0.025708
     37          6           0       -6.192438   -2.212866    0.117094
     38          6           0       -8.539387   -4.920036   -0.997807
     39          6           0       -5.326791   -4.356260    0.291616
     40          8           0       -5.072007   -5.610379    0.302808
     41          6           0       -4.101106   -3.342233    0.650914
     42          6           0       -3.437708   -3.596056    1.993992
     43          8           0       -3.717116   -2.915878    3.068306
     44          8           0       -2.718777   -4.678635    1.896912
     45          6           0       -2.103727   -5.032980    3.116104
     46          6           0        2.766769   -0.628196   -1.291575
     47          6           0        4.151967   -0.468265   -0.609564
     48          6           0        5.121790    0.425236   -1.066631
     49          6           0        5.117186    1.257911   -2.156506
     50          6           0        6.407274    0.440021   -0.191407
     51          6           0        7.602414   -0.140935   -0.851426
     52          6           0        8.974364   -0.008894   -0.017697
     53          6           0       10.234369   -0.540709   -0.792874
     54          6           0        9.996818   -2.079621   -1.106033
     55          6           0       11.499192   -0.343888   -0.015182
     56          6           0       12.796113   -0.514697   -0.799639
     57          6           0       14.076065   -0.272211    0.125337
     58          6           0       15.421842   -0.165026   -0.586679
     59          6           0       15.734166   -1.634198   -1.058535
     60          6           0       16.475886    0.430292    0.315474
     61          6           0       17.765982    0.530144   -0.197816
     62          6           0       18.817954    1.245229    0.775707
     63          6           0       20.299886    1.312515    0.208681
     64          6           0       20.394894    1.983832   -1.103901
     65          6           0       21.207552    2.105975    1.340185
     66          1           0       -4.102068    3.356038    1.375986
     67          1           0      -10.316305    3.809978   -0.321622
     68          1           0      -10.167772   -2.500445   -1.378463
     69          1           0       -2.832093   -0.774426    2.085773
     70          1           0       -2.145371    1.772285    1.367327
     71          1           0       -2.099065    0.933768    3.618144
     72          1           0       -3.124296    2.485994    3.597212
     73          1           0       -3.750285    0.800564    3.642411
     74          1           0       -2.032478   -1.633897   -0.297230
     75          1           0       -2.105426    0.221784   -0.753964
     76          1           0       -0.426007    0.618515    0.908996
     77          1           0       -0.126633   -0.918197    1.565632
     78          1           0       -5.824942    6.776797    0.324014
     79          1           0       -5.688050    5.899154    2.098715
     80          1           0       -4.508816    5.726801    0.812368
     81          1           0       -9.244087    6.045394   -0.633393
     82          1           0       -9.063003    8.159803    0.610815
     83          1           0       -7.970017    7.206224    1.549871
     84          1           0      -11.876829    3.145369   -1.978355
     85          1           0      -13.228694    1.897968   -1.650202
     86          1           0      -12.453540    2.971053   -0.474276
     87          1           0      -12.465786   -1.916817   -1.108967
     88          1           0      -13.352387   -0.420872   -1.622233
     89          1           0      -12.798221   -1.964673   -3.706614
     90          1           0      -12.359724   -0.213951   -3.791686
     91          1           0      -11.064238   -1.458667   -3.550770
     92          1           0       -8.635272   -4.848631   -2.116222
     93          1           0       -7.956617   -5.775390   -0.889749
     94          1           0       -9.497236   -5.025252   -0.347989
     95          1           0       -3.303702   -3.488074   -0.175295
     96          1           0       -1.411205   -4.190027    3.303254
     97          1           0       -2.868163   -5.460402    3.873580
     98          1           0       -1.502797   -5.773258    2.786282
     99          1           0        2.494458   -1.501693   -1.640556
    100          1           0        2.671841    0.086119   -2.019974
    101          1           0        4.182744   -1.070786    0.252338
    102          1           0        4.139999    1.080240   -2.871678
    103          1           0        5.163045    2.252097   -2.095423
    104          1           0        5.971784    1.052130   -2.856475
    105          1           0        6.413945    1.423452    0.177070
    106          1           0        6.211040   -0.158257    0.660758
    107          1           0        7.561075   -1.214819   -0.941698
    108          1           0        7.714986    0.362787   -1.960481
    109          1           0        9.211570    0.824428    0.461721
    110          1           0        9.020452   -0.816924    0.783670
    111          1           0       10.322300   -0.110699   -1.720220
    112          1           0        9.182290   -2.198405   -1.899605
    113          1           0       10.885784   -2.646994   -1.612168
    114          1           0        9.801808   -2.567908   -0.272533
    115          1           0       11.428442    0.681668    0.379351
    116          1           0       11.506892   -1.045535    0.868507
    117          1           0       12.796368   -1.494268   -1.154287
    118          1           0       12.481872    0.318459   -1.613945
    119          1           0       13.813846    0.656453    0.586292
    120          1           0       13.872401   -1.041511    0.974512
    121          1           0       15.144767    0.558706   -1.477691
    122          1           0       15.994456   -2.388564   -0.149488
    123          1           0       14.964641   -2.207668   -1.642328
    124          1           0       16.750020   -1.691245   -1.773493
    125          1           0       16.155632    1.545317    0.795373
    126          1           0       16.643727   -0.128828    1.205365
    127          1           0       17.961183   -0.534691   -0.379024
    128          1           0       17.818740    0.981523   -1.048410
    129          1           0       18.510851    2.156679    1.170495
    130          1           0       18.913702    0.652552    1.562247
    131          1           0       20.822498    0.273804    0.157791
    132          1           0       20.068212    3.151081   -0.992387
    133          1           0       21.411534    2.143916   -1.333350
    134          1           0       20.042176    1.571766   -1.869070
    135          1           0       21.068447    1.550041    2.383519
    136          1           0       22.186937    2.028241    0.989368
    137          1           0       21.086871    3.079352    1.746751
 ---------------------------------------------------------------------

 SCF Done:  E(RCAM-B3LYP) =  -2932.59616563     A.U. after   18 cycles

 Excitation energies and oscillator strengths:

 Excited State   1:      Singlet-A      2.0402 eV  607.72 nm  f=0.2275  <S**2>=0.000
     240 -> 243       -0.24816
     241 -> 242        0.65286
 This state for optimization and/or second-order correction.
 Total Energy, E(TD-HF/TD-KS) =  -2932.52119094
 Copying the excited state density for this state as the 1-particle RhoCI density.

 The electronic state is 1-A.
 Alpha  occ. eigenvalues --  -46.84832 -19.27605 -19.27140 -19.19843 -19.18923
 Alpha  occ. eigenvalues --  -19.18022 -14.40806 -14.40300 -14.39206 -14.38700
 Alpha  occ. eigenvalues --  -10.39263 -10.37964 -10.34548 -10.31024 -10.30891
 Alpha  occ. eigenvalues --  -10.30626 -10.30052 -10.29549 -10.29371 -10.29061
 Alpha  occ. eigenvalues --  -10.28957 -10.28935 -10.28777 -10.28580 -10.28498
 Alpha  occ. eigenvalues --  -10.28117 -10.27818 -10.27808 -10.27754 -10.27715
 Alpha  occ. eigenvalues --  -10.27557 -10.27534 -10.27527 -10.27510 -10.27435
 Alpha  occ. eigenvalues --  -10.27420 -10.27044 -10.26832 -10.26735 -10.26650
 Alpha  occ. eigenvalues --  -10.26566 -10.26533 -10.26404 -10.25856 -10.25711
 Alpha  occ. eigenvalues --  -10.25675 -10.25615 -10.25601 -10.25437 -10.25422
 Alpha  occ. eigenvalues --  -10.25400 -10.25357 -10.25306 -10.25279 -10.25202
 Alpha  occ. eigenvalues --  -10.25157 -10.25135 -10.24993 -10.24879 -10.24743
 Alpha  occ. eigenvalues --  -10.24703 -10.24346 -10.23522 -10.23137 -10.22555
 Alpha  occ. eigenvalues --   -3.13761  -1.88478  -1.87977  -1.87953  -1.21156
 Alpha  occ. eigenvalues --   -1.19890  -1.06632  -1.06141  -1.05478  -1.05115
 Alpha  occ. eigenvalues --   -1.04192  -1.03472  -1.02437  -0.92515  -0.91396
 Alpha  occ. eigenvalues --   -0.91387  -0.90872  -0.90206  -0.89188  -0.88762
 Alpha  occ. eigenvalues --   -0.87669  -0.87634  -0.87161  -0.86567  -0.86527
 Alpha  occ. eigenvalues --   -0.85219  -0.85011  -0.84142  -0.83731  -0.82996
 Alpha  occ. eigenvalues --   -0.82617  -0.81911  -0.80818  -0.80475  -0.78480
 Alpha  occ. eigenvalues --   -0.77716  -0.76949  -0.76708  -0.76579  -0.75791
 Alpha  occ. eigenvalues --   -0.75193  -0.74702  -0.74359  -0.73818  -0.72627
 Alpha  occ. eigenvalues --   -0.70947  -0.70614  -0.70246  -0.69397  -0.68684
 Alpha  occ. eigenvalues --   -0.68201  -0.67346  -0.65751  -0.65047  -0.65004
 Alpha  occ. eigenvalues --   -0.64266  -0.63874  -0.63843  -0.63568  -0.62441
 Alpha  occ. eigenvalues --   -0.62319  -0.62039  -0.61512  -0.60056  -0.59663
 Alpha  occ. eigenvalues --   -0.58669  -0.58516  -0.57773  -0.57422  -0.56922
 Alpha  occ. eigenvalues --   -0.56235  -0.55832  -0.55225  -0.55039  -0.54952
 Alpha  occ. eigenvalues --   -0.54738  -0.54331  -0.54038  -0.53853  -0.53321
 Alpha  occ. eigenvalues --   -0.52650  -0.52542  -0.52455  -0.52166  -0.52118
 Alpha  occ. eigenvalues --   -0.51819  -0.51809  -0.51639  -0.50996  -0.50878
 Alpha  occ. eigenvalues --   -0.50623  -0.50503  -0.50463  -0.50201  -0.49927
 Alpha  occ. eigenvalues --   -0.49410  -0.49182  -0.49095  -0.48866  -0.48746
 Alpha  occ. eigenvalues --   -0.48279  -0.48193  -0.47612  -0.47448  -0.47223
 Alpha  occ. eigenvalues --   -0.46666  -0.46545  -0.46433  -0.46225  -0.46064
 Alpha  occ. eigenvalues --   -0.45878  -0.45490  -0.45168  -0.45125  -0.44884
 Alpha  occ. eigenvalues --   -0.44778  -0.44548  -0.44528  -0.44220  -0.43967
 Alpha  occ. eigenvalues --   -0.43874  -0.43666  -0.43366  -0.43158  -0.43026
 Alpha  occ. eigenvalues --   -0.42818  -0.42699  -0.42374  -0.42147  -0.41896
 Alpha  occ. eigenvalues --   -0.41743  -0.41617  -0.41436  -0.41247  -0.41146
 Alpha  occ. eigenvalues --   -0.41031  -0.40560  -0.40417  -0.40155  -0.40014
 Alpha  occ. eigenvalues --   -0.39913  -0.39675  -0.39653  -0.39399  -0.38933
 Alpha  occ. eigenvalues --   -0.38638  -0.38577  -0.38430  -0.38259  -0.37784
 Alpha  occ. eigenvalues --   -0.37448  -0.37313  -0.37058  -0.36863  -0.36691
 Alpha  occ. eigenvalues --   -0.36433  -0.36273  -0.35785  -0.35554  -0.35328
 Alpha  occ. eigenvalues --   -0.35205  -0.35052  -0.34664  -0.33962  -0.32797
 Alpha  occ. eigenvalues --   -0.32322  -0.31975  -0.31872  -0.30691  -0.30205
 Alpha  occ. eigenvalues --   -0.29839  -0.28949  -0.27269  -0.26166  -0.22836
 Alpha  occ. eigenvalues --   -0.20781
 Alpha virt. eigenvalues --   -0.06132  -0.03196   0.00992   0.04171   0.04197
 Alpha virt. eigenvalues --    0.05132   0.06050   0.06785   0.07404   0.08023
 Alpha virt. eigenvalues --    0.08880   0.11282   0.11763   0.12002   0.12084

 Mulliken charges:
               1
     1  Mg   0.821911
     2  C    0.029173
     3  C   -0.195129
     4  C   -0.191500
     5  C   -0.109788
     6  N   -0.645330
     7  C    0.294409
     8  C   -0.149105
     9  C   -0.178461
    10  C    0.369506
    11  C   -0.303233
    12  C   -0.150159
    13  C   -0.276449
    14  C    0.598098
    15  O   -0.531962
    16  O   -0.428233
    17  N   -0.727116
    18  C    0.404324
    19  C   -0.033075
    20  C    0.078679
    21  C    0.282701
    22  C   -0.371850
    23  C   -0.097978
    24  C   -0.238407
    25  N   -0.709733
    26  C    0.333644
    27  C   -0.016363
    28  C   -0.001609
    29  C    0.292280
    30  C   -0.361942
    31  C   -0.240025
    32  C   -0.302410
    33  N   -0.699176
    34  C    0.238861
    35  C   -0.025120
    36  C    0.132354
    37  C    0.274698
    38  C   -0.367991
    39  C    0.303264
    40  O   -0.507285
    41  C   -0.294898
    42  C    0.619143
    43  O   -0.531240
    44  O   -0.399250
    45  C   -0.081044
    46  C    0.022043
    47  C   -0.150531
    48  C    0.132395
    49  C   -0.385162
    50  C   -0.216608
    51  C   -0.162067
    52  C   -0.181560
    53  C   -0.066559
    54  C   -0.324671
    55  C   -0.178728
    56  C   -0.173564
    57  C   -0.170254
    58  C   -0.041120
    59  C   -0.312379
    60  C   -0.153789
    61  C   -0.172279
    62  C   -0.173401
    63  C   -0.064753
    64  C   -0.278363
    65  C   -0.333497
    66  H    0.065051
    67  H    0.084611
    68  H    0.090418
    69  H    0.129130
    70  H    0.097142
    71  H    0.105022
    72  H    0.084170
    73  H    0.138937
    74  H    0.099966
    75  H    0.120748
    76  H    0.124852
    77  H    0.114038
    78  H    0.116628
    79  H    0.127985
    80  H    0.114349
    81  H    0.095927
    82  H    0.111400
    83  H    0.099089
    84  H    0.090170
    85  H    0.116264
    86  H    0.134005
    87  H    0.096108
    88  H    0.100029
    89  H    0.104831
    90  H    0.113318
    91  H    0.099300
    92  H    0.126431
    93  H    0.154558
    94  H    0.122616
    95  H    0.151908
    96  H    0.126088
    97  H    0.139805
    98  H    0.131457
    99  H    0.143029
   100  H    0.126919
   101  H    0.102068
   102  H    0.091616
   103  H    0.145186
   104  H    0.125363
   105  H    0.109443
   106  H    0.106688
   107  H    0.118790
   108  H    0.064545
   109  H    0.096167
   110  H    0.082397
   111  H    0.088960
   112  H    0.095897
   113  H    0.083565
   114  H    0.115222
   115  H    0.084989
   116  H    0.072148
   117  H    0.104218
   118  H    0.068018
   119  H    0.094871
   120  H    0.081279
   121  H    0.088964
   122  H    0.088444
   123  H    0.114340
   124  H    0.073327
   125  H    0.043419
   126  H    0.096752
   127  H    0.089470
   128  H    0.099419
   129  H    0.098606
   130  H    0.101375
   131  H    0.080687
   132  H    0.072507
   133  H    0.098426
   134  H    0.112859
   135  H    0.072544
   136  H    0.107310
   137  H    0.111486
 Sum of Mulliken charges =   0.00000

 Dipole moment (field-independent basis, Debye):
    X=              3.7444    Y=              4.6299    Z=              0.3511  Tot=              5.9648
 Quadrupole moment (field-independent basis, Debye-Ang):
   XX=           -342.7401   YY=           -387.0562   ZZ=           -398.0149
   XY=            -24.5576   XZ=              9.0862   YZ=             -1.5272

 Normal termination of Gaussian 09 at Tue Jul  2 16:10:01 2019.
