 Gaussian 16, Revision A.03,
 Gaussian 16:  ES64L-G16RevA.03 25-Dec-2016

 ----------------------------------------------------------------------
 # td=(NStates=1) iop(3/107=0140000000,3/108=0140000000) CAM-B3LYP/6-31
 G(d,p)
 ----------------------------------------------------------------------

 --
 TD
 --
 Symbolic Z-matrix:
 Charge =  0 Multiplicity = 1

                         Standard orientation:
 ---------------------------------------------------------------------
 Center     Atomic      Atomic             Coordinates (Angstroms)
 Number     Number       Type             X           Y           Z
 ---------------------------------------------------------------------
      1         12           0       -7.218512    0.602254    0.119397
      2          6           0       -4.826312   -2.020411    0.541611
      3          6           0       -4.941368    2.850208    1.092933
      4          6           0       -9.418835    3.136740   -0.583582
      5          6           0       -9.444524   -1.671283   -0.960088
      6          7           0       -5.207524    0.494102    0.737401
      7          6           0       -4.422056   -0.676689    0.813704
      8          6           0       -2.984102   -0.374660    1.316049
      9          6           0       -3.163696    1.156808    1.712185
     10          6           0       -4.500187    1.495513    1.123513
     11          6           0       -3.194888    1.400068    3.278397
     12          6           0       -1.986499   -0.637826    0.241747
     13          6           0       -0.463599   -0.243431    0.526089
     14          6           0        0.478817   -0.599679   -0.498474
     15          8           0        0.316398   -0.999904   -1.572244
     16          8           0        1.775469   -0.323441   -0.043184
     17          7           0       -7.137735    2.637544    0.308057
     18          6           0       -6.101228    3.425609    0.692907
     19          6           0       -6.447887    4.782145    0.699195
     20          6           0       -7.762455    4.826214    0.331301
     21          6           0       -8.143603    3.511189   -0.073317
     22          6           0       -5.359529    5.821217    1.142205
     23          6           0       -8.575654    6.004897    0.154566
     24          6           0       -8.528875    7.132143    0.857740
     25          7           0       -9.114309    0.714645   -0.543022
     26          6           0       -9.920043    1.769457   -0.724222
     27          6           0      -11.306134    1.498176   -1.199611
     28          6           0      -11.230859    0.177763   -1.395699
     29          6           0       -9.887552   -0.361894   -0.929998
     30          6           0      -12.385722    2.463876   -1.336320
     31          6           0      -12.318549   -0.704329   -1.851252
     32          6           0      -12.215106   -1.167442   -3.362479
     33          7           0       -7.255263   -1.429448   -0.075490
     34          6           0       -8.325032   -2.237146   -0.501892
     35          6           0       -7.814580   -3.636065   -0.506889
     36          6           0       -6.550606   -3.556167   -0.018964
     37          6           0       -6.231193   -2.171019    0.151711
     38          6           0       -8.570743   -4.909274   -0.806651
     39          6           0       -5.345301   -4.354472    0.290098
     40          8           0       -5.106292   -5.585200    0.193815
     41          6           0       -4.145953   -3.334852    0.585244
     42          6           0       -3.500893   -3.643012    1.869348
     43          8           0       -3.549337   -3.058873    2.947606
     44          8           0       -2.667105   -4.708144    1.721219
     45          6           0       -2.056179   -5.267493    2.920131
     46          6           0        2.755236   -0.726974   -1.118221
     47          6           0        4.144817   -0.574256   -0.481819
     48          6           0        5.120108    0.251790   -0.902855
     49          6           0        5.012443    1.135904   -2.132878
     50          6           0        6.415613    0.254213   -0.146816
     51          6           0        7.625108   -0.291483   -0.947920
     52          6           0        8.923890   -0.279279   -0.088918
     53          6           0       10.206239   -0.701966   -0.663130
     54          6           0       10.186696   -2.205658   -1.231528
     55          6           0       11.513298   -0.353325    0.172100
     56          6           0       12.788391   -0.591721   -0.702901
     57          6           0       14.014884   -0.146421    0.101157
     58          6           0       15.378501   -0.067238   -0.516859
     59          6           0       15.800498   -1.555801   -1.017014
     60          6           0       16.550775    0.491449    0.364108
     61          6           0       17.869018    0.694746   -0.346087
     62          6           0       18.915640    1.302498    0.651894
     63          6           0       20.340515    1.503459    0.217761
     64          6           0       20.480375    2.041066   -1.176216
     65          6           0       21.153704    2.198390    1.244479
     66          1           0       -4.157701    3.549075    1.632355
     67          1           0      -10.276032    3.836326   -0.767120
     68          1           0      -10.281995   -2.506085   -1.173196
     69          1           0       -2.693755   -1.025543    2.171870
     70          1           0       -2.429730    1.717571    1.457394
     71          1           0       -2.028134    1.139913    3.535399
     72          1           0       -3.439851    2.388462    3.573395
     73          1           0       -3.862732    0.648982    3.636705
     74          1           0       -2.077680   -1.681322   -0.270232
     75          1           0       -2.341784   -0.047470   -0.725846
     76          1           0       -0.557346    0.754076    0.953632
     77          1           0       -0.203858   -0.919093    1.409418
     78          1           0       -5.809074    6.764589    0.662342
     79          1           0       -5.292465    5.949467    2.140994
     80          1           0       -4.494744    5.424603    0.669428
     81          1           0       -9.409321    5.801242   -0.498035
     82          1           0       -9.314828    7.932038    0.537451
     83          1           0       -7.585664    7.362006    1.295054
     84          1           0      -12.315257    3.362184   -2.172691
     85          1           0      -13.381186    2.021125   -1.733165
     86          1           0      -12.654982    2.784963   -0.304677
     87          1           0      -12.285034   -1.587714   -1.415830
     88          1           0      -13.301271   -0.406904   -1.907988
     89          1           0      -13.210798   -1.537164   -3.719315
     90          1           0      -12.154081   -0.381334   -4.076926
     91          1           0      -11.354323   -1.929788   -3.715224
     92          1           0       -8.916706   -4.853220   -1.745268
     93          1           0       -7.879527   -5.868556   -0.763572
     94          1           0       -9.524088   -4.979890   -0.104588
     95          1           0       -3.400016   -3.526457   -0.165418
     96          1           0       -1.533069   -4.613694    3.349641
     97          1           0       -2.888771   -5.535264    3.674745
     98          1           0       -1.556393   -6.226992    2.609307
     99          1           0        2.683720   -1.846573   -1.245915
    100          1           0        2.737508   -0.147843   -2.101275
    101          1           0        4.176128   -1.195137    0.247908
    102          1           0        4.026576    1.103234   -2.504351
    103          1           0        5.423754    2.078262   -2.095000
    104          1           0        5.606665    0.763227   -2.883326
    105          1           0        6.798404    1.372907   -0.069927
    106          1           0        6.227481   -0.350865    0.672810
    107          1           0        7.373969   -1.301951   -1.335686
    108          1           0        7.833478    0.184299   -2.003860
    109          1           0        9.013246    0.855125   -0.003198
    110          1           0        8.818564   -0.925728    0.812909
    111          1           0       10.296428   -0.064697   -1.618435
    112          1           0        9.292709   -2.367874   -1.701790
    113          1           0       11.028628   -2.415540   -2.274435
    114          1           0       10.244800   -3.069665   -0.425590
    115          1           0       11.222618    0.690010    0.461936
    116          1           0       11.682713   -0.857102    1.152788
    117          1           0       12.713412   -1.638043   -0.946306
    118          1           0       12.612717    0.021490   -1.536847
    119          1           0       13.644868    0.848639    0.345500
    120          1           0       13.985321   -0.747121    1.220518
    121          1           0       15.336181    0.576994   -1.304021
    122          1           0       15.987796   -2.030406   -0.040391
    123          1           0       15.081438   -2.170038   -1.593054
    124          1           0       16.706360   -1.308514   -1.513874
    125          1           0       16.256172    1.441908    0.794800
    126          1           0       16.817475   -0.258701    1.185951
    127          1           0       18.081100   -0.404729   -0.786129
    128          1           0       17.721549    1.184162   -1.133690
    129          1           0       18.458998    2.297620    1.230656
    130          1           0       18.802756    0.808173    1.544025
    131          1           0       20.589547    0.351044    0.115026
    132          1           0       20.048029    3.105929   -1.302277
    133          1           0       21.536939    2.108460   -1.662555
    134          1           0       19.482262    1.527821   -2.004593
    135          1           0       21.178592    1.763834    2.160597
    136          1           0       22.265709    2.541880    1.136248
    137          1           0       20.661539    3.339270    1.338280
 ---------------------------------------------------------------------

 SCF Done:  E(RCAM-B3LYP) =  -2933.43643120     A.U. after   16 cycles

 Excitation energies and oscillator strengths:

 Excited State   1:      Singlet-A      2.0785 eV  596.50 nm  f=0.2399  <S**2>=0.000
     240 -> 243        0.22814
     241 -> 242        0.66516
 This state for optimization and/or second-order correction.
 Total Energy, E(TD-HF/TD-DFT) =  -2933.36004638
 Copying the excited state density for this state as the 1-particle RhoCI density.

 The electronic state is 1-A.
 Alpha  occ. eigenvalues --  -46.80129 -19.21120 -19.20399 -19.17143 -19.16360
 Alpha  occ. eigenvalues --  -19.16339 -14.38243 -14.36055 -14.35633 -14.34545
 Alpha  occ. eigenvalues --  -10.34338 -10.33807 -10.31313 -10.27297 -10.27035
 Alpha  occ. eigenvalues --  -10.26488 -10.26040 -10.25398 -10.25164 -10.25120
 Alpha  occ. eigenvalues --  -10.24769 -10.24514 -10.24474 -10.24291 -10.24066
 Alpha  occ. eigenvalues --  -10.24034 -10.23887 -10.23739 -10.23729 -10.23509
 Alpha  occ. eigenvalues --  -10.23509 -10.23274 -10.23103 -10.22930 -10.22741
 Alpha  occ. eigenvalues --  -10.22586 -10.22567 -10.22538 -10.22459 -10.22343
 Alpha  occ. eigenvalues --  -10.22328 -10.22317 -10.22272 -10.22046 -10.22005
 Alpha  occ. eigenvalues --  -10.22000 -10.21961 -10.21831 -10.21728 -10.21686
 Alpha  occ. eigenvalues --  -10.21645 -10.21617 -10.21603 -10.21550 -10.21461
 Alpha  occ. eigenvalues --  -10.21243 -10.21035 -10.20930 -10.20759 -10.20581
 Alpha  occ. eigenvalues --  -10.20365 -10.20135 -10.19785 -10.19784 -10.19680
 Alpha  occ. eigenvalues --   -3.08813  -1.83753  -1.83301  -1.83207  -1.13483
 Alpha  occ. eigenvalues --   -1.12007  -1.03950  -1.03678  -1.02910  -1.00620
 Alpha  occ. eigenvalues --   -0.99788  -0.98998  -0.98222  -0.87806  -0.86034
 Alpha  occ. eigenvalues --   -0.85475  -0.85075  -0.84769  -0.84413  -0.84349
 Alpha  occ. eigenvalues --   -0.83648  -0.83193  -0.82672  -0.82477  -0.81357
 Alpha  occ. eigenvalues --   -0.80322  -0.79851  -0.79574  -0.78064  -0.77908
 Alpha  occ. eigenvalues --   -0.76981  -0.76304  -0.75859  -0.75234  -0.73889
 Alpha  occ. eigenvalues --   -0.73486  -0.72863  -0.72394  -0.71396  -0.70922
 Alpha  occ. eigenvalues --   -0.70407  -0.69556  -0.69458  -0.68396  -0.67777
 Alpha  occ. eigenvalues --   -0.67537  -0.66446  -0.65973  -0.65032  -0.64286
 Alpha  occ. eigenvalues --   -0.62709  -0.62602  -0.61418  -0.60641  -0.60568
 Alpha  occ. eigenvalues --   -0.60060  -0.59012  -0.58042  -0.57904  -0.57700
 Alpha  occ. eigenvalues --   -0.57631  -0.56856  -0.56797  -0.56496  -0.55717
 Alpha  occ. eigenvalues --   -0.54987  -0.54548  -0.54333  -0.53986  -0.53166
 Alpha  occ. eigenvalues --   -0.52490  -0.52095  -0.51750  -0.51498  -0.51078
 Alpha  occ. eigenvalues --   -0.50556  -0.50251  -0.50146  -0.49924  -0.49565
 Alpha  occ. eigenvalues --   -0.49522  -0.49029  -0.48431  -0.48419  -0.48041
 Alpha  occ. eigenvalues --   -0.47820  -0.47706  -0.47445  -0.47339  -0.47186
 Alpha  occ. eigenvalues --   -0.46862  -0.46756  -0.46586  -0.45870  -0.45764
 Alpha  occ. eigenvalues --   -0.45636  -0.45243  -0.44885  -0.44770  -0.44585
 Alpha  occ. eigenvalues --   -0.44516  -0.44344  -0.44111  -0.43836  -0.43655
 Alpha  occ. eigenvalues --   -0.43586  -0.43095  -0.43088  -0.42894  -0.42607
 Alpha  occ. eigenvalues --   -0.42522  -0.42286  -0.42132  -0.41831  -0.41471
 Alpha  occ. eigenvalues --   -0.41337  -0.41141  -0.40853  -0.40775  -0.40403
 Alpha  occ. eigenvalues --   -0.40250  -0.40079  -0.39993  -0.39742  -0.39631
 Alpha  occ. eigenvalues --   -0.39338  -0.39271  -0.39159  -0.38940  -0.38859
 Alpha  occ. eigenvalues --   -0.38735  -0.38653  -0.38501  -0.38262  -0.38199
 Alpha  occ. eigenvalues --   -0.37947  -0.37923  -0.37629  -0.37495  -0.37144
 Alpha  occ. eigenvalues --   -0.36960  -0.36756  -0.36572  -0.36351  -0.36189
 Alpha  occ. eigenvalues --   -0.35716  -0.35575  -0.35072  -0.34929  -0.34443
 Alpha  occ. eigenvalues --   -0.34100  -0.34047  -0.33794  -0.33736  -0.33573
 Alpha  occ. eigenvalues --   -0.33438  -0.33069  -0.32910  -0.32648  -0.32505
 Alpha  occ. eigenvalues --   -0.32096  -0.31795  -0.31111  -0.31063  -0.30825
 Alpha  occ. eigenvalues --   -0.30563  -0.30111  -0.29887  -0.28346  -0.27713
 Alpha  occ. eigenvalues --   -0.27088  -0.26854  -0.26531  -0.25100  -0.21932
 Alpha  occ. eigenvalues --   -0.19824
 Alpha virt. eigenvalues --   -0.06716  -0.03910  -0.00521   0.02236   0.03571
 Alpha virt. eigenvalues --    0.04274   0.04370   0.04534   0.05045   0.05255
 Alpha virt. eigenvalues --    0.06111   0.08468   0.08736   0.08769   0.09050

 Mulliken charges:
               1
     1  Mg   0.812663
     2  C    0.093285
     3  C   -0.260026
     4  C   -0.191437
     5  C   -0.188193
     6  N   -0.631624
     7  C    0.261929
     8  C   -0.155907
     9  C   -0.138827
    10  C    0.389679
    11  C   -0.300991
    12  C   -0.185135
    13  C   -0.274827
    14  C    0.626521
    15  O   -0.428211
    16  O   -0.506587
    17  N   -0.712037
    18  C    0.386002
    19  C   -0.000459
    20  C   -0.003793
    21  C    0.308182
    22  C   -0.350009
    23  C   -0.058467
    24  C   -0.244332
    25  N   -0.670499
    26  C    0.256461
    27  C    0.095791
    28  C    0.037768
    29  C    0.287664
    30  C   -0.403367
    31  C   -0.237889
    32  C   -0.340899
    33  N   -0.743061
    34  C    0.263396
    35  C   -0.002327
    36  C    0.044775
    37  C    0.331315
    38  C   -0.377657
    39  C    0.351718
    40  O   -0.477411
    41  C   -0.323190
    42  C    0.627859
    43  O   -0.489051
    44  O   -0.460893
    45  C   -0.069032
    46  C    0.006504
    47  C   -0.125496
    48  C    0.141315
    49  C   -0.374387
    50  C   -0.204271
    51  C   -0.199642
    52  C   -0.150205
    53  C   -0.057064
    54  C   -0.299660
    55  C   -0.180243
    56  C   -0.171372
    57  C   -0.149510
    58  C   -0.068634
    59  C   -0.319896
    60  C   -0.189194
    61  C   -0.158295
    62  C   -0.164407
    63  C   -0.017643
    64  C   -0.281368
    65  C   -0.303294
    66  H    0.058491
    67  H    0.086619
    68  H    0.080010
    69  H    0.131948
    70  H    0.099543
    71  H    0.081052
    72  H    0.121200
    73  H    0.138836
    74  H    0.105789
    75  H    0.093431
    76  H    0.146430
    77  H    0.136953
    78  H    0.106870
    79  H    0.140904
    80  H    0.129182
    81  H    0.081450
    82  H    0.094880
    83  H    0.091738
    84  H    0.108897
    85  H    0.110355
    86  H    0.138054
    87  H    0.119874
    88  H    0.110995
    89  H    0.093867
    90  H    0.115463
    91  H    0.091777
    92  H    0.137886
    93  H    0.138652
    94  H    0.112819
    95  H    0.178611
    96  H    0.136791
    97  H    0.117067
    98  H    0.126400
    99  H    0.117562
   100  H    0.110622
   101  H    0.077175
   102  H    0.109950
   103  H    0.119330
   104  H    0.129981
   105  H    0.086617
   106  H    0.107994
   107  H    0.091593
   108  H    0.075688
   109  H    0.087489
   110  H    0.092553
   111  H    0.069531
   112  H    0.116894
   113  H    0.050215
   114  H    0.089340
   115  H    0.080336
   116  H    0.087238
   117  H    0.110038
   118  H    0.098634
   119  H    0.087456
   120  H    0.043473
   121  H    0.089353
   122  H    0.103541
   123  H    0.103926
   124  H    0.104126
   125  H    0.092684
   126  H    0.081750
   127  H    0.073358
   128  H    0.106926
   129  H    0.044469
   130  H    0.107564
   131  H    0.082626
   132  H    0.094606
   133  H    0.103727
   134  H    0.040723
   135  H    0.120063
   136  H    0.094958
   137  H    0.070949
 Sum of Mulliken charges =  -0.00000

 Dipole moment (field-independent basis, Debye):
    X=             -0.5921    Y=              3.8729    Z=              0.0888  Tot=              3.9189
 Quadrupole moment (field-independent basis, Debye-Ang):
   XX=           -340.7948   YY=           -399.4645   ZZ=           -397.0278
   XY=            -13.0839   XZ=             16.7733   YZ=             -4.4385

 Normal termination of Gaussian 16 at Sun Sep 22 08:18:57 2019.
