 Gaussian 16, Revision A.03,
 Gaussian 16:  ES64L-G16RevA.03 25-Dec-2016

 ----------------------------------------------------------------------
 # td=(NStates=1) iop(3/107=0140000000,3/108=0140000000) CAM-B3LYP/6-31
 G(d,p)
 ----------------------------------------------------------------------

 --
 TD
 --
 Symbolic Z-matrix:
 Charge =  0 Multiplicity = 1

                         Standard orientation:
 ---------------------------------------------------------------------
 Center     Atomic      Atomic             Coordinates (Angstroms)
 Number     Number       Type             X           Y           Z
 ---------------------------------------------------------------------
      1         12           0       -7.116030    0.647421    0.024055
      2          6           0       -4.783254   -1.947159    0.458306
      3          6           0       -4.746197    2.717785    1.171646
      4          6           0       -9.369510    3.164490   -0.454388
      5          6           0       -9.543931   -1.648192   -1.027772
      6          7           0       -5.113258    0.321544    0.684119
      7          6           0       -4.302892   -0.708299    0.757062
      8          6           0       -2.915230   -0.425603    1.214708
      9          6           0       -3.088356    1.038917    1.765338
     10          6           0       -4.396332    1.413100    1.208649
     11          6           0       -3.015905    1.124961    3.371879
     12          6           0       -1.879819   -0.692387    0.074556
     13          6           0       -0.471421   -0.526125    0.529211
     14          6           0        0.490052   -0.719658   -0.544995
     15          8           0        0.221784   -1.087864   -1.626362
     16          8           0        1.803705   -0.469179   -0.128978
     17          7           0       -7.119336    2.632608    0.391887
     18          6           0       -6.020272    3.396019    0.868582
     19          6           0       -6.328860    4.808753    0.866509
     20          6           0       -7.635771    4.886705    0.385922
     21          6           0       -8.030404    3.500540    0.010610
     22          6           0       -5.414853    5.887057    1.236933
     23          6           0       -8.595976    6.018151    0.236497
     24          6           0       -8.578081    7.185929    0.853194
     25          7           0       -9.086528    0.737878   -0.652173
     26          6           0       -9.824121    1.824518   -0.721562
     27          6           0      -11.190328    1.483212   -1.231856
     28          6           0      -11.195420    0.104571   -1.385634
     29          6           0       -9.958637   -0.261527   -0.954515
     30          6           0      -12.330097    2.489319   -1.524162
     31          6           0      -12.359114   -0.813473   -1.928143
     32          6           0      -12.081498   -1.084991   -3.355423
     33          7           0       -7.206809   -1.343923   -0.226203
     34          6           0       -8.287899   -2.166294   -0.607184
     35          6           0       -7.857944   -3.601214   -0.467743
     36          6           0       -6.536628   -3.534302   -0.119946
     37          6           0       -6.176157   -2.172580    0.127006
     38          6           0       -8.679891   -4.756899   -0.889453
     39          6           0       -5.343446   -4.306674    0.174989
     40          8           0       -5.291364   -5.509753    0.407934
     41          6           0       -4.186996   -3.397028    0.507624
     42          6           0       -3.681385   -3.713473    1.899828
     43          8           0       -3.959429   -3.139462    2.980498
     44          8           0       -2.784730   -4.701713    1.835614
     45          6           0       -2.208568   -5.115241    3.128227
     46          6           0        2.870174   -0.799842   -1.113135
     47          6           0        4.164609   -0.607842   -0.434010
     48          6           0        5.167038    0.268853   -0.907975
     49          6           0        5.073073    1.126959   -2.123261
     50          6           0        6.457438    0.358972   -0.175406
     51          6           0        7.598569   -0.244529   -0.973235
     52          6           0        8.921323   -0.194918   -0.121928
     53          6           0       10.192402   -0.588522   -0.876114
     54          6           0       10.247860   -1.966347   -1.489254
     55          6           0       11.407859   -0.373377    0.042778
     56          6           0       12.793395   -0.401385   -0.679745
     57          6           0       13.942828   -0.091749    0.149708
     58          6           0       15.301935   -0.169333   -0.460674
     59          6           0       15.662602   -1.541785   -1.009919
     60          6           0       16.388864    0.399120    0.520273
     61          6           0       17.784025    0.528160   -0.169051
     62          6           0       18.805221    1.306408    0.795663
     63          6           0       20.237080    1.394680    0.107902
     64          6           0       20.271034    2.323619   -1.104453
     65          6           0       21.208094    1.899305    1.113516
     66          1           0       -4.128090    3.512276    1.719556
     67          1           0      -10.083985    4.045914   -0.366013
     68          1           0      -10.236088   -2.446924   -1.330142
     69          1           0       -2.807163   -1.052425    2.035905
     70          1           0       -2.384039    1.704722    1.375751
     71          1           0       -1.994041    0.920919    3.659684
     72          1           0       -3.106564    2.156945    3.540146
     73          1           0       -3.855842    0.655544    3.844587
     74          1           0       -1.993967   -1.914927   -0.218622
     75          1           0       -2.218871    0.006534   -0.888348
     76          1           0       -0.561286    0.674546    1.019966
     77          1           0       -0.016140   -1.058104    1.361404
     78          1           0       -5.963370    6.941245    0.846589
     79          1           0       -5.243679    5.950912    2.383467
     80          1           0       -4.521417    5.577035    0.981362
     81          1           0       -9.411051    5.840728   -0.523786
     82          1           0       -9.164690    7.984357    0.726987
     83          1           0       -7.873046    7.462297    1.485844
     84          1           0      -12.158821    3.263637   -2.260424
     85          1           0      -13.239242    2.071621   -1.852192
     86          1           0      -12.681854    3.167510   -0.627846
     87          1           0      -12.412853   -1.652315   -1.408271
     88          1           0      -13.239452   -0.271511   -1.937275
     89          1           0      -13.084912   -1.509198   -3.630626
     90          1           0      -11.992839   -0.084936   -4.051348
     91          1           0      -11.273095   -1.673594   -3.587015
     92          1           0       -9.042429   -4.739815   -1.934722
     93          1           0       -7.870305   -5.574737   -0.780690
     94          1           0       -9.402802   -5.096548   -0.039125
     95          1           0       -3.357688   -3.548739   -0.204859
     96          1           0       -1.741715   -4.354782    3.720657
     97          1           0       -2.853956   -5.530778    3.938224
     98          1           0       -1.372999   -5.790216    2.814584
     99          1           0        2.640038   -1.840358   -1.347137
    100          1           0        2.775119   -0.155032   -2.128492
    101          1           0        4.157854   -1.258399    0.369713
    102          1           0        4.061619    0.816144   -2.708733
    103          1           0        5.136057    2.337603   -1.868020
    104          1           0        6.001268    1.016716   -2.884694
    105          1           0        6.855914    1.644715   -0.109671
    106          1           0        6.512552    0.045971    0.762407
    107          1           0        7.341090   -1.185785   -1.136666
    108          1           0        7.510448    0.141253   -1.846489
    109          1           0        9.153955    0.883723    0.068198
    110          1           0        8.759266   -0.775550    0.802092
    111          1           0       10.494128    0.029330   -1.697084
    112          1           0        9.313213   -2.143486   -2.010411
    113          1           0       11.031121   -2.207052   -2.292483
    114          1           0       10.279487   -2.548867   -0.535137
    115          1           0       11.183597    0.469838    0.621107
    116          1           0       11.474720   -1.147791    0.884946
    117          1           0       12.872420   -1.359957   -1.124571
    118          1           0       12.762637    0.599882   -1.342854
    119          1           0       13.904064    0.858600    0.542995
    120          1           0       14.062749   -0.814183    0.964150
    121          1           0       15.208640    0.677527   -1.357216
    122          1           0       15.756592   -2.197204   -0.138095
    123          1           0       14.825736   -1.999494   -1.562114
    124          1           0       16.563731   -1.452857   -1.734450
    125          1           0       16.302657    1.437980    0.769402
    126          1           0       16.625949   -0.297561    1.426518
    127          1           0       18.232535   -0.438448   -0.425637
    128          1           0       17.726255    1.008927   -1.089301
    129          1           0       18.379555    2.274362    0.862800
    130          1           0       18.854927    0.718614    1.781732
    131          1           0       20.506532    0.463504   -0.063457
    132          1           0       19.880700    3.322066   -0.903953
    133          1           0       21.263437    2.165508   -1.470784
    134          1           0       19.606499    1.934758   -1.924178
    135          1           0       21.474115    1.149653    1.845318
    136          1           0       22.193321    1.965865    0.629173
    137          1           0       20.936288    2.804119    1.778864
 ---------------------------------------------------------------------

 SCF Done:  E(RCAM-B3LYP) =  -2933.51796169     A.U. after   16 cycles

 Excitation energies and oscillator strengths:

 Excited State   1:      Singlet-A      1.9852 eV  624.55 nm  f=0.2468  <S**2>=0.000
     240 -> 243        0.23858
     241 -> 242        0.66105
 This state for optimization and/or second-order correction.
 Total Energy, E(TD-HF/TD-DFT) =  -2933.44500826
 Copying the excited state density for this state as the 1-particle RhoCI density.

 The electronic state is 1-A.
 Alpha  occ. eigenvalues --  -46.79956 -19.23065 -19.20400 -19.16984 -19.16396
 Alpha  occ. eigenvalues --  -19.15709 -14.37099 -14.35405 -14.34992 -14.34914
 Alpha  occ. eigenvalues --  -10.34777 -10.33795 -10.30083 -10.27614 -10.27256
 Alpha  occ. eigenvalues --  -10.25681 -10.25668 -10.25499 -10.25215 -10.25174
 Alpha  occ. eigenvalues --  -10.24986 -10.24782 -10.24736 -10.24712 -10.24652
 Alpha  occ. eigenvalues --  -10.24585 -10.24508 -10.24049 -10.24014 -10.23640
 Alpha  occ. eigenvalues --  -10.23291 -10.23138 -10.22778 -10.22676 -10.22600
 Alpha  occ. eigenvalues --  -10.22452 -10.22438 -10.22408 -10.22292 -10.22274
 Alpha  occ. eigenvalues --  -10.22249 -10.22216 -10.22192 -10.22190 -10.22061
 Alpha  occ. eigenvalues --  -10.21788 -10.21128 -10.21113 -10.21070 -10.21024
 Alpha  occ. eigenvalues --  -10.21008 -10.20998 -10.20878 -10.20782 -10.20774
 Alpha  occ. eigenvalues --  -10.20697 -10.20272 -10.20114 -10.20073 -10.19961
 Alpha  occ. eigenvalues --  -10.19598 -10.19486 -10.19365 -10.18882 -10.18644
 Alpha  occ. eigenvalues --   -3.08550  -1.83493  -1.83023  -1.82955  -1.12680
 Alpha  occ. eigenvalues --   -1.12449  -1.05618  -1.04092  -1.02257  -0.99878
 Alpha  occ. eigenvalues --   -0.99620  -0.97940  -0.96820  -0.86942  -0.86754
 Alpha  occ. eigenvalues --   -0.85778  -0.85054  -0.84468  -0.84308  -0.83822
 Alpha  occ. eigenvalues --   -0.83672  -0.83538  -0.81936  -0.81659  -0.81045
 Alpha  occ. eigenvalues --   -0.80390  -0.79675  -0.78825  -0.78797  -0.78205
 Alpha  occ. eigenvalues --   -0.76620  -0.76022  -0.75543  -0.75115  -0.73790
 Alpha  occ. eigenvalues --   -0.73479  -0.72923  -0.72019  -0.71000  -0.70940
 Alpha  occ. eigenvalues --   -0.70581  -0.70436  -0.69377  -0.68635  -0.67487
 Alpha  occ. eigenvalues --   -0.67153  -0.66064  -0.65269  -0.64530  -0.63874
 Alpha  occ. eigenvalues --   -0.63054  -0.62859  -0.61441  -0.60508  -0.60447
 Alpha  occ. eigenvalues --   -0.59681  -0.59581  -0.58734  -0.58270  -0.57196
 Alpha  occ. eigenvalues --   -0.56786  -0.56727  -0.56403  -0.55887  -0.55287
 Alpha  occ. eigenvalues --   -0.54715  -0.54248  -0.53817  -0.53297  -0.53008
 Alpha  occ. eigenvalues --   -0.52656  -0.52072  -0.51628  -0.51369  -0.51077
 Alpha  occ. eigenvalues --   -0.50704  -0.50289  -0.50221  -0.49765  -0.49607
 Alpha  occ. eigenvalues --   -0.49469  -0.49124  -0.48804  -0.48525  -0.48197
 Alpha  occ. eigenvalues --   -0.47694  -0.47404  -0.47173  -0.46740  -0.46607
 Alpha  occ. eigenvalues --   -0.46268  -0.46163  -0.46074  -0.45757  -0.45676
 Alpha  occ. eigenvalues --   -0.45541  -0.45490  -0.45034  -0.44937  -0.44870
 Alpha  occ. eigenvalues --   -0.44479  -0.44252  -0.44045  -0.43890  -0.43806
 Alpha  occ. eigenvalues --   -0.43604  -0.42843  -0.42744  -0.42485  -0.42326
 Alpha  occ. eigenvalues --   -0.42156  -0.42117  -0.42042  -0.41920  -0.41515
 Alpha  occ. eigenvalues --   -0.41456  -0.41201  -0.41009  -0.40796  -0.40531
 Alpha  occ. eigenvalues --   -0.40311  -0.40289  -0.40087  -0.39938  -0.39900
 Alpha  occ. eigenvalues --   -0.39723  -0.39546  -0.39396  -0.39161  -0.39141
 Alpha  occ. eigenvalues --   -0.39012  -0.38940  -0.38699  -0.38168  -0.37871
 Alpha  occ. eigenvalues --   -0.37777  -0.37670  -0.37541  -0.37438  -0.36949
 Alpha  occ. eigenvalues --   -0.36775  -0.36660  -0.36603  -0.36586  -0.36010
 Alpha  occ. eigenvalues --   -0.35889  -0.35547  -0.35030  -0.35014  -0.34734
 Alpha  occ. eigenvalues --   -0.34515  -0.34349  -0.33983  -0.33544  -0.33535
 Alpha  occ. eigenvalues --   -0.33354  -0.32897  -0.32769  -0.32704  -0.32524
 Alpha  occ. eigenvalues --   -0.32484  -0.31841  -0.31483  -0.30861  -0.30594
 Alpha  occ. eigenvalues --   -0.30284  -0.29906  -0.29244  -0.28441  -0.27445
 Alpha  occ. eigenvalues --   -0.26618  -0.26487  -0.25638  -0.25016  -0.21172
 Alpha  occ. eigenvalues --   -0.19719
 Alpha virt. eigenvalues --   -0.07004  -0.03957   0.00150   0.01342   0.02350
 Alpha virt. eigenvalues --    0.03337   0.03584   0.04745   0.05169   0.06031
 Alpha virt. eigenvalues --    0.06775   0.08859   0.09149   0.09474   0.10280

 Mulliken charges:
               1
     1  Mg   0.814082
     2  C    0.015393
     3  C   -0.204940
     4  C   -0.173014
     5  C   -0.184314
     6  N   -0.632613
     7  C    0.330402
     8  C   -0.135755
     9  C   -0.175964
    10  C    0.350395
    11  C   -0.313069
    12  C   -0.148676
    13  C   -0.244752
    14  C    0.621050
    15  O   -0.438449
    16  O   -0.516895
    17  N   -0.679239
    18  C    0.238121
    19  C    0.044210
    20  C    0.001927
    21  C    0.299288
    22  C   -0.364358
    23  C   -0.075876
    24  C   -0.241998
    25  N   -0.663450
    26  C    0.310471
    27  C   -0.010268
    28  C    0.051186
    29  C    0.267675
    30  C   -0.394700
    31  C   -0.194332
    32  C   -0.300795
    33  N   -0.714699
    34  C    0.267151
    35  C    0.001601
    36  C    0.067083
    37  C    0.289115
    38  C   -0.405179
    39  C    0.348692
    40  O   -0.462389
    41  C   -0.307979
    42  C    0.643920
    43  O   -0.504131
    44  O   -0.428016
    45  C   -0.100277
    46  C    0.012113
    47  C   -0.102252
    48  C    0.133019
    49  C   -0.348990
    50  C   -0.193647
    51  C   -0.160137
    52  C   -0.180350
    53  C   -0.061374
    54  C   -0.307223
    55  C   -0.176269
    56  C   -0.160729
    57  C   -0.146086
    58  C   -0.048215
    59  C   -0.312047
    60  C   -0.160091
    61  C   -0.205290
    62  C   -0.179375
    63  C   -0.041249
    64  C   -0.306045
    65  C   -0.311069
    66  H    0.063766
    67  H    0.096692
    68  H    0.084478
    69  H    0.129824
    70  H    0.107252
    71  H    0.114180
    72  H    0.113994
    73  H    0.137011
    74  H    0.084527
    75  H    0.113086
    76  H    0.096914
    77  H    0.147093
    78  H    0.105273
    79  H    0.108504
    80  H    0.130049
    81  H    0.087077
    82  H    0.101945
    83  H    0.094222
    84  H    0.123828
    85  H    0.116975
    86  H    0.101311
    87  H    0.116766
    88  H    0.111794
    89  H    0.093556
    90  H    0.087009
    91  H    0.123040
    92  H    0.132557
    93  H    0.140772
    94  H    0.126628
    95  H    0.161129
    96  H    0.132501
    97  H    0.139740
    98  H    0.120670
    99  H    0.121017
   100  H    0.094853
   101  H    0.096729
   102  H    0.096387
   103  H    0.110480
   104  H    0.111958
   105  H    0.028020
   106  H    0.102608
   107  H    0.108659
   108  H    0.093538
   109  H    0.099583
   110  H    0.096476
   111  H    0.088581
   112  H    0.096543
   113  H    0.099348
   114  H    0.093060
   115  H    0.085630
   116  H    0.063183
   117  H    0.101407
   118  H    0.066993
   119  H    0.094605
   120  H    0.071426
   121  H    0.035739
   122  H    0.103315
   123  H    0.100575
   124  H    0.103536
   125  H    0.095148
   126  H    0.077626
   127  H    0.084772
   128  H    0.097260
   129  H    0.092195
   130  H    0.079592
   131  H    0.095287
   132  H    0.109275
   133  H    0.106290
   134  H    0.089555
   135  H    0.095067
   136  H    0.087354
   137  H    0.091837
 Sum of Mulliken charges =  -0.00000

 Dipole moment (field-independent basis, Debye):
    X=              1.9164    Y=              2.9976    Z=              0.1380  Tot=              3.5605
 Quadrupole moment (field-independent basis, Debye-Ang):
   XX=           -347.1334   YY=           -395.9091   ZZ=           -395.3063
   XY=            -22.5287   XZ=             12.5592   YZ=              0.1811

 Normal termination of Gaussian 16 at Tue Sep 17 10:45:09 2019.
