 Gaussian 16, Revision A.03,
 Gaussian 16:  ES64L-G16RevA.03 25-Dec-2016

 -------------------------------------
 # td=(NStates=1) CAM-B3LYP/6-31G(d,p)
 -------------------------------------

 --
 TD
 --
 Symbolic Z-matrix:
 Charge =  0 Multiplicity = 1

                         Standard orientation:
 ---------------------------------------------------------------------
 Center     Atomic      Atomic             Coordinates (Angstroms)
 Number     Number       Type             X           Y           Z
 ---------------------------------------------------------------------
      1         12           0       -7.104539    0.645643    0.088611
      2          6           0       -4.871914   -1.905890    0.504717
      3          6           0       -4.928159    2.808400    1.196717
      4          6           0       -9.466991    3.057070   -0.449810
      5          6           0       -9.556924   -1.782692   -0.944635
      6          7           0       -5.075863    0.438189    0.733564
      7          6           0       -4.315110   -0.654705    0.954788
      8          6           0       -2.940209   -0.393255    1.393246
      9          6           0       -3.100998    1.088143    1.796012
     10          6           0       -4.361285    1.542038    1.156176
     11          6           0       -2.917398    1.318218    3.351387
     12          6           0       -1.912955   -0.570441    0.187080
     13          6           0       -0.465946   -0.370007    0.594273
     14          6           0        0.567010   -0.696796   -0.571149
     15          8           0        0.266524   -1.198889   -1.646302
     16          8           0        1.841866   -0.336177   -0.211807
     17          7           0       -7.121627    2.582079    0.302060
     18          6           0       -6.111385    3.321806    0.861699
     19          6           0       -6.532808    4.784903    0.805712
     20          6           0       -7.719710    4.803226    0.258860
     21          6           0       -8.175841    3.492529   -0.092054
     22          6           0       -5.586277    5.725140    1.256567
     23          6           0       -8.515107    6.010744    0.042937
     24          6           0       -8.467013    7.196410    0.674071
     25          7           0       -9.141528    0.639506   -0.587343
     26          6           0       -9.800829    1.723998   -0.693918
     27          6           0      -11.165545    1.419996   -1.142541
     28          6           0      -11.304340    0.034400   -1.311681
     29          6           0       -9.990786   -0.385216   -0.912300
     30          6           0      -12.222255    2.361758   -1.368288
     31          6           0      -12.382349   -0.866784   -1.870071
     32          6           0      -12.241373   -1.109809   -3.436627
     33          7           0       -7.205687   -1.315163   -0.200971
     34          6           0       -8.271220   -2.182020   -0.524068
     35          6           0       -7.699766   -3.554378   -0.622789
     36          6           0       -6.475835   -3.506416   -0.221257
     37          6           0       -6.178759   -2.152698    0.035246
     38          6           0       -8.523185   -4.820880   -0.953191
     39          6           0       -5.235724   -4.359259    0.188150
     40          8           0       -5.040107   -5.549977    0.115161
     41          6           0       -4.145580   -3.302487    0.648296
     42          6           0       -3.446687   -3.593816    1.938363
     43          8           0       -3.784628   -3.031359    2.972621
     44          8           0       -2.626619   -4.664530    1.805531
     45          6           0       -2.142062   -5.240619    3.104057
     46          6           0        2.829929   -0.629610   -1.115046
     47          6           0        4.174360   -0.524924   -0.395118
     48          6           0        5.144377    0.302801   -0.925852
     49          6           0        5.032749    1.122117   -2.122365
     50          6           0        6.390178    0.475328   -0.131223
     51          6           0        7.612063    0.005917   -0.854435
     52          6           0        8.926121    0.018944   -0.055821
     53          6           0       10.190539   -0.583587   -0.830019
     54          6           0        9.990108   -2.100450   -1.171264
     55          6           0       11.370120   -0.309615    0.087705
     56          6           0       12.686147   -0.689868   -0.515943
     57          6           0       13.963071   -0.172625    0.249908
     58          6           0       15.231694   -0.220984   -0.511311
     59          6           0       15.709789   -1.526920   -0.919679
     60          6           0       16.350544    0.544347    0.250513
     61          6           0       17.840009    0.582113   -0.383978
     62          6           0       18.749676    1.234995    0.577664
     63          6           0       20.170766    1.392922    0.109177
     64          6           0       20.351213    2.125665   -1.288863
     65          6           0       21.080530    2.016171    1.227225
     66          1           0       -4.173637    3.537013    1.674237
     67          1           0      -10.276542    3.800549   -0.633656
     68          1           0      -10.288423   -2.633279   -0.899069
     69          1           0       -2.732186   -1.007452    2.285646
     70          1           0       -2.057346    1.600847    1.269981
     71          1           0       -1.840204    0.969852    3.569215
     72          1           0       -3.072415    2.518584    3.465936
     73          1           0       -3.659844    0.650519    3.919957
     74          1           0       -1.869607   -1.590922   -0.233970
     75          1           0       -2.228481    0.176110   -0.624492
     76          1           0       -0.478201    0.539442    0.959184
     77          1           0       -0.094982   -0.981104    1.420951
     78          1           0       -5.718075    6.765266    1.042507
     79          1           0       -5.277290    5.684311    2.480892
     80          1           0       -4.427385    5.732641    0.862769
     81          1           0       -9.214907    5.746791   -0.752889
     82          1           0       -9.083369    8.045418    0.469109
     83          1           0       -7.526329    7.256325    1.113254
     84          1           0      -12.018967    2.948516   -2.244602
     85          1           0      -13.045605    1.891642   -1.832079
     86          1           0      -12.499732    2.987726   -0.519228
     87          1           0      -12.411791   -1.670577   -1.289308
     88          1           0      -13.295965   -0.345937   -1.860879
     89          1           0      -12.982943   -1.750992   -3.656570
     90          1           0      -12.447354   -0.047310   -4.091569
     91          1           0      -11.325115   -1.572056   -3.510911
     92          1           0       -8.897647   -4.715986   -1.985173
     93          1           0       -7.815909   -5.716471   -0.793947
     94          1           0       -9.348873   -5.080757   -0.444279
     95          1           0       -3.433474   -3.360002   -0.114362
     96          1           0       -1.486278   -4.320526    3.539809
     97          1           0       -3.147284   -5.704119    3.633313
     98          1           0       -1.613658   -6.151678    2.746386
     99          1           0        2.605488   -1.588243   -1.610081
    100          1           0        2.786524   -0.022614   -2.086481
    101          1           0        4.238993   -0.871494    0.459937
    102          1           0        3.874295    1.222042   -2.359138
    103          1           0        5.651167    2.133637   -1.918903
    104          1           0        5.686446    0.809617   -2.886297
    105          1           0        6.550761    1.430164    0.142430
    106          1           0        6.290177   -0.143870    0.742868
    107          1           0        7.339172   -0.894843   -1.274765
    108          1           0        7.534805    0.697312   -1.827553
    109          1           0        9.193775    0.966950    0.169060
    110          1           0        8.780784   -0.404547    1.007490
    111          1           0       10.326656   -0.285612   -1.864500
    112          1           0        9.163086   -2.540387   -1.737173
    113          1           0       10.846390   -2.554054   -1.564054
    114          1           0        9.900674   -2.791561   -0.165807
    115          1           0       11.242862    0.773367    0.208203
    116          1           0       11.344353   -0.873333    1.027149
    117          1           0       12.770575   -1.730536   -0.728033
    118          1           0       12.556090   -0.200727   -1.485839
    119          1           0       13.801663    1.015366    0.747629
    120          1           0       13.888937   -0.845115    1.004995
    121          1           0       15.089458    0.331452   -1.516896
    122          1           0       16.020096   -2.181216   -0.071101
    123          1           0       15.221072   -2.128688   -1.640017
    124          1           0       16.790640   -1.360168   -1.427792
    125          1           0       16.068502    1.641596    0.518191
    126          1           0       16.598986   -0.146184    1.211809
    127          1           0       18.132401   -0.546438   -0.432352
    128          1           0       18.014961    0.970752   -1.375973
    129          1           0       18.253539    2.175795    0.878916
    130          1           0       18.715428    0.560526    1.411496
    131          1           0       20.592468    0.412395    0.064143
    132          1           0       20.272145    3.323145   -1.089910
    133          1           0       21.392557    1.949613   -1.553560
    134          1           0       19.676222    1.671595   -2.151471
    135          1           0       20.841853    1.370008    2.116282
    136          1           0       21.968446    1.830530    0.868575
    137          1           0       20.446490    2.888755    1.454744
 ---------------------------------------------------------------------

 SCF Done:  E(RCAM-B3LYP) =  -2932.61947514     A.U. after   17 cycles

 Excitation energies and oscillator strengths:

 Excited State   1:      Singlet-A      2.0644 eV  600.59 nm  f=0.1644  <S**2>=0.000
     240 -> 243       -0.30623
     241 -> 242        0.63324
 This state for optimization and/or second-order correction.
 Total Energy, E(TD-HF/TD-DFT) =  -2932.54361141
 Copying the excited state density for this state as the 1-particle RhoCI density.

 The electronic state is 1-A.
 Alpha  occ. eigenvalues --  -46.83615 -19.27075 -19.26906 -19.22338 -19.22020
 Alpha  occ. eigenvalues --  -19.21162 -14.41754 -14.39451 -14.39192 -14.38248
 Alpha  occ. eigenvalues --  -10.40701 -10.39599 -10.36925 -10.34833 -10.31482
 Alpha  occ. eigenvalues --  -10.30815 -10.30658 -10.29555 -10.29338 -10.29326
 Alpha  occ. eigenvalues --  -10.28966 -10.28901 -10.28649 -10.28207 -10.27995
 Alpha  occ. eigenvalues --  -10.27953 -10.27951 -10.27828 -10.27619 -10.27505
 Alpha  occ. eigenvalues --  -10.27322 -10.27268 -10.27190 -10.27134 -10.27127
 Alpha  occ. eigenvalues --  -10.26974 -10.26941 -10.26839 -10.26701 -10.26546
 Alpha  occ. eigenvalues --  -10.26268 -10.26069 -10.26023 -10.25841 -10.25729
 Alpha  occ. eigenvalues --  -10.25622 -10.25453 -10.25346 -10.25337 -10.25201
 Alpha  occ. eigenvalues --  -10.25143 -10.25034 -10.24973 -10.24908 -10.24885
 Alpha  occ. eigenvalues --  -10.24870 -10.24828 -10.24681 -10.24590 -10.24554
 Alpha  occ. eigenvalues --  -10.24413 -10.23803 -10.23771 -10.23720 -10.23713
 Alpha  occ. eigenvalues --   -3.12813  -1.87505  -1.87054  -1.87008  -1.19189
 Alpha  occ. eigenvalues --   -1.17272  -1.12467  -1.10347  -1.08975  -1.04903
 Alpha  occ. eigenvalues --   -1.04342  -1.03268  -1.01804  -0.92205  -0.91252
 Alpha  occ. eigenvalues --   -0.91122  -0.90338  -0.89900  -0.89826  -0.88715
 Alpha  occ. eigenvalues --   -0.88711  -0.88104  -0.87498  -0.86486  -0.86271
 Alpha  occ. eigenvalues --   -0.85211  -0.84299  -0.83624  -0.83207  -0.82780
 Alpha  occ. eigenvalues --   -0.81898  -0.80853  -0.80484  -0.80250  -0.78015
 Alpha  occ. eigenvalues --   -0.77922  -0.77239  -0.76812  -0.76029  -0.75682
 Alpha  occ. eigenvalues --   -0.75241  -0.74773  -0.74273  -0.73740  -0.71844
 Alpha  occ. eigenvalues --   -0.71185  -0.70641  -0.70322  -0.69136  -0.68056
 Alpha  occ. eigenvalues --   -0.66956  -0.66711  -0.65395  -0.65040  -0.64695
 Alpha  occ. eigenvalues --   -0.64452  -0.63814  -0.63122  -0.62383  -0.61676
 Alpha  occ. eigenvalues --   -0.61499  -0.61318  -0.60496  -0.60280  -0.59114
 Alpha  occ. eigenvalues --   -0.58650  -0.58249  -0.58138  -0.57403  -0.57150
 Alpha  occ. eigenvalues --   -0.56607  -0.55625  -0.55392  -0.55319  -0.55198
 Alpha  occ. eigenvalues --   -0.55098  -0.54723  -0.54273  -0.53893  -0.53737
 Alpha  occ. eigenvalues --   -0.53161  -0.52840  -0.52762  -0.52662  -0.51915
 Alpha  occ. eigenvalues --   -0.51797  -0.51498  -0.51082  -0.50915  -0.50768
 Alpha  occ. eigenvalues --   -0.50330  -0.50191  -0.50054  -0.49826  -0.49790
 Alpha  occ. eigenvalues --   -0.49356  -0.49216  -0.48920  -0.48708  -0.48472
 Alpha  occ. eigenvalues --   -0.48198  -0.48014  -0.47846  -0.47669  -0.47289
 Alpha  occ. eigenvalues --   -0.47228  -0.46720  -0.46306  -0.46143  -0.45717
 Alpha  occ. eigenvalues --   -0.45600  -0.45453  -0.45332  -0.45198  -0.45089
 Alpha  occ. eigenvalues --   -0.44985  -0.44830  -0.44451  -0.44263  -0.44222
 Alpha  occ. eigenvalues --   -0.43888  -0.43619  -0.43476  -0.43435  -0.42892
 Alpha  occ. eigenvalues --   -0.42766  -0.42684  -0.42571  -0.42503  -0.42289
 Alpha  occ. eigenvalues --   -0.41964  -0.41742  -0.41629  -0.41474  -0.41290
 Alpha  occ. eigenvalues --   -0.41180  -0.41010  -0.40844  -0.40691  -0.40308
 Alpha  occ. eigenvalues --   -0.40097  -0.39760  -0.39376  -0.39195  -0.39106
 Alpha  occ. eigenvalues --   -0.38888  -0.38706  -0.38271  -0.37780  -0.37595
 Alpha  occ. eigenvalues --   -0.37348  -0.37077  -0.37025  -0.36901  -0.36695
 Alpha  occ. eigenvalues --   -0.36686  -0.36511  -0.36357  -0.36251  -0.35575
 Alpha  occ. eigenvalues --   -0.35377  -0.35184  -0.34849  -0.34667  -0.33847
 Alpha  occ. eigenvalues --   -0.33640  -0.33049  -0.31959  -0.31119  -0.30713
 Alpha  occ. eigenvalues --   -0.30036  -0.28960  -0.27623  -0.27045  -0.22695
 Alpha  occ. eigenvalues --   -0.20250
 Alpha virt. eigenvalues --   -0.05066  -0.03349   0.01545   0.03680   0.05159
 Alpha virt. eigenvalues --    0.05354   0.05771   0.06356   0.06581   0.06922
 Alpha virt. eigenvalues --    0.08037   0.10154   0.10807   0.11770   0.11812

 Mulliken charges:
               1
     1  Mg   0.818083
     2  C   -0.000982
     3  C   -0.219873
     4  C   -0.161635
     5  C   -0.181421
     6  N   -0.620347
     7  C    0.318993
     8  C   -0.159159
     9  C   -0.167816
    10  C    0.369193
    11  C   -0.284482
    12  C   -0.182337
    13  C   -0.252797
    14  C    0.595251
    15  O   -0.461417
    16  O   -0.448029
    17  N   -0.741400
    18  C    0.323225
    19  C    0.122159
    20  C   -0.009588
    21  C    0.268241
    22  C   -0.423064
    23  C   -0.053282
    24  C   -0.241258
    25  N   -0.675140
    26  C    0.380659
    27  C   -0.042008
    28  C    0.049967
    29  C    0.215211
    30  C   -0.395453
    31  C   -0.230119
    32  C   -0.297431
    33  N   -0.710203
    34  C    0.247168
    35  C   -0.069830
    36  C    0.066070
    37  C    0.306168
    38  C   -0.381144
    39  C    0.403809
    40  O   -0.431650
    41  C   -0.287583
    42  C    0.615355
    43  O   -0.481561
    44  O   -0.469945
    45  C   -0.079814
    46  C   -0.007631
    47  C   -0.094333
    48  C    0.125754
    49  C   -0.366034
    50  C   -0.223225
    51  C   -0.177677
    52  C   -0.169704
    53  C   -0.066207
    54  C   -0.327131
    55  C   -0.161513
    56  C   -0.209732
    57  C   -0.143145
    58  C   -0.028268
    59  C   -0.319172
    60  C   -0.167613
    61  C   -0.190232
    62  C   -0.152588
    63  C   -0.088275
    64  C   -0.301898
    65  C   -0.295945
    66  H    0.070719
    67  H    0.105149
    68  H    0.099189
    69  H    0.134291
    70  H    0.067749
    71  H    0.107301
    72  H    0.099374
    73  H    0.128779
    74  H    0.125792
    75  H    0.120065
    76  H    0.133189
    77  H    0.130870
    78  H    0.127334
    79  H    0.096658
    80  H    0.102750
    81  H    0.075376
    82  H    0.110999
    83  H    0.086970
    84  H    0.116562
    85  H    0.106848
    86  H    0.121418
    87  H    0.111859
    88  H    0.109033
    89  H    0.117814
    90  H    0.080279
    91  H    0.125403
    92  H    0.121122
    93  H    0.131228
    94  H    0.135202
    95  H    0.167185
    96  H    0.136533
    97  H    0.136362
    98  H    0.144164
    99  H    0.122120
   100  H    0.094439
   101  H    0.067240
   102  H    0.112439
   103  H    0.094951
   104  H    0.140269
   105  H    0.107706
   106  H    0.089953
   107  H    0.110055
   108  H    0.053918
   109  H    0.102614
   110  H    0.089034
   111  H    0.102259
   112  H    0.109795
   113  H    0.108649
   114  H    0.056816
   115  H    0.096479
   116  H    0.093038
   117  H    0.105917
   118  H    0.081891
   119  H    0.047875
   120  H    0.103364
   121  H    0.078673
   122  H    0.091555
   123  H    0.111364
   124  H    0.086231
   125  H    0.084939
   126  H    0.069308
   127  H    0.078135
   128  H    0.090668
   129  H    0.078789
   130  H    0.092115
   131  H    0.087206
   132  H    0.084373
   133  H    0.105462
   134  H    0.097533
   135  H    0.092234
   136  H    0.111256
   137  H    0.111562
 Sum of Mulliken charges =  -0.00000

 Dipole moment (field-independent basis, Debye):
    X=              3.1932    Y=              1.8300    Z=              1.1138  Tot=              3.8452
 Quadrupole moment (field-independent basis, Debye-Ang):
   XX=           -356.3923   YY=           -390.2626   ZZ=           -397.7140
   XY=            -14.9244   XZ=              7.7372   YZ=             -8.3555

 Normal termination of Gaussian 16 at Thu Jun 27 07:20:42 2019.
