 Gaussian 16, Revision A.03,
 Gaussian 16:  ES64L-G16RevA.03 25-Dec-2016

 ----------------------------------------------------------------------
 # td=(NStates=1) iop(3/107=0140000000,3/108=0140000000) CAM-B3LYP/6-31
 G(d,p)
 ----------------------------------------------------------------------

 --
 TD
 --
 Symbolic Z-matrix:
 Charge =  0 Multiplicity = 1

                         Standard orientation:
 ---------------------------------------------------------------------
 Center     Atomic      Atomic             Coordinates (Angstroms)
 Number     Number       Type             X           Y           Z
 ---------------------------------------------------------------------
      1         12           0       -7.094340    0.653805    0.069390
      2          6           0       -4.780558   -1.939874    0.555442
      3          6           0       -4.849047    2.914908    1.219226
      4          6           0       -9.357433    3.122415   -0.395238
      5          6           0       -9.519570   -1.829139   -0.921193
      6          7           0       -5.097930    0.436842    0.704623
      7          6           0       -4.395608   -0.615632    0.891016
      8          6           0       -2.910221   -0.327438    1.303248
      9          6           0       -3.050193    1.161897    1.663462
     10          6           0       -4.403200    1.593395    1.182183
     11          6           0       -2.978929    1.265666    3.224548
     12          6           0       -1.892980   -0.537029    0.193429
     13          6           0       -0.443057   -0.392677    0.458327
     14          6           0        0.454694   -0.631552   -0.646160
     15          8           0        0.129315   -1.023768   -1.759965
     16          8           0        1.692795   -0.423814   -0.253506
     17          7           0       -7.103217    2.724845    0.234923
     18          6           0       -6.136222    3.448669    0.830432
     19          6           0       -6.503526    4.896995    0.906040
     20          6           0       -7.773188    4.977431    0.341183
     21          6           0       -8.178335    3.584904   -0.057159
     22          6           0       -5.546673    5.940474    1.196501
     23          6           0       -8.621812    6.049925    0.008798
     24          6           0       -8.474773    7.253241    0.581666
     25          7           0       -9.081736    0.629731   -0.592685
     26          6           0       -9.776562    1.793342   -0.714043
     27          6           0      -11.119024    1.361391   -1.169645
     28          6           0      -11.180482    0.004483   -1.174028
     29          6           0       -9.868679   -0.478925   -0.908967
     30          6           0      -12.202727    2.303072   -1.487924
     31          6           0      -12.257364   -0.823837   -1.627730
     32          6           0      -12.061269   -1.378889   -3.097921
     33          7           0       -7.209189   -1.503756   -0.047813
     34          6           0       -8.112261   -2.323419   -0.521036
     35          6           0       -7.703844   -3.649073   -0.529945
     36          6           0       -6.435309   -3.563994   -0.181363
     37          6           0       -6.144073   -2.283687    0.197096
     38          6           0       -8.463486   -4.936269   -0.991775
     39          6           0       -5.197552   -4.302959    0.217617
     40          8           0       -4.973732   -5.523623    0.282393
     41          6           0       -4.077736   -3.240132    0.646435
     42          6           0       -3.507882   -3.655075    1.984948
     43          8           0       -3.613682   -3.093286    3.082882
     44          8           0       -2.669890   -4.730319    1.830591
     45          6           0       -2.074944   -5.053684    3.175400
     46          6           0        2.702154   -0.780261   -1.268659
     47          6           0        4.099825   -0.628076   -0.715071
     48          6           0        5.017264    0.315059   -1.066746
     49          6           0        4.930172    1.177031   -2.365025
     50          6           0        6.358055    0.358373   -0.476718
     51          6           0        7.499175   -0.243945   -1.101051
     52          6           0        8.891301   -0.140382   -0.251411
     53          6           0       10.084030   -0.665504   -0.926690
     54          6           0        9.979185   -2.153894   -1.344665
     55          6           0       11.350430   -0.468551   -0.014134
     56          6           0       12.723535   -0.510555   -0.731448
     57          6           0       13.925273   -0.264538    0.172060
     58          6           0       15.274331   -0.164315   -0.502863
     59          6           0       15.610065   -1.705483   -0.869733
     60          6           0       16.340018    0.413479    0.507556
     61          6           0       17.878431    0.493575   -0.075886
     62          6           0       18.721027    1.398609    0.838144
     63          6           0       20.199684    1.445158    0.316989
     64          6           0       20.266783    2.237687   -0.999314
     65          6           0       21.040510    2.112405    1.340575
     66          1           0       -4.067410    3.524661    1.699032
     67          1           0      -10.197191    3.922790   -0.661599
     68          1           0      -10.181343   -2.639071   -1.318570
     69          1           0       -2.720684   -0.938742    2.220217
     70          1           0       -2.296892    1.639185    1.240647
     71          1           0       -2.044799    1.104099    3.635987
     72          1           0       -3.339707    2.419275    3.580213
     73          1           0       -3.478784    0.518082    3.760744
     74          1           0       -2.042641   -1.650240   -0.050445
     75          1           0       -2.112239    0.152420   -0.604621
     76          1           0        0.065506    0.590675    0.839565
     77          1           0       -0.270745   -1.108406    1.364735
     78          1           0       -5.785735    6.870655    0.751247
     79          1           0       -5.529256    6.361368    2.213902
     80          1           0       -4.472566    5.787102    1.055852
     81          1           0       -9.477250    5.788183   -0.711239
     82          1           0       -9.181747    8.052367    0.192771
     83          1           0       -7.727360    7.636293    1.370221
     84          1           0      -11.948981    3.082449   -2.242604
     85          1           0      -13.099409    1.883426   -1.922294
     86          1           0      -12.515477    2.863269   -0.726232
     87          1           0      -12.477624   -1.741438   -0.867845
     88          1           0      -13.120959   -0.243153   -1.407548
     89          1           0      -12.904699   -2.010166   -3.236455
     90          1           0      -12.465545   -0.461448   -3.821208
     91          1           0      -10.957542   -1.696197   -3.085638
     92          1           0       -9.051673   -4.559223   -2.018086
     93          1           0       -7.677253   -5.823487   -0.819987
     94          1           0       -9.277362   -5.054374    0.043036
     95          1           0       -3.219709   -3.267088   -0.132272
     96          1           0       -1.556456   -4.120868    3.585064
     97          1           0       -2.684760   -5.345929    3.992097
     98          1           0       -1.554351   -5.901309    2.927239
     99          1           0        2.588926   -1.829632   -1.547842
    100          1           0        2.747144   -0.096311   -2.317075
    101          1           0        4.240597   -1.104681    0.180868
    102          1           0        3.972429    1.097908   -2.898154
    103          1           0        5.202939    2.333079   -2.321934
    104          1           0        5.640501    0.792505   -3.035752
    105          1           0        6.603393    1.442079   -0.177314
    106          1           0        6.250600    0.062966    0.660381
    107          1           0        7.420220   -1.421996   -1.368471
    108          1           0        7.804764    0.217267   -2.177373
    109          1           0        8.688530    0.830482    0.021863
    110          1           0        8.825422   -0.616214    0.832623
    111          1           0       10.237859   -0.254545   -1.836241
    112          1           0        9.043421   -2.117379   -1.825776
    113          1           0       10.827622   -2.519334   -1.986756
    114          1           0        9.836172   -2.688395   -0.336972
    115          1           0       11.126872    0.600865    0.564198
    116          1           0       11.363263   -1.209191    0.894665
    117          1           0       12.938271   -1.454190   -1.373522
    118          1           0       12.654432    0.420172   -1.494350
    119          1           0       13.727083    0.884257    0.752836
    120          1           0       13.883042   -1.024431    0.861682
    121          1           0       15.178231    0.559440   -1.417364
    122          1           0       15.855432   -1.905435    0.202657
    123          1           0       14.801190   -2.163331   -1.361813
    124          1           0       16.459656   -1.768762   -1.631262
    125          1           0       15.968624    1.440276    0.507610
    126          1           0       16.440437   -0.088782    1.477694
    127          1           0       18.625143   -0.405209   -0.204419
    128          1           0       18.002946    0.825189   -1.054376
    129          1           0       18.312306    2.426036    0.813810
    130          1           0       18.698653    0.961342    1.760494
    131          1           0       20.617264    0.459725    0.266603
    132          1           0       20.206554    3.392901   -0.920012
    133          1           0       21.221489    2.217160   -1.406056
    134          1           0       19.646463    1.847708   -1.779709
    135          1           0       21.127674    1.582601    2.212352
    136          1           0       22.018022    2.329724    0.901969
    137          1           0       20.542658    3.199383    1.416469
 ---------------------------------------------------------------------

 SCF Done:  E(RCAM-B3LYP) =  -2933.46787062     A.U. after   16 cycles

 Excitation energies and oscillator strengths:

 Excited State   1:      Singlet-A      1.9478 eV  636.54 nm  f=0.3418  <S**2>=0.000
     240 -> 243        0.18768
     241 -> 242        0.67959
 This state for optimization and/or second-order correction.
 Total Energy, E(TD-HF/TD-DFT) =  -2933.39629069
 Copying the excited state density for this state as the 1-particle RhoCI density.

 The electronic state is 1-A.
 Alpha  occ. eigenvalues --  -46.81366 -19.22882 -19.21811 -19.16547 -19.15765
 Alpha  occ. eigenvalues --  -19.15665 -14.37904 -14.36213 -14.35302 -14.34133
 Alpha  occ. eigenvalues --  -10.34367 -10.33758 -10.30546 -10.28842 -10.26868
 Alpha  occ. eigenvalues --  -10.26801 -10.25916 -10.25906 -10.25721 -10.25437
 Alpha  occ. eigenvalues --  -10.25195 -10.24602 -10.24285 -10.24266 -10.24230
 Alpha  occ. eigenvalues --  -10.24067 -10.23941 -10.23729 -10.23669 -10.23604
 Alpha  occ. eigenvalues --  -10.23590 -10.23288 -10.23214 -10.22965 -10.22939
 Alpha  occ. eigenvalues --  -10.22922 -10.22833 -10.22750 -10.22712 -10.22700
 Alpha  occ. eigenvalues --  -10.22631 -10.22444 -10.22341 -10.22292 -10.22026
 Alpha  occ. eigenvalues --  -10.21998 -10.21786 -10.21775 -10.21660 -10.21649
 Alpha  occ. eigenvalues --  -10.21616 -10.21591 -10.21543 -10.21489 -10.21034
 Alpha  occ. eigenvalues --  -10.20849 -10.20636 -10.20633 -10.20546 -10.20281
 Alpha  occ. eigenvalues --  -10.20126 -10.19740 -10.19522 -10.19477 -10.19341
 Alpha  occ. eigenvalues --   -3.09626  -1.84598  -1.84062  -1.84035  -1.13979
 Alpha  occ. eigenvalues --   -1.11227  -1.04127  -1.03550  -1.02214  -1.00986
 Alpha  occ. eigenvalues --   -0.99591  -0.98347  -0.97220  -0.86996  -0.86862
 Alpha  occ. eigenvalues --   -0.85900  -0.85275  -0.85102  -0.84661  -0.84572
 Alpha  occ. eigenvalues --   -0.83622  -0.83504  -0.82921  -0.81889  -0.81317
 Alpha  occ. eigenvalues --   -0.80367  -0.79366  -0.78626  -0.78166  -0.77893
 Alpha  occ. eigenvalues --   -0.76464  -0.75863  -0.75339  -0.74809  -0.73560
 Alpha  occ. eigenvalues --   -0.73050  -0.72428  -0.71650  -0.71520  -0.71384
 Alpha  occ. eigenvalues --   -0.70123  -0.70023  -0.69841  -0.68904  -0.67883
 Alpha  occ. eigenvalues --   -0.67202  -0.66006  -0.65279  -0.64378  -0.63734
 Alpha  occ. eigenvalues --   -0.63185  -0.62381  -0.61801  -0.60876  -0.60075
 Alpha  occ. eigenvalues --   -0.59699  -0.59130  -0.58903  -0.58494  -0.57597
 Alpha  occ. eigenvalues --   -0.57416  -0.56365  -0.56241  -0.56049  -0.55667
 Alpha  occ. eigenvalues --   -0.54915  -0.54422  -0.53732  -0.53254  -0.53088
 Alpha  occ. eigenvalues --   -0.52271  -0.51413  -0.51363  -0.51239  -0.50970
 Alpha  occ. eigenvalues --   -0.50766  -0.50104  -0.49885  -0.49680  -0.49459
 Alpha  occ. eigenvalues --   -0.49182  -0.48876  -0.48752  -0.48529  -0.47876
 Alpha  occ. eigenvalues --   -0.47765  -0.47736  -0.47289  -0.47047  -0.46853
 Alpha  occ. eigenvalues --   -0.46336  -0.46323  -0.46078  -0.45517  -0.45444
 Alpha  occ. eigenvalues --   -0.45146  -0.45084  -0.45020  -0.44401  -0.44342
 Alpha  occ. eigenvalues --   -0.44132  -0.44053  -0.43886  -0.43621  -0.43547
 Alpha  occ. eigenvalues --   -0.43405  -0.43071  -0.42955  -0.42773  -0.42426
 Alpha  occ. eigenvalues --   -0.42212  -0.42126  -0.41907  -0.41886  -0.41706
 Alpha  occ. eigenvalues --   -0.41365  -0.40916  -0.40737  -0.40721  -0.40659
 Alpha  occ. eigenvalues --   -0.40510  -0.40270  -0.40129  -0.40116  -0.39996
 Alpha  occ. eigenvalues --   -0.39653  -0.39467  -0.39405  -0.39287  -0.38856
 Alpha  occ. eigenvalues --   -0.38812  -0.38642  -0.38386  -0.38128  -0.38113
 Alpha  occ. eigenvalues --   -0.37955  -0.37903  -0.37514  -0.37028  -0.36976
 Alpha  occ. eigenvalues --   -0.36752  -0.36566  -0.36557  -0.36486  -0.35682
 Alpha  occ. eigenvalues --   -0.35549  -0.35494  -0.35004  -0.34726  -0.34586
 Alpha  occ. eigenvalues --   -0.34446  -0.34039  -0.33918  -0.33728  -0.33621
 Alpha  occ. eigenvalues --   -0.33301  -0.33214  -0.32918  -0.32738  -0.32506
 Alpha  occ. eigenvalues --   -0.31927  -0.31747  -0.31230  -0.30268  -0.30143
 Alpha  occ. eigenvalues --   -0.29876  -0.29743  -0.29411  -0.28461  -0.27819
 Alpha  occ. eigenvalues --   -0.26964  -0.26206  -0.25453  -0.25095  -0.22440
 Alpha  occ. eigenvalues --   -0.19279
 Alpha virt. eigenvalues --   -0.07237  -0.04017   0.00215   0.01779   0.02500
 Alpha virt. eigenvalues --    0.03644   0.03876   0.04428   0.04900   0.05290
 Alpha virt. eigenvalues --    0.06658   0.08065   0.09346   0.09678   0.09926

 Mulliken charges:
               1
     1  Mg   0.815831
     2  C    0.085794
     3  C   -0.187343
     4  C   -0.173615
     5  C   -0.173577
     6  N   -0.632655
     7  C    0.320626
     8  C   -0.168056
     9  C   -0.130683
    10  C    0.322947
    11  C   -0.313500
    12  C   -0.153479
    13  C   -0.275164
    14  C    0.639224
    15  O   -0.493818
    16  O   -0.457299
    17  N   -0.703642
    18  C    0.308216
    19  C    0.061309
    20  C    0.048125
    21  C    0.301343
    22  C   -0.416307
    23  C   -0.074577
    24  C   -0.251254
    25  N   -0.722612
    26  C    0.320443
    27  C    0.026161
    28  C    0.054110
    29  C    0.313708
    30  C   -0.401727
    31  C   -0.265175
    32  C   -0.291073
    33  N   -0.679187
    34  C    0.261538
    35  C   -0.011872
    36  C    0.055399
    37  C    0.234889
    38  C   -0.347356
    39  C    0.356651
    40  O   -0.473025
    41  C   -0.338932
    42  C    0.634899
    43  O   -0.494030
    44  O   -0.447520
    45  C   -0.090136
    46  C    0.019436
    47  C   -0.126156
    48  C    0.131247
    49  C   -0.373650
    50  C   -0.238536
    51  C   -0.165309
    52  C   -0.163671
    53  C   -0.053827
    54  C   -0.304423
    55  C   -0.155458
    56  C   -0.171478
    57  C   -0.128402
    58  C   -0.084923
    59  C   -0.301101
    60  C   -0.171155
    61  C   -0.197992
    62  C   -0.145434
    63  C   -0.069508
    64  C   -0.320165
    65  C   -0.288840
    66  H    0.082703
    67  H    0.078220
    68  H    0.097085
    69  H    0.120315
    70  H    0.102418
    71  H    0.116129
    72  H    0.066020
    73  H    0.137034
    74  H    0.106110
    75  H    0.116149
    76  H    0.121678
    77  H    0.127637
    78  H    0.126600
    79  H    0.119255
    80  H    0.125479
    81  H    0.098126
    82  H    0.092025
    83  H    0.108552
    84  H    0.108599
    85  H    0.110013
    86  H    0.133685
    87  H    0.077207
    88  H    0.101058
    89  H    0.123795
    90  H    0.085638
    91  H    0.115981
    92  H    0.115265
    93  H    0.154424
    94  H    0.088036
    95  H    0.164150
    96  H    0.122881
    97  H    0.140482
    98  H    0.125056
    99  H    0.135848
   100  H    0.093422
   101  H    0.089296
   102  H    0.110306
   103  H    0.102478
   104  H    0.137684
   105  H    0.095733
   106  H    0.090122
   107  H    0.087258
   108  H    0.076845
   109  H    0.106588
   110  H    0.070275
   111  H    0.094725
   112  H    0.105236
   113  H    0.104959
   114  H    0.091529
   115  H    0.063347
   116  H    0.073194
   117  H    0.085256
   118  H    0.071728
   119  H    0.036036
   120  H    0.098874
   121  H    0.071320
   122  H    0.107121
   123  H    0.105162
   124  H    0.095175
   125  H    0.105899
   126  H    0.099584
   127  H    0.069264
   128  H    0.096780
   129  H    0.084576
   130  H    0.091579
   131  H    0.087549
   132  H    0.089549
   133  H    0.107077
   134  H    0.105474
   135  H    0.104710
   136  H    0.092445
   137  H    0.073939
 Sum of Mulliken charges =  -0.00000

 Dipole moment (field-independent basis, Debye):
    X=              2.0296    Y=              5.9687    Z=              0.3253  Tot=              6.3128
 Quadrupole moment (field-independent basis, Debye-Ang):
   XX=           -338.5210   YY=           -396.2356   ZZ=           -397.0432
   XY=            -32.3734   XZ=              5.5820   YZ=             -3.1410

 Normal termination of Gaussian 16 at Thu Sep  5 22:31:25 2019.
