 Gaussian 09, Revision D.01,
 Gaussian 09:  ES64L-G09RevD.01 24-Apr-2013

 -------------------------------------
 # td=(NStates=1) CAM-B3LYP/6-31G(d,p)
 -------------------------------------

 --
 TD
 --
 Symbolic Z-matrix:
 Charge =  0 Multiplicity = 1

                         Standard orientation:
 ---------------------------------------------------------------------
 Center     Atomic      Atomic             Coordinates (Angstroms)
 Number     Number       Type             X           Y           Z
 ---------------------------------------------------------------------
      1         12           0       -7.112292    0.519590    0.226190
      2          6           0       -4.771462   -1.895989    0.547133
      3          6           0       -4.855570    2.835180    1.113743
      4          6           0       -9.435230    3.011563   -0.370980
      5          6           0       -9.523670   -1.834440   -0.902339
      6          7           0       -5.042696    0.489788    0.688291
      7          6           0       -4.339442   -0.609102    0.707877
      8          6           0       -2.923056   -0.377223    1.286380
      9          6           0       -3.015735    1.155060    1.745595
     10          6           0       -4.417847    1.488658    1.214745
     11          6           0       -3.024824    1.238781    3.275726
     12          6           0       -1.971025   -0.609170    0.064028
     13          6           0       -0.414298   -0.336706    0.598154
     14          6           0        0.580790   -0.633248   -0.598713
     15          8           0        0.127922   -0.957154   -1.757637
     16          8           0        1.825737   -0.379117   -0.268506
     17          7           0       -7.133226    2.585372    0.415328
     18          6           0       -6.131336    3.388631    0.739110
     19          6           0       -6.453991    4.783251    0.676588
     20          6           0       -7.780672    4.893244    0.304597
     21          6           0       -8.109800    3.442196    0.071870
     22          6           0       -5.515424    5.980446    1.086197
     23          6           0       -8.585131    6.036270    0.051457
     24          6           0       -8.647748    7.170840    0.704681
     25          7           0       -9.046022    0.514761   -0.467200
     26          6           0       -9.794230    1.698967   -0.720093
     27          6           0      -11.179797    1.297171   -1.191336
     28          6           0      -11.142422    0.026996   -1.245533
     29          6           0       -9.862725   -0.448804   -0.784861
     30          6           0      -12.216814    2.385721   -1.542065
     31          6           0      -12.330279   -0.811141   -1.757198
     32          6           0      -12.337255   -0.956622   -3.259395
     33          7           0       -7.110975   -1.437503   -0.198535
     34          6           0       -8.260211   -2.345285   -0.463017
     35          6           0       -7.728615   -3.639825   -0.560866
     36          6           0       -6.410867   -3.606001   -0.027406
     37          6           0       -6.122642   -2.240636    0.081814
     38          6           0       -8.489103   -4.971388   -0.805536
     39          6           0       -5.224980   -4.366250    0.227460
     40          8           0       -4.952552   -5.610141    0.250136
     41          6           0       -4.071962   -3.303427    0.541044
     42          6           0       -3.452451   -3.580441    1.868974
     43          8           0       -3.725486   -2.884817    2.930949
     44          8           0       -2.591299   -4.622437    1.813477
     45          6           0       -2.150407   -5.142170    3.039788
     46          6           0        2.807746   -0.734252   -1.179786
     47          6           0        4.145388   -0.497138   -0.475245
     48          6           0        5.148702    0.320457   -1.009081
     49          6           0        5.003425    1.275141   -2.125260
     50          6           0        6.402339    0.496263   -0.185818
     51          6           0        7.613022    0.079519   -1.038779
     52          6           0        8.892227   -0.086626   -0.238455
     53          6           0       10.205049   -0.615867   -0.929320
     54          6           0       10.072957   -2.050791   -1.431799
     55          6           0       11.455079   -0.338002   -0.100358
     56          6           0       12.802294   -0.565936   -0.818749
     57          6           0       13.885967   -0.099632    0.035547
     58          6           0       15.297186   -0.192434   -0.479124
     59          6           0       15.647618   -1.566294   -0.940032
     60          6           0       16.357221    0.312267    0.504437
     61          6           0       17.690563    0.487363   -0.135769
     62          6           0       18.663170    1.243342    0.739194
     63          6           0       20.057206    1.385058    0.259124
     64          6           0       20.212062    2.213713   -0.973882
     65          6           0       20.926830    2.005720    1.361294
     66          1           0       -4.175351    3.546230    1.360865
     67          1           0      -10.192374    3.745297   -0.397624
     68          1           0      -10.482307   -2.476749   -0.911037
     69          1           0       -2.571415   -1.126896    2.047170
     70          1           0       -2.256705    1.661941    1.319941
     71          1           0       -2.088148    1.004049    3.873843
     72          1           0       -3.401533    2.377185    3.284416
     73          1           0       -3.705476    0.414247    3.620171
     74          1           0       -2.104628   -1.626961   -0.164844
     75          1           0       -2.355310    0.110876   -0.709203
     76          1           0       -0.295196    0.744798    1.005055
     77          1           0       -0.150905   -1.077503    1.363487
     78          1           0       -5.896823    6.893504    0.771822
     79          1           0       -5.529812    6.270111    2.066946
     80          1           0       -4.498919    5.712210    0.723576
     81          1           0       -9.271596    5.982802   -0.762539
     82          1           0       -9.243750    7.979983    0.573848
     83          1           0       -8.016457    7.021060    1.640836
     84          1           0      -11.891340    2.905953   -2.440424
     85          1           0      -13.145961    1.750143   -1.819132
     86          1           0      -12.338128    3.232460   -0.967417
     87          1           0      -12.121596   -1.964800   -1.278632
     88          1           0      -13.233737   -0.313032   -1.292737
     89          1           0      -13.262953   -1.534137   -3.656822
     90          1           0      -12.311617   -0.013731   -3.623962
     91          1           0      -11.728588   -1.692702   -3.539174
     92          1           0       -8.802327   -5.123090   -1.904494
     93          1           0       -7.999227   -5.788343   -0.578328
     94          1           0       -9.330431   -5.037035   -0.303419
     95          1           0       -3.271835   -3.264662   -0.167566
     96          1           0       -1.574229   -4.272055    3.734298
     97          1           0       -2.963135   -5.542999    3.750066
     98          1           0       -1.396805   -5.859952    2.879163
     99          1           0        2.782134   -1.823298   -1.448379
    100          1           0        2.700084   -0.143739   -2.036892
    101          1           0        4.520290   -0.903638    0.439021
    102          1           0        4.053203    1.186097   -2.550317
    103          1           0        5.223764    2.326308   -1.581660
    104          1           0        5.884924    1.118301   -2.806773
    105          1           0        6.281697    1.630572    0.385351
    106          1           0        6.438111   -0.133585    0.758252
    107          1           0        7.422796   -0.907741   -1.388418
    108          1           0        7.955215    0.670996   -1.911290
    109          1           0        9.191863    0.901592    0.208627
    110          1           0        8.559224   -0.811050    0.596290
    111          1           0       10.411518    0.002674   -1.851751
    112          1           0        9.140117   -2.017889   -2.022167
    113          1           0       10.940031   -2.117918   -2.244360
    114          1           0       10.070183   -3.040602   -0.824389
    115          1           0       11.457615    0.758870    0.215064
    116          1           0       11.399158   -1.019519    0.727757
    117          1           0       13.143881   -1.684506   -1.053870
    118          1           0       12.906276   -0.077959   -1.680072
    119          1           0       13.821643    0.890518    0.352977
    120          1           0       13.613436   -0.889661    0.923381
    121          1           0       15.338232    0.504092   -1.320848
    122          1           0       15.501887   -2.116672   -0.138995
    123          1           0       14.836432   -2.146081   -1.613481
    124          1           0       16.627809   -1.635088   -1.497775
    125          1           0       16.053704    1.243944    0.951539
    126          1           0       16.328551   -0.372719    1.462276
    127          1           0       18.140681   -0.546622   -0.122598
    128          1           0       17.747407    0.836670   -1.267659
    129          1           0       18.307713    2.348372    1.145775
    130          1           0       18.504629    0.737762    1.929359
    131          1           0       20.733521    0.429784   -0.010571
    132          1           0       19.965481    3.172888   -0.828608
    133          1           0       21.273398    2.201625   -1.186935
    134          1           0       19.729900    1.647914   -1.971896
    135          1           0       20.808345    1.587876    2.325567
    136          1           0       22.063437    1.598485    1.091312
    137          1           0       20.878728    3.100199    1.487616
 ---------------------------------------------------------------------

 SCF Done:  E(RCAM-B3LYP) =  -2932.61587757     A.U. after   16 cycles

 Excitation energies and oscillator strengths:

 Excited State   1:      Singlet-A      1.8952 eV  654.20 nm  f=0.2872  <S**2>=0.000
     240 -> 243        0.20461
     241 -> 242        0.67234
 This state for optimization and/or second-order correction.
 Total Energy, E(TD-HF/TD-KS) =  -2932.54623062
 Copying the excited state density for this state as the 1-particle RhoCI density.

 The electronic state is 1-A.
 Alpha  occ. eigenvalues --  -46.85322 -19.27863 -19.27692 -19.20473 -19.20234
 Alpha  occ. eigenvalues --  -19.19509 -14.41872 -14.40314 -14.40038 -14.39144
 Alpha  occ. eigenvalues --  -10.39811 -10.39778 -10.35260 -10.32398 -10.32239
 Alpha  occ. eigenvalues --  -10.31025 -10.30670 -10.30096 -10.29872 -10.29547
 Alpha  occ. eigenvalues --  -10.29500 -10.28955 -10.28809 -10.28495 -10.28401
 Alpha  occ. eigenvalues --  -10.28355 -10.28337 -10.28289 -10.28277 -10.27853
 Alpha  occ. eigenvalues --  -10.27726 -10.27696 -10.27457 -10.27075 -10.27071
 Alpha  occ. eigenvalues --  -10.26925 -10.26837 -10.26741 -10.26690 -10.26610
 Alpha  occ. eigenvalues --  -10.26605 -10.26579 -10.26574 -10.26266 -10.26152
 Alpha  occ. eigenvalues --  -10.26067 -10.26060 -10.26027 -10.25937 -10.25878
 Alpha  occ. eigenvalues --  -10.25849 -10.25640 -10.25508 -10.25325 -10.25267
 Alpha  occ. eigenvalues --  -10.25262 -10.25260 -10.25054 -10.24936 -10.24674
 Alpha  occ. eigenvalues --  -10.24342 -10.24183 -10.24179 -10.24025 -10.23874
 Alpha  occ. eigenvalues --   -3.14332  -1.89034  -1.88578  -1.88505  -1.20223
 Alpha  occ. eigenvalues --   -1.17980  -1.07304  -1.07065  -1.06264  -1.05902
 Alpha  occ. eigenvalues --   -1.05705  -1.04284  -1.02749  -0.92008  -0.91355
 Alpha  occ. eigenvalues --   -0.91284  -0.90611  -0.90120  -0.89790  -0.88985
 Alpha  occ. eigenvalues --   -0.88721  -0.88117  -0.87214  -0.86740  -0.86395
 Alpha  occ. eigenvalues --   -0.85160  -0.84849  -0.83666  -0.83602  -0.83058
 Alpha  occ. eigenvalues --   -0.82040  -0.81058  -0.80881  -0.80564  -0.79069
 Alpha  occ. eigenvalues --   -0.78677  -0.77668  -0.76510  -0.75862  -0.75749
 Alpha  occ. eigenvalues --   -0.75524  -0.75317  -0.74631  -0.73380  -0.72502
 Alpha  occ. eigenvalues --   -0.70997  -0.70201  -0.69658  -0.69104  -0.68836
 Alpha  occ. eigenvalues --   -0.67925  -0.66528  -0.65552  -0.64861  -0.64519
 Alpha  occ. eigenvalues --   -0.64291  -0.63389  -0.63235  -0.62685  -0.62080
 Alpha  occ. eigenvalues --   -0.61291  -0.60801  -0.60299  -0.59930  -0.59394
 Alpha  occ. eigenvalues --   -0.59184  -0.58103  -0.57797  -0.57718  -0.56919
 Alpha  occ. eigenvalues --   -0.56113  -0.55660  -0.55557  -0.55096  -0.54727
 Alpha  occ. eigenvalues --   -0.54330  -0.54144  -0.54030  -0.53855  -0.53678
 Alpha  occ. eigenvalues --   -0.53667  -0.53460  -0.52881  -0.52794  -0.52259
 Alpha  occ. eigenvalues --   -0.52080  -0.51421  -0.50978  -0.50898  -0.50620
 Alpha  occ. eigenvalues --   -0.50578  -0.50355  -0.50022  -0.49920  -0.49673
 Alpha  occ. eigenvalues --   -0.49569  -0.49149  -0.48879  -0.48825  -0.48793
 Alpha  occ. eigenvalues --   -0.48213  -0.47923  -0.47634  -0.47608  -0.47465
 Alpha  occ. eigenvalues --   -0.47295  -0.47067  -0.46527  -0.46449  -0.45996
 Alpha  occ. eigenvalues --   -0.45566  -0.45524  -0.45328  -0.45241  -0.45120
 Alpha  occ. eigenvalues --   -0.44998  -0.44850  -0.44708  -0.44535  -0.43835
 Alpha  occ. eigenvalues --   -0.43809  -0.43547  -0.43476  -0.43265  -0.43025
 Alpha  occ. eigenvalues --   -0.42781  -0.42572  -0.42518  -0.42024  -0.41991
 Alpha  occ. eigenvalues --   -0.41684  -0.41591  -0.41233  -0.41147  -0.41024
 Alpha  occ. eigenvalues --   -0.40956  -0.40806  -0.40667  -0.40527  -0.40268
 Alpha  occ. eigenvalues --   -0.39869  -0.39562  -0.39388  -0.39205  -0.39193
 Alpha  occ. eigenvalues --   -0.38696  -0.38632  -0.38047  -0.37794  -0.37451
 Alpha  occ. eigenvalues --   -0.37375  -0.37163  -0.37105  -0.36565  -0.36282
 Alpha  occ. eigenvalues --   -0.36118  -0.35941  -0.35688  -0.35660  -0.35402
 Alpha  occ. eigenvalues --   -0.35197  -0.34811  -0.34682  -0.33769  -0.33293
 Alpha  occ. eigenvalues --   -0.32794  -0.32483  -0.32208  -0.30892  -0.30500
 Alpha  occ. eigenvalues --   -0.29725  -0.28916  -0.28870  -0.28737  -0.23075
 Alpha  occ. eigenvalues --   -0.20937
 Alpha virt. eigenvalues --   -0.07369  -0.02348   0.01349   0.03793   0.04769
 Alpha virt. eigenvalues --    0.04900   0.05323   0.05492   0.07099   0.07384
 Alpha virt. eigenvalues --    0.08574   0.10360   0.11131   0.11333   0.11797

 Mulliken charges:
               1
     1  Mg   0.836666
     2  C    0.105882
     3  C   -0.192490
     4  C   -0.179547
     5  C   -0.150780
     6  N   -0.604715
     7  C    0.282774
     8  C   -0.182021
     9  C   -0.132447
    10  C    0.302692
    11  C   -0.287421
    12  C   -0.152243
    13  C   -0.277669
    14  C    0.590337
    15  O   -0.505084
    16  O   -0.412277
    17  N   -0.669689
    18  C    0.324148
    19  C   -0.007490
    20  C    0.031486
    21  C    0.254415
    22  C   -0.359603
    23  C   -0.078552
    24  C   -0.232544
    25  N   -0.665762
    26  C    0.228838
    27  C    0.062836
    28  C    0.007063
    29  C    0.306940
    30  C   -0.365477
    31  C   -0.242244
    32  C   -0.279249
    33  N   -0.719678
    34  C    0.205265
    35  C    0.005690
    36  C    0.040719
    37  C    0.301428
    38  C   -0.361313
    39  C    0.351274
    40  O   -0.501799
    41  C   -0.325445
    42  C    0.633903
    43  O   -0.506089
    44  O   -0.421469
    45  C   -0.075722
    46  C    0.007515
    47  C   -0.142221
    48  C    0.104125
    49  C   -0.334228
    50  C   -0.216274
    51  C   -0.178256
    52  C   -0.179550
    53  C   -0.066314
    54  C   -0.308961
    55  C   -0.159639
    56  C   -0.167473
    57  C   -0.159369
    58  C   -0.062787
    59  C   -0.308348
    60  C   -0.170436
    61  C   -0.166540
    62  C   -0.138539
    63  C   -0.053524
    64  C   -0.281143
    65  C   -0.304757
    66  H    0.061880
    67  H    0.082606
    68  H    0.094825
    69  H    0.122740
    70  H    0.106462
    71  H    0.106208
    72  H    0.086742
    73  H    0.133014
    74  H    0.114517
    75  H    0.115745
    76  H    0.126303
    77  H    0.133034
    78  H    0.123755
    79  H    0.133460
    80  H    0.114917
    81  H    0.093284
    82  H    0.113303
    83  H    0.087563
    84  H    0.129784
    85  H    0.102409
    86  H    0.132830
    87  H    0.057557
    88  H    0.107512
    89  H    0.083371
    90  H    0.120197
    91  H    0.129879
    92  H    0.103643
    93  H    0.147297
    94  H    0.130510
    95  H    0.171416
    96  H    0.088739
    97  H    0.132271
    98  H    0.132103
    99  H    0.128172
   100  H    0.127965
   101  H    0.087148
   102  H    0.114671
   103  H    0.104838
   104  H    0.121000
   105  H    0.073158
   106  H    0.097336
   107  H    0.115514
   108  H    0.098034
   109  H    0.083426
   110  H    0.073652
   111  H    0.079198
   112  H    0.100645
   113  H    0.089585
   114  H    0.100878
   115  H    0.084354
   116  H    0.098673
   117  H    0.077154
   118  H    0.092307
   119  H    0.087954
   120  H    0.052460
   121  H    0.081089
   122  H    0.118773
   123  H    0.072486
   124  H    0.102027
   125  H    0.092008
   126  H    0.081875
   127  H    0.107740
   128  H    0.087814
   129  H    0.062318
   130  H    0.045761
   131  H    0.075052
   132  H    0.112493
   133  H    0.104419
   134  H    0.071226
   135  H    0.112930
   136  H    0.065441
   137  H    0.101733
 Sum of Mulliken charges =   0.00000

 Dipole moment (field-independent basis, Debye):
    X=              1.0839    Y=              5.7438    Z=              0.5438  Tot=              5.8704
 Quadrupole moment (field-independent basis, Debye-Ang):
   XX=           -323.9793   YY=           -389.8600   ZZ=           -401.5761
   XY=            -30.3088   XZ=              8.5651   YZ=             -3.0478

 Normal termination of Gaussian 09 at Fri Jul  5 15:57:54 2019.
