 Gaussian 16, Revision A.03,
 Gaussian 16:  ES64L-G16RevA.03 25-Dec-2016

 ----------------------------------------------------------------------
 # td=(NStates=1) iop(3/107=0140000000,3/108=0140000000) CAM-B3LYP/6-31
 G(d,p)
 ----------------------------------------------------------------------

 --
 TD
 --
 Symbolic Z-matrix:
 Charge =  0 Multiplicity = 1

                         Standard orientation:
 ---------------------------------------------------------------------
 Center     Atomic      Atomic             Coordinates (Angstroms)
 Number     Number       Type             X           Y           Z
 ---------------------------------------------------------------------
      1         12           0       -7.019509    0.611777   -0.014323
      2          6           0       -4.872799   -2.002030    0.465663
      3          6           0       -4.877928    2.850527    1.187322
      4          6           0       -9.367656    3.190825   -0.476088
      5          6           0       -9.514330   -1.625939   -0.928204
      6          7           0       -5.088403    0.389996    0.679068
      7          6           0       -4.457473   -0.745687    0.853994
      8          6           0       -2.913537   -0.349465    1.246586
      9          6           0       -3.065521    1.117657    1.739479
     10          6           0       -4.389856    1.471866    1.143688
     11          6           0       -3.098890    1.197443    3.350350
     12          6           0       -1.961671   -0.662515    0.220890
     13          6           0       -0.415150   -0.335631    0.661131
     14          6           0        0.493687   -0.667835   -0.450222
     15          8           0        0.177601   -1.043737   -1.565761
     16          8           0        1.754793   -0.364788   -0.070074
     17          7           0       -7.096819    2.656580    0.359760
     18          6           0       -6.079155    3.430249    0.714461
     19          6           0       -6.354258    4.879429    0.799128
     20          6           0       -7.691603    4.911489    0.281823
     21          6           0       -8.092899    3.509150    0.040180
     22          6           0       -5.437605    5.944546    1.177698
     23          6           0       -8.412962    6.096948    0.174328
     24          6           0       -8.183047    7.281298    0.785029
     25          7           0       -9.039929    0.759471   -0.763677
     26          6           0       -9.789882    1.878711   -0.825617
     27          6           0      -11.183478    1.493258   -1.299421
     28          6           0      -11.200336    0.118897   -1.370482
     29          6           0       -9.859638   -0.354577   -0.961684
     30          6           0      -12.302322    2.554336   -1.361359
     31          6           0      -12.319234   -0.806025   -1.782090
     32          6           0      -12.192767   -1.356796   -3.148406
     33          7           0       -7.182978   -1.336367   -0.177441
     34          6           0       -8.188090   -2.182183   -0.628884
     35          6           0       -7.920487   -3.585430   -0.496919
     36          6           0       -6.550695   -3.596033   -0.066077
     37          6           0       -6.253687   -2.230152    0.109532
     38          6           0       -8.709322   -4.830020   -0.847901
     39          6           0       -5.432156   -4.416915    0.305201
     40          8           0       -5.308848   -5.587702    0.237051
     41          6           0       -4.205470   -3.476966    0.543819
     42          6           0       -3.484014   -3.762867    1.889074
     43          8           0       -3.694380   -3.206973    2.886437
     44          8           0       -2.654769   -4.753303    1.683774
     45          6           0       -2.011238   -5.302778    2.942360
     46          6           0        2.839496   -0.546179   -1.179311
     47          6           0        4.150892   -0.451281   -0.566603
     48          6           0        5.202092    0.340121   -0.991438
     49          6           0        5.122895    1.339047   -2.168312
     50          6           0        6.412389    0.374408   -0.125363
     51          6           0        7.566522   -0.277087   -0.898758
     52          6           0        8.963488   -0.158985   -0.110063
     53          6           0       10.091541   -0.756607   -0.778648
     54          6           0       10.119089   -2.215573   -1.100607
     55          6           0       11.370797   -0.214001   -0.010848
     56          6           0       12.664176   -0.453228   -0.719742
     57          6           0       13.858893   -0.050469    0.035419
     58          6           0       15.288504   -0.144255   -0.652927
     59          6           0       15.571181   -1.535138   -1.069088
     60          6           0       16.366342    0.332704    0.434042
     61          6           0       17.724893    0.449655   -0.174963
     62          6           0       18.733785    1.272571    0.668468
     63          6           0       20.203457    1.368914    0.205507
     64          6           0       20.338733    2.152529   -1.093751
     65          6           0       21.143538    1.937446    1.259977
     66          1           0       -4.004689    3.550575    1.543945
     67          1           0      -10.004513    3.950215   -0.377357
     68          1           0      -10.216375   -2.393224   -1.203201
     69          1           0       -2.602457   -0.867718    2.200235
     70          1           0       -2.272795    1.648538    1.469431
     71          1           0       -2.012930    0.767544    3.654848
     72          1           0       -3.253632    2.212411    3.531037
     73          1           0       -3.878573    0.574107    3.824344
     74          1           0       -2.122306   -1.695960   -0.191710
     75          1           0       -2.061088    0.140798   -0.469057
     76          1           0       -0.491861    0.649387    1.103586
     77          1           0       -0.219940   -0.860886    1.750493
     78          1           0       -5.691131    6.879071    0.646902
     79          1           0       -5.415327    6.026167    2.107606
     80          1           0       -4.421410    5.729758    0.906188
     81          1           0       -9.086364    6.075110   -0.629391
     82          1           0       -8.941148    8.116049    0.497709
     83          1           0       -7.546372    7.182760    1.665451
     84          1           0      -12.108120    3.140189   -2.180206
     85          1           0      -13.372395    2.069784   -1.235750
     86          1           0      -12.234109    2.972567   -0.321508
     87          1           0      -12.163511   -1.562731   -1.008942
     88          1           0      -13.245098   -0.181111   -1.687535
     89          1           0      -12.875166   -2.258440   -3.265055
     90          1           0      -12.095304   -0.623568   -4.022309
     91          1           0      -11.282669   -1.929637   -3.595188
     92          1           0       -9.068054   -4.986042   -2.035470
     93          1           0       -7.825417   -5.701368   -0.650345
     94          1           0       -9.701767   -4.804971   -0.321386
     95          1           0       -3.408291   -3.648777   -0.142764
     96          1           0       -1.468824   -4.420756    3.514211
     97          1           0       -2.652744   -5.602035    3.624433
     98          1           0       -1.263448   -6.028644    2.595359
     99          1           0        2.669768   -1.505767   -1.541300
    100          1           0        2.503642    0.243254   -1.864177
    101          1           0        4.123698   -1.030231    0.256676
    102          1           0        4.225959    1.730769   -2.463406
    103          1           0        5.805879    2.211574   -1.870410
    104          1           0        5.490517    0.768489   -3.101978
    105          1           0        6.798699    1.357362    0.194164
    106          1           0        6.479558   -0.223964    1.026202
    107          1           0        7.094108   -1.431283   -1.123979
    108          1           0        7.638338    0.143615   -1.902731
    109          1           0        9.232784    0.856607    0.129780
    110          1           0        8.929663   -0.820935    0.832835
    111          1           0       10.206686   -0.187007   -1.763465
    112          1           0        9.305002   -2.417714   -1.858712
    113          1           0       11.027844   -2.480150   -1.524539
    114          1           0       10.201336   -2.717162   -0.309000
    115          1           0       11.292654    0.774127    0.410900
    116          1           0       11.475434   -0.709363    0.984555
    117          1           0       12.771549   -1.399268   -1.366122
    118          1           0       12.549146    0.141030   -1.752722
    119          1           0       13.824210    0.968144    0.577692
    120          1           0       13.974172   -0.699278    0.886332
    121          1           0       15.195439    0.630285   -1.458465
    122          1           0       15.405751   -2.336267   -0.178014
    123          1           0       14.738527   -1.828711   -1.821666
    124          1           0       16.413036   -2.020708   -1.663097
    125          1           0       16.036893    1.319141    0.857082
    126          1           0       16.177624   -0.259702    1.312095
    127          1           0       18.001802   -0.474144   -0.419608
    128          1           0       17.664749    1.052267   -1.145955
    129          1           0       18.270748    2.235617    0.833412
    130          1           0       18.437007    0.855953    1.601031
    131          1           0       20.525412    0.242783    0.079746
    132          1           0       19.704029    3.065626   -0.850775
    133          1           0       21.504913    2.228677   -1.668296
    134          1           0       19.624039    1.558153   -1.723718
    135          1           0       20.935928    1.429084    2.216822
    136          1           0       22.157516    2.104092    0.737475
    137          1           0       20.866209    3.120531    1.544978
 ---------------------------------------------------------------------

 SCF Done:  E(RCAM-B3LYP) =  -2933.43900117     A.U. after   16 cycles

 Excitation energies and oscillator strengths:

 Excited State   1:      Singlet-A      2.0574 eV  602.62 nm  f=0.3003  <S**2>=0.000
     240 -> 243        0.21936
     241 -> 242        0.66233
 This state for optimization and/or second-order correction.
 Total Energy, E(TD-HF/TD-DFT) =  -2933.36339197
 Copying the excited state density for this state as the 1-particle RhoCI density.

 The electronic state is 1-A.
 Alpha  occ. eigenvalues --  -46.80418 -19.22046 -19.20728 -19.16122 -19.15712
 Alpha  occ. eigenvalues --  -19.15026 -14.37643 -14.35588 -14.35068 -14.35056
 Alpha  occ. eigenvalues --  -10.34020 -10.33031 -10.29106 -10.27230 -10.27025
 Alpha  occ. eigenvalues --  -10.26690 -10.25553 -10.25510 -10.25366 -10.25334
 Alpha  occ. eigenvalues --  -10.24581 -10.24315 -10.24110 -10.23891 -10.23552
 Alpha  occ. eigenvalues --  -10.23468 -10.23397 -10.23209 -10.23156 -10.23144
 Alpha  occ. eigenvalues --  -10.23021 -10.23015 -10.22890 -10.22654 -10.22580
 Alpha  occ. eigenvalues --  -10.22554 -10.22482 -10.22447 -10.22395 -10.22395
 Alpha  occ. eigenvalues --  -10.22387 -10.22320 -10.22281 -10.22211 -10.22034
 Alpha  occ. eigenvalues --  -10.21926 -10.21807 -10.21756 -10.21745 -10.21702
 Alpha  occ. eigenvalues --  -10.21686 -10.21547 -10.21470 -10.21416 -10.21358
 Alpha  occ. eigenvalues --  -10.21289 -10.21235 -10.21156 -10.20816 -10.20729
 Alpha  occ. eigenvalues --  -10.20334 -10.20167 -10.19913 -10.19858 -10.18490
 Alpha  occ. eigenvalues --   -3.09017  -1.83955  -1.83475  -1.83443  -1.13950
 Alpha  occ. eigenvalues --   -1.10896  -1.07378  -1.05399  -1.02632  -1.00100
 Alpha  occ. eigenvalues --   -0.99512  -0.98675  -0.96745  -0.86623  -0.85743
 Alpha  occ. eigenvalues --   -0.85565  -0.85399  -0.85076  -0.84788  -0.83969
 Alpha  occ. eigenvalues --   -0.83380  -0.82873  -0.81883  -0.81615  -0.80851
 Alpha  occ. eigenvalues --   -0.80136  -0.79631  -0.78677  -0.78130  -0.77668
 Alpha  occ. eigenvalues --   -0.76963  -0.76412  -0.75934  -0.74731  -0.73998
 Alpha  occ. eigenvalues --   -0.73227  -0.73063  -0.72410  -0.71473  -0.70404
 Alpha  occ. eigenvalues --   -0.70020  -0.69954  -0.69681  -0.68474  -0.67490
 Alpha  occ. eigenvalues --   -0.66740  -0.65642  -0.64930  -0.64302  -0.63902
 Alpha  occ. eigenvalues --   -0.63080  -0.62101  -0.60774  -0.60407  -0.60264
 Alpha  occ. eigenvalues --   -0.59529  -0.59289  -0.58540  -0.58404  -0.58052
 Alpha  occ. eigenvalues --   -0.57574  -0.57442  -0.56261  -0.55953  -0.55125
 Alpha  occ. eigenvalues --   -0.54864  -0.53938  -0.53502  -0.52548  -0.52378
 Alpha  occ. eigenvalues --   -0.52033  -0.51704  -0.51224  -0.50960  -0.50502
 Alpha  occ. eigenvalues --   -0.50416  -0.49676  -0.49577  -0.49180  -0.49156
 Alpha  occ. eigenvalues --   -0.48951  -0.48908  -0.48831  -0.48537  -0.47840
 Alpha  occ. eigenvalues --   -0.47724  -0.47451  -0.47348  -0.47283  -0.46932
 Alpha  occ. eigenvalues --   -0.46731  -0.46338  -0.46148  -0.46024  -0.45886
 Alpha  occ. eigenvalues --   -0.45682  -0.45330  -0.44990  -0.44819  -0.44703
 Alpha  occ. eigenvalues --   -0.44580  -0.44504  -0.44374  -0.44224  -0.43919
 Alpha  occ. eigenvalues --   -0.43751  -0.43602  -0.43384  -0.43140  -0.42740
 Alpha  occ. eigenvalues --   -0.42454  -0.42422  -0.42259  -0.41988  -0.41930
 Alpha  occ. eigenvalues --   -0.41365  -0.40910  -0.40760  -0.40692  -0.40560
 Alpha  occ. eigenvalues --   -0.40284  -0.40257  -0.40022  -0.40012  -0.39917
 Alpha  occ. eigenvalues --   -0.39686  -0.39618  -0.39521  -0.39314  -0.38938
 Alpha  occ. eigenvalues --   -0.38847  -0.38482  -0.38161  -0.37993  -0.37927
 Alpha  occ. eigenvalues --   -0.37733  -0.37705  -0.37132  -0.37087  -0.36975
 Alpha  occ. eigenvalues --   -0.36793  -0.36422  -0.36338  -0.36164  -0.36004
 Alpha  occ. eigenvalues --   -0.35781  -0.35229  -0.34996  -0.34575  -0.34489
 Alpha  occ. eigenvalues --   -0.33902  -0.33705  -0.33679  -0.33543  -0.32981
 Alpha  occ. eigenvalues --   -0.32921  -0.32852  -0.32732  -0.32592  -0.32235
 Alpha  occ. eigenvalues --   -0.32082  -0.31125  -0.31035  -0.30254  -0.29919
 Alpha  occ. eigenvalues --   -0.29848  -0.29729  -0.29020  -0.28005  -0.26696
 Alpha  occ. eigenvalues --   -0.26643  -0.26105  -0.25561  -0.24913  -0.21103
 Alpha  occ. eigenvalues --   -0.19770
 Alpha virt. eigenvalues --   -0.07029  -0.02794   0.00258   0.02174   0.02306
 Alpha virt. eigenvalues --    0.03682   0.04383   0.05090   0.05670   0.06698
 Alpha virt. eigenvalues --    0.07088   0.09017   0.09319   0.09496   0.09641

 Mulliken charges:
               1
     1  Mg   0.833073
     2  C    0.036747
     3  C   -0.217034
     4  C   -0.167639
     5  C   -0.188401
     6  N   -0.622797
     7  C    0.272705
     8  C   -0.157913
     9  C   -0.153854
    10  C    0.336540
    11  C   -0.301775
    12  C   -0.145243
    13  C   -0.295594
    14  C    0.642160
    15  O   -0.481550
    16  O   -0.506230
    17  N   -0.686576
    18  C    0.301826
    19  C    0.048569
    20  C   -0.015211
    21  C    0.332338
    22  C   -0.380118
    23  C   -0.081202
    24  C   -0.260048
    25  N   -0.681922
    26  C    0.316058
    27  C   -0.031107
    28  C    0.019289
    29  C    0.340277
    30  C   -0.360755
    31  C   -0.215528
    32  C   -0.309278
    33  N   -0.704877
    34  C    0.215171
    35  C    0.040408
    36  C    0.014577
    37  C    0.277496
    38  C   -0.374396
    39  C    0.358584
    40  O   -0.444621
    41  C   -0.299777
    42  C    0.602297
    43  O   -0.445641
    44  O   -0.441510
    45  C   -0.099969
    46  C    0.004888
    47  C   -0.105904
    48  C    0.103040
    49  C   -0.360250
    50  C   -0.205896
    51  C   -0.175121
    52  C   -0.154547
    53  C   -0.055976
    54  C   -0.294144
    55  C   -0.189902
    56  C   -0.164500
    57  C   -0.178696
    58  C   -0.059110
    59  C   -0.300286
    60  C   -0.192791
    61  C   -0.166745
    62  C   -0.197058
    63  C   -0.040601
    64  C   -0.293043
    65  C   -0.280374
    66  H    0.064450
    67  H    0.072682
    68  H    0.080987
    69  H    0.099212
    70  H    0.097936
    71  H    0.086007
    72  H    0.116370
    73  H    0.136161
    74  H    0.118607
    75  H    0.114621
    76  H    0.138037
    77  H    0.105855
    78  H    0.130147
    79  H    0.142480
    80  H    0.117156
    81  H    0.085386
    82  H    0.102255
    83  H    0.107396
    84  H    0.138321
    85  H    0.100680
    86  H    0.129196
    87  H    0.112372
    88  H    0.105768
    89  H    0.100822
    90  H    0.108749
    91  H    0.098948
    92  H    0.096078
    93  H    0.138056
    94  H    0.123182
    95  H    0.154623
    96  H    0.114870
    97  H    0.156492
    98  H    0.135098
    99  H    0.144221
   100  H    0.122274
   101  H    0.098237
   102  H    0.134136
   103  H    0.113124
   104  H    0.121288
   105  H    0.101764
   106  H    0.068335
   107  H    0.065715
   108  H    0.099264
   109  H    0.097328
   110  H    0.079173
   111  H    0.064286
   112  H    0.103783
   113  H    0.105607
   114  H    0.110000
   115  H    0.095702
   116  H    0.075412
   117  H    0.095377
   118  H    0.057343
   119  H    0.080391
   120  H    0.093001
   121  H    0.091347
   122  H    0.081622
   123  H    0.086595
   124  H    0.108717
   125  H    0.074691
   126  H    0.093207
   127  H    0.107998
   128  H    0.081599
   129  H    0.089110
   130  H    0.095827
   131  H    0.071740
   132  H    0.105343
   133  H    0.081948
   134  H    0.103897
   135  H    0.106850
   136  H    0.098676
   137  H    0.055535
 Sum of Mulliken charges =  -0.00000

 Dipole moment (field-independent basis, Debye):
    X=              2.5295    Y=              4.5939    Z=              0.7579  Tot=              5.2987
 Quadrupole moment (field-independent basis, Debye-Ang):
   XX=           -367.8629   YY=           -394.5127   ZZ=           -394.0659
   XY=            -33.2423   XZ=              3.2235   YZ=             -3.1392

 Normal termination of Gaussian 16 at Mon Sep 16 00:20:28 2019.
