 Gaussian 09, Revision D.01,
 Gaussian 09:  ES64L-G09RevD.01 24-Apr-2013

 -------------------------------------
 # td=(NStates=1) CAM-B3LYP/6-31G(d,p)
 -------------------------------------

 --
 TD
 --
 Symbolic Z-matrix:
 Charge =  0 Multiplicity = 1

                         Standard orientation:
 ---------------------------------------------------------------------
 Center     Atomic      Atomic             Coordinates (Angstroms)
 Number     Number       Type             X           Y           Z
 ---------------------------------------------------------------------
      1         12           0       -7.141682    0.633224   -0.001810
      2          6           0       -4.848180   -1.976903    0.479145
      3          6           0       -4.743817    2.801318    1.121973
      4          6           0       -9.406889    3.148084   -0.309579
      5          6           0       -9.524553   -1.579926   -0.944991
      6          7           0       -5.076352    0.407166    0.745132
      7          6           0       -4.328348   -0.762350    0.774301
      8          6           0       -2.860609   -0.514299    1.182667
      9          6           0       -3.056407    1.004187    1.617731
     10          6           0       -4.443254    1.443230    1.180377
     11          6           0       -2.842349    1.209334    3.139714
     12          6           0       -1.801271   -0.661663    0.075904
     13          6           0       -0.455282   -0.465807    0.545549
     14          6           0        0.549122   -0.733228   -0.532532
     15          8           0        0.247201   -1.077241   -1.734504
     16          8           0        1.770222   -0.446520   -0.139298
     17          7           0       -7.006980    2.640374    0.305242
     18          6           0       -6.000677    3.398157    0.700814
     19          6           0       -6.301814    4.747168    0.791133
     20          6           0       -7.605071    4.905992    0.342146
     21          6           0       -8.080951    3.520424    0.080172
     22          6           0       -5.305098    5.829680    0.975338
     23          6           0       -8.442930    6.160241    0.152279
     24          6           0       -8.289202    7.237031    0.998932
     25          7           0       -9.140316    0.798560   -0.465000
     26          6           0       -9.995642    1.889247   -0.550514
     27          6           0      -11.214462    1.542420   -1.044547
     28          6           0      -11.252412    0.195399   -1.306461
     29          6           0       -9.887717   -0.250339   -0.851657
     30          6           0      -12.310449    2.586348   -1.287844
     31          6           0      -12.446747   -0.751948   -1.750196
     32          6           0      -12.314192   -1.166697   -3.126383
     33          7           0       -7.268897   -1.301772   -0.182171
     34          6           0       -8.322034   -2.148070   -0.548246
     35          6           0       -7.898907   -3.583399   -0.491096
     36          6           0       -6.547411   -3.485344   -0.112557
     37          6           0       -6.242854   -2.105016    0.105677
     38          6           0       -8.724708   -4.718264   -0.797721
     39          6           0       -5.338992   -4.411049    0.033814
     40          8           0       -5.324918   -5.602334    0.105860
     41          6           0       -4.205007   -3.351947    0.529150
     42          6           0       -3.631607   -3.809242    1.847149
     43          8           0       -3.778595   -3.246439    2.898594
     44          8           0       -2.938807   -4.885192    1.676171
     45          6           0       -2.357914   -5.478835    2.905294
     46          6           0        2.741327   -0.627574   -1.254576
     47          6           0        4.175574   -0.494739   -0.630424
     48          6           0        5.108962    0.334841   -0.950621
     49          6           0        5.258685    1.286309   -2.247128
     50          6           0        6.474046    0.383012   -0.141215
     51          6           0        7.573016   -0.240802   -0.868032
     52          6           0        8.892075   -0.061853   -0.113610
     53          6           0       10.177005   -0.558710   -0.754991
     54          6           0       10.142373   -1.947081   -1.337510
     55          6           0       11.407600   -0.307382    0.109529
     56          6           0       12.826962   -0.477745   -0.626737
     57          6           0       14.005790   -0.175307    0.224311
     58          6           0       15.314766   -0.346088   -0.550905
     59          6           0       15.676965   -1.782481   -0.794413
     60          6           0       16.362791    0.355901    0.254013
     61          6           0       17.834317    0.631426   -0.295396
     62          6           0       18.823606    1.290049    0.755249
     63          6           0       20.224221    1.378237    0.263852
     64          6           0       20.275085    2.245546   -0.982197
     65          6           0       21.206856    1.996634    1.307495
     66          1           0       -4.057637    3.467304    1.364430
     67          1           0      -10.131954    4.057445   -0.346523
     68          1           0      -10.219877   -2.505692   -1.361650
     69          1           0       -2.652155   -1.118048    2.119218
     70          1           0       -2.332336    1.529400    1.269585
     71          1           0       -1.919176    0.814006    3.498730
     72          1           0       -2.831709    2.239809    3.397873
     73          1           0       -3.667533    0.637985    3.552657
     74          1           0       -1.978895   -1.571286   -0.477882
     75          1           0       -2.009784    0.068088   -0.549846
     76          1           0       -0.499749    0.539529    0.994403
     77          1           0       -0.261206   -1.149952    1.379841
     78          1           0       -5.669735    6.777063    0.628073
     79          1           0       -5.278997    6.157699    1.900509
     80          1           0       -4.166066    5.704415    0.776783
     81          1           0       -9.104800    6.132746   -0.603001
     82          1           0       -8.757372    8.145855    0.517551
     83          1           0       -7.451392    7.285830    1.722169
     84          1           0      -12.107872    3.403400   -1.942254
     85          1           0      -13.193423    1.993895   -1.554749
     86          1           0      -12.758751    3.186428   -0.506388
     87          1           0      -12.502459   -1.379449   -0.972541
     88          1           0      -13.171553   -0.362646   -1.230735
     89          1           0      -13.224497   -1.851295   -3.357761
     90          1           0      -12.167322   -0.144411   -3.696887
     91          1           0      -11.498604   -1.638463   -3.397470
     92          1           0       -9.001053   -4.594799   -1.894396
     93          1           0       -8.091526   -5.697689   -0.498809
     94          1           0       -9.594968   -4.432667   -0.070448
     95          1           0       -3.533305   -3.565223   -0.456284
     96          1           0       -1.584455   -4.847953    3.301075
     97          1           0       -2.947775   -6.039101    3.552315
     98          1           0       -1.803637   -6.361817    2.406520
     99          1           0        2.448009   -1.834993   -1.619805
    100          1           0        2.549976    0.054007   -2.068441
    101          1           0        4.434240   -1.133053    0.258179
    102          1           0        4.211284    1.732736   -2.440927
    103          1           0        5.854930    2.251146   -1.979612
    104          1           0        5.709074    0.485666   -3.042361
    105          1           0        6.770943    1.517223    0.065910
    106          1           0        6.069760   -0.121206    0.715665
    107          1           0        7.256200   -1.243255   -1.216628
    108          1           0        7.807505    0.460021   -1.586934
    109          1           0        8.998752    0.809562    0.115750
    110          1           0        8.774135   -0.678380    0.707779
    111          1           0       10.258109    0.151720   -1.574587
    112          1           0        9.436967   -2.144264   -2.168621
    113          1           0       10.855777   -2.181074   -1.924689
    114          1           0       10.107750   -2.866481   -0.649672
    115          1           0       11.172924    0.740019    0.507085
    116          1           0       11.413458   -1.140889    1.026534
    117          1           0       12.693838   -1.417941   -0.866251
    118          1           0       12.756806    0.146098   -1.513925
    119          1           0       13.806561    0.837839    0.658865
    120          1           0       13.975569   -0.740045    1.109833
    121          1           0       15.246119    0.323574   -1.329965
    122          1           0       15.862734   -2.436470    0.190863
    123          1           0       14.825597   -2.317298   -1.395592
    124          1           0       16.441077   -1.862433   -1.246897
    125          1           0       15.851969    1.318353    0.479706
    126          1           0       16.513552   -0.160129    1.307346
    127          1           0       18.264197   -0.400814   -0.591833
    128          1           0       17.685881    1.039275   -1.245683
    129          1           0       18.527639    2.363864    0.801095
    130          1           0       18.951778    0.533828    1.735155
    131          1           0       20.586154    0.285279   -0.268369
    132          1           0       19.920723    3.392019   -0.829614
    133          1           0       21.286771    2.324338   -1.145647
    134          1           0       19.878957    1.782395   -1.987280
    135          1           0       21.171766    1.503459    2.085269
    136          1           0       22.253013    2.115801    1.018521
    137          1           0       20.747956    3.006164    1.440617
 ---------------------------------------------------------------------

 SCF Done:  E(RCAM-B3LYP) =  -2932.49156466     A.U. after   17 cycles

 Excitation energies and oscillator strengths:

 Excited State   1:      Singlet-A      2.0828 eV  595.27 nm  f=0.2166  <S**2>=0.000
     240 -> 243        0.24775
     241 -> 242        0.64685
 This state for optimization and/or second-order correction.
 Total Energy, E(TD-HF/TD-KS) =  -2932.41502224
 Copying the excited state density for this state as the 1-particle RhoCI density.

 The electronic state is 1-A.
 Alpha  occ. eigenvalues --  -46.83803 -19.27580 -19.26883 -19.21920 -19.20204
 Alpha  occ. eigenvalues --  -19.19913 -14.40387 -14.39603 -14.38930 -14.38693
 Alpha  occ. eigenvalues --  -10.39384 -10.38644 -10.36344 -10.34280 -10.31838
 Alpha  occ. eigenvalues --  -10.29909 -10.29467 -10.29445 -10.29384 -10.29189
 Alpha  occ. eigenvalues --  -10.28878 -10.28807 -10.28529 -10.28523 -10.28376
 Alpha  occ. eigenvalues --  -10.28298 -10.28105 -10.27966 -10.27682 -10.27534
 Alpha  occ. eigenvalues --  -10.27477 -10.27264 -10.27147 -10.27092 -10.27011
 Alpha  occ. eigenvalues --  -10.26828 -10.26713 -10.26695 -10.26456 -10.26425
 Alpha  occ. eigenvalues --  -10.26256 -10.26174 -10.25957 -10.25605 -10.25551
 Alpha  occ. eigenvalues --  -10.25527 -10.25518 -10.25306 -10.25007 -10.24936
 Alpha  occ. eigenvalues --  -10.24869 -10.24764 -10.24749 -10.24671 -10.24439
 Alpha  occ. eigenvalues --  -10.24388 -10.24051 -10.24028 -10.23898 -10.23852
 Alpha  occ. eigenvalues --  -10.23673 -10.23602 -10.23451 -10.23401 -10.22204
 Alpha  occ. eigenvalues --   -3.12933  -1.87629  -1.87155  -1.87142  -1.19635
 Alpha  occ. eigenvalues --   -1.18475  -1.13233  -1.09169  -1.05911  -1.04450
 Alpha  occ. eigenvalues --   -1.03495  -1.03337  -1.02437  -0.92156  -0.91767
 Alpha  occ. eigenvalues --   -0.91127  -0.90981  -0.89648  -0.89226  -0.89219
 Alpha  occ. eigenvalues --   -0.88509  -0.88242  -0.87556  -0.86797  -0.86098
 Alpha  occ. eigenvalues --   -0.85483  -0.84278  -0.83987  -0.83228  -0.82977
 Alpha  occ. eigenvalues --   -0.81474  -0.80937  -0.80523  -0.80082  -0.77958
 Alpha  occ. eigenvalues --   -0.77738  -0.77050  -0.76986  -0.76727  -0.76504
 Alpha  occ. eigenvalues --   -0.75975  -0.75410  -0.74747  -0.73903  -0.73644
 Alpha  occ. eigenvalues --   -0.71829  -0.70808  -0.70570  -0.69716  -0.67793
 Alpha  occ. eigenvalues --   -0.67082  -0.66859  -0.65584  -0.65322  -0.64636
 Alpha  occ. eigenvalues --   -0.63942  -0.63572  -0.63080  -0.62233  -0.61801
 Alpha  occ. eigenvalues --   -0.61225  -0.60823  -0.60340  -0.59854  -0.58632
 Alpha  occ. eigenvalues --   -0.58161  -0.57919  -0.57808  -0.57576  -0.57085
 Alpha  occ. eigenvalues --   -0.56604  -0.55904  -0.55720  -0.55688  -0.54960
 Alpha  occ. eigenvalues --   -0.54754  -0.54273  -0.54154  -0.53953  -0.53106
 Alpha  occ. eigenvalues --   -0.53031  -0.52680  -0.52328  -0.51832  -0.51578
 Alpha  occ. eigenvalues --   -0.51373  -0.51151  -0.51014  -0.50788  -0.50643
 Alpha  occ. eigenvalues --   -0.50313  -0.50102  -0.49996  -0.49813  -0.49680
 Alpha  occ. eigenvalues --   -0.49176  -0.49077  -0.48673  -0.48601  -0.48187
 Alpha  occ. eigenvalues --   -0.48114  -0.47904  -0.47680  -0.47463  -0.47213
 Alpha  occ. eigenvalues --   -0.46961  -0.46780  -0.46692  -0.46350  -0.46267
 Alpha  occ. eigenvalues --   -0.46070  -0.45823  -0.45577  -0.45043  -0.44984
 Alpha  occ. eigenvalues --   -0.44792  -0.44604  -0.44312  -0.44115  -0.44022
 Alpha  occ. eigenvalues --   -0.43923  -0.43798  -0.43646  -0.43452  -0.43355
 Alpha  occ. eigenvalues --   -0.43131  -0.42798  -0.42597  -0.42494  -0.42427
 Alpha  occ. eigenvalues --   -0.41990  -0.41895  -0.41736  -0.41424  -0.41326
 Alpha  occ. eigenvalues --   -0.41045  -0.40861  -0.40713  -0.40394  -0.40064
 Alpha  occ. eigenvalues --   -0.40015  -0.39773  -0.39560  -0.39480  -0.39226
 Alpha  occ. eigenvalues --   -0.38786  -0.38223  -0.37822  -0.37694  -0.37645
 Alpha  occ. eigenvalues --   -0.37146  -0.36775  -0.36747  -0.36623  -0.36437
 Alpha  occ. eigenvalues --   -0.36240  -0.36074  -0.35964  -0.35508  -0.35345
 Alpha  occ. eigenvalues --   -0.34798  -0.34487  -0.34411  -0.33580  -0.33530
 Alpha  occ. eigenvalues --   -0.33446  -0.32756  -0.31513  -0.30887  -0.30711
 Alpha  occ. eigenvalues --   -0.30028  -0.29176  -0.28643  -0.27540  -0.22535
 Alpha  occ. eigenvalues --   -0.20851
 Alpha virt. eigenvalues --   -0.05902  -0.02506   0.01890   0.03991   0.05125
 Alpha virt. eigenvalues --    0.05868   0.06334   0.06807   0.07848   0.08114
 Alpha virt. eigenvalues --    0.09234   0.10813   0.11364   0.11810   0.12005

 Mulliken charges:
               1
     1  Mg   0.826757
     2  C    0.063202
     3  C   -0.173213
     4  C   -0.211961
     5  C   -0.188791
     6  N   -0.657359
     7  C    0.271816
     8  C   -0.167755
     9  C   -0.173019
    10  C    0.398806
    11  C   -0.317116
    12  C   -0.150185
    13  C   -0.268612
    14  C    0.620349
    15  O   -0.521312
    16  O   -0.452261
    17  N   -0.702833
    18  C    0.323992
    19  C    0.021673
    20  C   -0.010027
    21  C    0.277997
    22  C   -0.389730
    23  C   -0.058292
    24  C   -0.238559
    25  N   -0.686965
    26  C    0.315555
    27  C    0.024545
    28  C   -0.067359
    29  C    0.295530
    30  C   -0.382105
    31  C   -0.155693
    32  C   -0.292520
    33  N   -0.743649
    34  C    0.252482
    35  C    0.044223
    36  C   -0.059824
    37  C    0.357813
    38  C   -0.380280
    39  C    0.372777
    40  O   -0.419940
    41  C   -0.344339
    42  C    0.644095
    43  O   -0.486888
    44  O   -0.430245
    45  C   -0.096198
    46  C    0.013507
    47  C   -0.132115
    48  C    0.082361
    49  C   -0.342380
    50  C   -0.209644
    51  C   -0.168226
    52  C   -0.143228
    53  C   -0.068030
    54  C   -0.316254
    55  C   -0.179698
    56  C   -0.167453
    57  C   -0.176100
    58  C   -0.052036
    59  C   -0.272023
    60  C   -0.175933
    61  C   -0.191713
    62  C   -0.132366
    63  C   -0.064784
    64  C   -0.296310
    65  C   -0.288277
    66  H    0.046418
    67  H    0.082391
    68  H    0.090330
    69  H    0.124098
    70  H    0.091526
    71  H    0.103400
    72  H    0.107114
    73  H    0.123475
    74  H    0.119239
    75  H    0.123178
    76  H    0.136359
    77  H    0.132413
    78  H    0.114935
    79  H    0.134287
    80  H    0.112716
    81  H    0.101546
    82  H    0.100757
    83  H    0.106412
    84  H    0.121983
    85  H    0.108197
    86  H    0.116907
    87  H    0.102282
    88  H    0.101126
    89  H    0.091893
    90  H    0.102093
    91  H    0.129401
    92  H    0.133700
    93  H    0.145560
    94  H    0.128643
    95  H    0.153394
    96  H    0.140809
    97  H    0.151434
    98  H    0.115590
    99  H    0.112757
   100  H    0.141179
   101  H    0.089583
   102  H    0.105980
   103  H    0.108603
   104  H    0.128464
   105  H    0.076881
   106  H    0.093361
   107  H    0.103112
   108  H    0.102441
   109  H    0.082458
   110  H    0.094605
   111  H    0.076143
   112  H    0.086431
   113  H    0.116643
   114  H    0.088612
   115  H    0.071469
   116  H    0.055897
   117  H    0.113544
   118  H    0.086223
   119  H    0.084362
   120  H    0.097400
   121  H    0.093714
   122  H    0.082406
   123  H    0.081751
   124  H    0.111076
   125  H    0.078801
   126  H    0.061262
   127  H    0.074611
   128  H    0.103299
   129  H    0.097686
   130  H    0.074395
   131  H    0.047731
   132  H    0.069282
   133  H    0.111523
   134  H    0.089740
   135  H    0.109467
   136  H    0.104528
   137  H    0.095099
 Sum of Mulliken charges =   0.00000

 Dipole moment (field-independent basis, Debye):
    X=              2.8792    Y=              2.4232    Z=             -0.5414  Tot=              3.8019
 Quadrupole moment (field-independent basis, Debye-Ang):
   XX=           -335.7210   YY=           -380.0769   ZZ=           -400.6077
   XY=             -7.3589   XZ=              6.9095   YZ=             -4.6154

 Normal termination of Gaussian 09 at Sat Jul  6 12:21:10 2019.
