 Gaussian 09, Revision D.01,
 Gaussian 09:  ES64L-G09RevD.01 24-Apr-2013

 -------------------------------------
 # td=(NStates=1) CAM-B3LYP/6-31G(d,p)
 -------------------------------------

 --
 TD
 --
 Symbolic Z-matrix:
 Charge =  0 Multiplicity = 1

                         Standard orientation:
 ---------------------------------------------------------------------
 Center     Atomic      Atomic             Coordinates (Angstroms)
 Number     Number       Type             X           Y           Z
 ---------------------------------------------------------------------
      1         12           0       -7.253548    0.649044    0.223692
      2          6           0       -4.879002   -1.876441    0.415194
      3          6           0       -4.792018    2.853717    1.217190
      4          6           0       -9.400315    3.097545   -0.449925
      5          6           0       -9.641460   -1.746667   -0.792735
      6          7           0       -5.048500    0.505998    0.689347
      7          6           0       -4.330424   -0.700949    0.753012
      8          6           0       -2.977105   -0.374359    1.271697
      9          6           0       -3.029456    1.112615    1.623536
     10          6           0       -4.300881    1.510572    1.109282
     11          6           0       -2.988265    1.299361    3.213858
     12          6           0       -1.976384   -0.603915    0.018116
     13          6           0       -0.504994   -0.503808    0.454170
     14          6           0        0.550941   -0.761949   -0.638004
     15          8           0        0.211997   -1.107400   -1.740541
     16          8           0        1.829241   -0.540884   -0.228222
     17          7           0       -7.081269    2.582229    0.307071
     18          6           0       -5.990362    3.375120    0.811134
     19          6           0       -6.507132    4.766897    0.863707
     20          6           0       -7.744957    4.793816    0.335327
     21          6           0       -8.093849    3.455929   -0.067323
     22          6           0       -5.554115    5.976294    1.213497
     23          6           0       -8.582459    6.007859    0.097687
     24          6           0       -8.492836    7.129383    0.754225
     25          7           0       -9.190652    0.659387   -0.386931
     26          6           0       -9.882568    1.825395   -0.698292
     27          6           0      -11.166817    1.476123   -1.094668
     28          6           0      -11.264308    0.065533   -1.204339
     29          6           0       -9.951336   -0.384636   -0.767894
     30          6           0      -12.227167    2.568898   -1.641374
     31          6           0      -12.456344   -0.692063   -1.729673
     32          6           0      -12.309211   -1.046987   -3.286101
     33          7           0       -7.299341   -1.375869   -0.164090
     34          6           0       -8.325790   -2.273344   -0.579112
     35          6           0       -7.818730   -3.610240   -0.510709
     36          6           0       -6.472492   -3.524213   -0.083024
     37          6           0       -6.218220   -2.181805    0.126253
     38          6           0       -8.603448   -4.925894   -0.897009
     39          6           0       -5.406440   -4.255679    0.188365
     40          8           0       -5.177439   -5.501862    0.188821
     41          6           0       -4.254947   -3.350386    0.560861
     42          6           0       -3.615179   -3.570236    1.818142
     43          8           0       -3.815496   -3.067888    2.995061
     44          8           0       -2.906478   -4.730248    1.738745
     45          6           0       -2.211933   -5.170760    2.926376
     46          6           0        2.873737   -0.740801   -1.274447
     47          6           0        4.198231   -0.633617   -0.482353
     48          6           0        5.180840    0.199246   -0.830291
     49          6           0        5.171478    1.151487   -2.045989
     50          6           0        6.432283    0.176952   -0.037213
     51          6           0        7.680727   -0.259223   -0.831833
     52          6           0        8.949074   -0.241940   -0.079429
     53          6           0       10.257363   -0.659076   -0.844638
     54          6           0       10.265670   -2.163163   -1.083007
     55          6           0       11.454666   -0.268381    0.056120
     56          6           0       12.875473   -0.385002   -0.675499
     57          6           0       14.017981   -0.222431    0.274482
     58          6           0       15.363953   -0.221518   -0.461578
     59          6           0       15.728172   -1.654101   -0.757221
     60          6           0       16.498331    0.328226    0.406824
     61          6           0       17.832494    0.628685   -0.274266
     62          6           0       18.896213    1.349672    0.670327
     63          6           0       20.261064    1.526691    0.055732
     64          6           0       20.356476    2.280846   -1.285595
     65          6           0       21.162887    2.166705    1.134258
     66          1           0       -4.026180    3.687081    1.530386
     67          1           0      -10.089534    3.996880   -0.658821
     68          1           0      -10.488471   -2.265042   -0.967348
     69          1           0       -2.664575   -1.119405    1.973033
     70          1           0       -2.383787    1.675063    1.178609
     71          1           0       -2.267086    0.882979    3.675525
     72          1           0       -2.984179    2.388688    3.394046
     73          1           0       -3.755641    0.619261    3.550684
     74          1           0       -2.148171   -1.561442   -0.314919
     75          1           0       -2.124242    0.112826   -0.711693
     76          1           0       -0.261474    0.419681    0.848322
     77          1           0       -0.314217   -1.146594    1.306971
     78          1           0       -6.327131    6.762543    0.678682
     79          1           0       -5.354749    6.127941    2.315301
     80          1           0       -4.539595    5.945641    0.377949
     81          1           0       -9.192760    5.936008   -0.584549
     82          1           0       -8.752181    8.038035    0.345908
     83          1           0       -7.745792    7.545856    1.546532
     84          1           0      -11.622766    3.482544   -2.336871
     85          1           0      -13.034769    2.064228   -2.368402
     86          1           0      -12.854138    2.886379   -0.736095
     87          1           0      -12.564398   -1.653382   -1.330074
     88          1           0      -13.345770   -0.099712   -1.437926
     89          1           0      -13.061695   -1.704838   -3.683199
     90          1           0      -12.486868   -0.027575   -3.871654
     91          1           0      -11.117373   -1.331491   -3.696145
     92          1           0       -8.345054   -4.985510   -2.258884
     93          1           0       -7.891395   -5.826275   -0.475637
     94          1           0       -9.566743   -5.078674   -0.476658
     95          1           0       -3.590032   -3.509997   -0.144078
     96          1           0       -1.632278   -4.240294    3.483780
     97          1           0       -2.871242   -5.538515    3.612968
     98          1           0       -1.773566   -6.015029    2.458480
     99          1           0        2.803536   -1.883275   -1.669026
    100          1           0        2.860348   -0.093545   -2.146071
    101          1           0        4.124696   -1.268053    0.367767
    102          1           0        4.183411    1.381979   -2.710059
    103          1           0        5.421332    2.103910   -1.470679
    104          1           0        5.669753    1.003776   -2.929922
    105          1           0        6.515483    1.154881    0.492058
    106          1           0        6.288950   -0.374527    0.778143
    107          1           0        7.459591   -1.231926   -1.132266
    108          1           0        7.879341    0.218420   -1.735112
    109          1           0        8.990161    0.839483    0.246852
    110          1           0        8.986196   -0.816182    0.670393
    111          1           0       10.418005    0.101899   -1.744785
    112          1           0        9.329803   -2.415821   -1.571584
    113          1           0       11.008961   -2.514989   -1.842084
    114          1           0       10.531559   -2.693380   -0.083679
    115          1           0       11.455634    0.767463    0.373126
    116          1           0       11.318535   -0.869887    0.945283
    117          1           0       13.039222   -1.285482   -1.254151
    118          1           0       13.031953    0.416850   -1.504917
    119          1           0       13.828834    0.844888    0.791231
    120          1           0       14.105081   -0.904479    0.923506
    121          1           0       15.129767    0.244112   -1.452754
    122          1           0       15.830341   -2.363275    0.111546
    123          1           0       15.102809   -2.082300   -1.494261
    124          1           0       16.756889   -1.833589   -1.253639
    125          1           0       16.222876    1.208029    0.954697
    126          1           0       16.354237   -0.403130    1.127534
    127          1           0       18.010399   -0.486882   -0.603115
    128          1           0       17.493809    1.194705   -0.981405
    129          1           0       18.641344    2.268249    0.876480
    130          1           0       18.760540    0.979600    1.628795
    131          1           0       20.606217    0.465673    0.013696
    132          1           0       19.892851    3.189485   -1.227388
    133          1           0       21.346849    2.501757   -1.557388
    134          1           0       19.948274    1.673882   -2.162788
    135          1           0       20.961737    1.406233    2.013383
    136          1           0       22.244376    2.409936    1.032346
    137          1           0       20.647780    3.153254    1.728012
 ---------------------------------------------------------------------

 SCF Done:  E(RCAM-B3LYP) =  -2932.50282834     A.U. after   18 cycles

 Excitation energies and oscillator strengths:

 Excited State   1:      Singlet-A      2.0795 eV  596.21 nm  f=0.2551  <S**2>=0.000
     240 -> 243        0.23407
     241 -> 242        0.66034
 This state for optimization and/or second-order correction.
 Total Energy, E(TD-HF/TD-KS) =  -2932.42640686
 Copying the excited state density for this state as the 1-particle RhoCI density.

 The electronic state is 1-A.
 Alpha  occ. eigenvalues --  -46.83870 -19.26407 -19.25370 -19.20467 -19.19961
 Alpha  occ. eigenvalues --  -19.17881 -14.41835 -14.39380 -14.39357 -14.38723
 Alpha  occ. eigenvalues --  -10.38833 -10.38833 -10.32845 -10.32725 -10.31463
 Alpha  occ. eigenvalues --  -10.30837 -10.30494 -10.30204 -10.29999 -10.29786
 Alpha  occ. eigenvalues --  -10.29732 -10.29307 -10.29208 -10.28889 -10.28760
 Alpha  occ. eigenvalues --  -10.28639 -10.28592 -10.28165 -10.28062 -10.27838
 Alpha  occ. eigenvalues --  -10.27719 -10.27377 -10.27372 -10.27242 -10.27239
 Alpha  occ. eigenvalues --  -10.27151 -10.27138 -10.27010 -10.26895 -10.26815
 Alpha  occ. eigenvalues --  -10.26752 -10.26683 -10.26587 -10.26514 -10.26461
 Alpha  occ. eigenvalues --  -10.26460 -10.26389 -10.26301 -10.25814 -10.25754
 Alpha  occ. eigenvalues --  -10.25642 -10.25520 -10.25498 -10.25099 -10.25043
 Alpha  occ. eigenvalues --  -10.24980 -10.24572 -10.24370 -10.24038 -10.23863
 Alpha  occ. eigenvalues --  -10.23820 -10.23759 -10.23490 -10.23353 -10.23234
 Alpha  occ. eigenvalues --   -3.12978  -1.87669  -1.87247  -1.87133  -1.17005
 Alpha  occ. eigenvalues --   -1.16111  -1.08886  -1.07181  -1.05274  -1.04696
 Alpha  occ. eigenvalues --   -1.03448  -1.02267  -1.01721  -0.93385  -0.91911
 Alpha  occ. eigenvalues --   -0.91412  -0.90381  -0.90034  -0.89631  -0.89055
 Alpha  occ. eigenvalues --   -0.88983  -0.88435  -0.87227  -0.86144  -0.85848
 Alpha  occ. eigenvalues --   -0.85446  -0.84795  -0.83825  -0.83572  -0.82402
 Alpha  occ. eigenvalues --   -0.81615  -0.81098  -0.80617  -0.79979  -0.78400
 Alpha  occ. eigenvalues --   -0.77430  -0.77308  -0.76940  -0.76708  -0.75336
 Alpha  occ. eigenvalues --   -0.75292  -0.74735  -0.74430  -0.73653  -0.72560
 Alpha  occ. eigenvalues --   -0.72086  -0.71086  -0.69978  -0.69670  -0.69275
 Alpha  occ. eigenvalues --   -0.68517  -0.68134  -0.67064  -0.65873  -0.65543
 Alpha  occ. eigenvalues --   -0.64148  -0.63606  -0.63548  -0.62897  -0.62382
 Alpha  occ. eigenvalues --   -0.62255  -0.61354  -0.60957  -0.60791  -0.59629
 Alpha  occ. eigenvalues --   -0.58768  -0.58693  -0.57755  -0.57012  -0.56537
 Alpha  occ. eigenvalues --   -0.56327  -0.55997  -0.55470  -0.55210  -0.55054
 Alpha  occ. eigenvalues --   -0.54822  -0.54234  -0.54061  -0.53610  -0.53366
 Alpha  occ. eigenvalues --   -0.53169  -0.53010  -0.52662  -0.51859  -0.51461
 Alpha  occ. eigenvalues --   -0.51089  -0.50915  -0.50824  -0.50561  -0.50455
 Alpha  occ. eigenvalues --   -0.50289  -0.50109  -0.49751  -0.49675  -0.49360
 Alpha  occ. eigenvalues --   -0.49167  -0.49077  -0.48808  -0.48561  -0.48186
 Alpha  occ. eigenvalues --   -0.47971  -0.47842  -0.47636  -0.47580  -0.47082
 Alpha  occ. eigenvalues --   -0.46541  -0.46135  -0.46031  -0.45682  -0.45594
 Alpha  occ. eigenvalues --   -0.45318  -0.45225  -0.45202  -0.45146  -0.44817
 Alpha  occ. eigenvalues --   -0.44627  -0.44353  -0.44253  -0.44035  -0.43515
 Alpha  occ. eigenvalues --   -0.43438  -0.43149  -0.42976  -0.42908  -0.42743
 Alpha  occ. eigenvalues --   -0.42456  -0.42326  -0.42083  -0.42007  -0.41968
 Alpha  occ. eigenvalues --   -0.41652  -0.41481  -0.41109  -0.41023  -0.40910
 Alpha  occ. eigenvalues --   -0.40800  -0.40702  -0.40648  -0.40384  -0.40247
 Alpha  occ. eigenvalues --   -0.40209  -0.39974  -0.39893  -0.39694  -0.39418
 Alpha  occ. eigenvalues --   -0.39292  -0.38943  -0.38575  -0.38394  -0.38381
 Alpha  occ. eigenvalues --   -0.38091  -0.37669  -0.37234  -0.36930  -0.36466
 Alpha  occ. eigenvalues --   -0.36338  -0.36216  -0.36124  -0.35972  -0.35861
 Alpha  occ. eigenvalues --   -0.35268  -0.35253  -0.34496  -0.33539  -0.33299
 Alpha  occ. eigenvalues --   -0.33053  -0.32595  -0.32332  -0.31189  -0.29999
 Alpha  occ. eigenvalues --   -0.29049  -0.28911  -0.28575  -0.27804  -0.23729
 Alpha  occ. eigenvalues --   -0.21531
 Alpha virt. eigenvalues --   -0.06869  -0.03290   0.00769   0.03558   0.04285
 Alpha virt. eigenvalues --    0.05510   0.06367   0.06572   0.07447   0.07909
 Alpha virt. eigenvalues --    0.08434   0.10062   0.10680   0.11282   0.12162

 Mulliken charges:
               1
     1  Mg   0.840800
     2  C    0.021354
     3  C   -0.227847
     4  C   -0.197524
     5  C   -0.121096
     6  N   -0.614782
     7  C    0.295280
     8  C   -0.196114
     9  C   -0.129496
    10  C    0.364599
    11  C   -0.298010
    12  C   -0.167615
    13  C   -0.280536
    14  C    0.604900
    15  O   -0.462992
    16  O   -0.488538
    17  N   -0.750887
    18  C    0.322481
    19  C   -0.007395
    20  C    0.010358
    21  C    0.319009
    22  C   -0.343273
    23  C   -0.004513
    24  C   -0.266670
    25  N   -0.718406
    26  C    0.325259
    27  C   -0.007512
    28  C    0.013044
    29  C    0.305780
    30  C   -0.349025
    31  C   -0.240829
    32  C   -0.306173
    33  N   -0.712837
    34  C    0.249945
    35  C    0.010542
    36  C    0.136721
    37  C    0.295264
    38  C   -0.346983
    39  C    0.261753
    40  O   -0.517491
    41  C   -0.251815
    42  C    0.610157
    43  O   -0.533437
    44  O   -0.442601
    45  C   -0.071710
    46  C    0.014665
    47  C   -0.131240
    48  C    0.110644
    49  C   -0.355359
    50  C   -0.223355
    51  C   -0.179058
    52  C   -0.149117
    53  C   -0.081055
    54  C   -0.307470
    55  C   -0.168410
    56  C   -0.198967
    57  C   -0.124885
    58  C   -0.093040
    59  C   -0.324734
    60  C   -0.181331
    61  C   -0.159972
    62  C   -0.183320
    63  C   -0.050289
    64  C   -0.314172
    65  C   -0.304268
    66  H    0.080899
    67  H    0.092147
    68  H    0.083018
    69  H    0.125378
    70  H    0.108303
    71  H    0.123725
    72  H    0.108722
    73  H    0.130476
    74  H    0.124437
    75  H    0.120060
    76  H    0.131463
    77  H    0.127287
    78  H    0.107696
    79  H    0.131026
    80  H    0.088615
    81  H    0.075354
    82  H    0.110354
    83  H    0.106742
    84  H    0.093965
    85  H    0.101722
    86  H    0.124080
    87  H    0.119197
    88  H    0.114814
    89  H    0.118408
    90  H    0.093820
    91  H    0.093176
    92  H    0.087105
    93  H    0.140070
    94  H    0.132847
    95  H    0.168871
    96  H    0.110705
    97  H    0.142905
    98  H    0.132539
    99  H    0.108805
   100  H    0.125215
   101  H    0.101361
   102  H    0.084318
   103  H    0.114911
   104  H    0.139010
   105  H    0.087332
   106  H    0.110020
   107  H    0.100250
   108  H    0.102193
   109  H    0.078654
   110  H    0.091543
   111  H    0.065861
   112  H    0.108670
   113  H    0.106545
   114  H    0.097880
   115  H    0.094829
   116  H    0.085924
   117  H    0.095145
   118  H    0.078966
   119  H    0.062820
   120  H    0.097649
   121  H    0.071709
   122  H    0.098721
   123  H    0.106673
   124  H    0.089756
   125  H    0.075732
   126  H    0.087345
   127  H    0.078490
   128  H    0.112482
   129  H    0.102090
   130  H    0.100530
   131  H    0.093412
   132  H    0.111787
   133  H    0.110247
   134  H    0.095878
   135  H    0.086551
   136  H    0.107195
   137  H    0.057169
 Sum of Mulliken charges =   0.00000

 Dipole moment (field-independent basis, Debye):
    X=              1.3845    Y=              5.8150    Z=              0.0856  Tot=              5.9782
 Quadrupole moment (field-independent basis, Debye-Ang):
   XX=           -346.3094   YY=           -393.9688   ZZ=           -395.9245
   XY=            -31.2922   XZ=             10.5664   YZ=             -2.1911

 Normal termination of Gaussian 09 at Wed Jul  3 09:26:26 2019.
