 Gaussian 16, Revision A.03,
 Gaussian 16:  ES64L-G16RevA.03 25-Dec-2016

 ----------------------------------------------------------------------
 # td=(NStates=1) iop(3/107=0140000000,3/108=0140000000) CAM-B3LYP/6-31
 G(d,p)
 ----------------------------------------------------------------------

 --
 TD
 --
 Symbolic Z-matrix:
 Charge =  0 Multiplicity = 1

                         Standard orientation:
 ---------------------------------------------------------------------
 Center     Atomic      Atomic             Coordinates (Angstroms)
 Number     Number       Type             X           Y           Z
 ---------------------------------------------------------------------
      1         12           0       -7.149330    0.580494    0.166287
      2          6           0       -4.859486   -1.990842    0.513569
      3          6           0       -4.887016    2.830124    1.240914
      4          6           0       -9.430055    3.044890   -0.376552
      5          6           0       -9.475286   -1.756037   -0.816391
      6          7           0       -5.171192    0.394601    0.814394
      7          6           0       -4.301019   -0.715161    0.747530
      8          6           0       -2.915718   -0.323872    1.154990
      9          6           0       -3.096883    1.093709    1.665443
     10          6           0       -4.519813    1.455692    1.181017
     11          6           0       -3.097879    1.228429    3.263209
     12          6           0       -1.942114   -0.446110   -0.044670
     13          6           0       -0.492622   -0.207523    0.329277
     14          6           0        0.594952   -0.442534   -0.608674
     15          8           0        0.392457   -0.831193   -1.786043
     16          8           0        1.903315   -0.327082   -0.137532
     17          7           0       -7.098425    2.551285    0.391883
     18          6           0       -6.131541    3.377182    0.838614
     19          6           0       -6.485952    4.740704    0.844930
     20          6           0       -7.727972    4.834809    0.355575
     21          6           0       -8.089764    3.396033    0.080819
     22          6           0       -5.553745    5.934554    1.253260
     23          6           0       -8.476477    5.967468    0.068928
     24          6           0       -8.491202    7.267220    0.551916
     25          7           0       -9.123727    0.598283   -0.480331
     26          6           0       -9.879748    1.782416   -0.655934
     27          6           0      -11.181994    1.441609   -1.090017
     28          6           0      -11.305490    0.065176   -1.268560
     29          6           0       -9.976182   -0.458530   -0.783843
     30          6           0      -12.269943    2.414626   -1.336427
     31          6           0      -12.380708   -0.727840   -1.653626
     32          6           0      -12.334536   -1.180424   -3.172002
     33          7           0       -7.266252   -1.443890   -0.113535
     34          6           0       -8.281107   -2.331077   -0.525524
     35          6           0       -7.818442   -3.616569   -0.476303
     36          6           0       -6.510939   -3.552677   -0.002390
     37          6           0       -6.152583   -2.221854    0.149081
     38          6           0       -8.524575   -4.909363   -0.751782
     39          6           0       -5.278209   -4.352664    0.233993
     40          8           0       -5.096048   -5.603090    0.176646
     41          6           0       -4.115808   -3.262625    0.491021
     42          6           0       -3.458791   -3.687555    1.857782
     43          8           0       -3.726535   -3.140125    2.897234
     44          8           0       -2.732806   -4.753395    1.676029
     45          6           0       -2.235891   -5.390342    2.883766
     46          6           0        2.877684   -0.647034   -1.165222
     47          6           0        4.181809   -0.229959   -0.550934
     48          6           0        5.160778    0.544397   -1.109443
     49          6           0        5.006020    1.355245   -2.356155
     50          6           0        6.466792    0.524213   -0.317448
     51          6           0        7.662448    0.002878   -1.063116
     52          6           0        8.897232   -0.092209   -0.289091
     53          6           0       10.147590   -0.649453   -0.990906
     54          6           0       10.049800   -2.005828   -1.331343
     55          6           0       11.357290   -0.306299    0.039485
     56          6           0       12.797169   -0.613188   -0.622661
     57          6           0       13.993860   -0.287367    0.190417
     58          6           0       15.271365   -0.267118   -0.509559
     59          6           0       15.642140   -1.660598   -0.926592
     60          6           0       16.442771    0.324869    0.429751
     61          6           0       17.792980    0.645164   -0.195961
     62          6           0       18.755853    1.341101    0.785938
     63          6           0       20.250243    1.380778    0.375785
     64          6           0       20.434302    2.006111   -0.917262
     65          6           0       21.203839    1.940342    1.414490
     66          1           0       -3.981586    3.357073    1.695011
     67          1           0      -10.009502    3.880304   -0.761502
     68          1           0      -10.277269   -2.539282   -0.976852
     69          1           0       -2.621916   -1.003799    1.954165
     70          1           0       -2.219444    1.678710    1.439094
     71          1           0       -2.059234    0.964124    3.455015
     72          1           0       -3.307312    2.338179    3.641862
     73          1           0       -3.792731    0.447258    3.662153
     74          1           0       -2.069290   -1.483328   -0.471782
     75          1           0       -2.397657    0.206984   -0.864939
     76          1           0       -0.369867    0.814378    0.700886
     77          1           0       -0.119923   -0.775612    1.504215
     78          1           0       -5.576298    6.741062    0.456597
     79          1           0       -5.780684    6.141274    2.152423
     80          1           0       -4.457575    5.520526    1.309511
     81          1           0       -9.387490    5.776223   -0.438830
     82          1           0       -9.154587    8.036962    0.094889
     83          1           0       -7.735125    7.658517    1.129031
     84          1           0      -12.042467    3.077511   -2.271219
     85          1           0      -13.153371    1.951145   -1.597032
     86          1           0      -12.289174    3.093105   -0.554551
     87          1           0      -12.547351   -1.672838   -1.266330
     88          1           0      -13.381981   -0.171003   -1.598576
     89          1           0      -13.410564   -1.582534   -3.307478
     90          1           0      -12.364539   -0.190825   -3.785368
     91          1           0      -11.603905   -1.821907   -3.514584
     92          1           0       -9.084272   -4.837003   -1.895122
     93          1           0       -7.795522   -5.825917   -1.104152
     94          1           0       -9.102849   -5.194371   -0.076975
     95          1           0       -3.284311   -3.428749   -0.334297
     96          1           0       -1.764028   -4.570413    3.427339
     97          1           0       -2.859683   -5.766037    3.603303
     98          1           0       -1.561274   -6.172628    2.561873
     99          1           0        2.985841   -1.801321   -1.475889
    100          1           0        2.602509    0.003168   -2.064976
    101          1           0        4.512059   -0.788817    0.446813
    102          1           0        3.870703    1.235593   -3.022889
    103          1           0        5.253352    2.386508   -2.369690
    104          1           0        5.592689    0.744047   -3.116448
    105          1           0        6.558819    1.638832    0.024554
    106          1           0        6.261780   -0.120902    0.495658
    107          1           0        7.107642   -1.110409   -1.313018
    108          1           0        7.786425    0.426904   -2.015756
    109          1           0        9.138821    0.979482    0.006018
    110          1           0        8.822148   -0.477673    0.821841
    111          1           0       10.262348   -0.092397   -1.880803
    112          1           0        9.430962   -2.076768   -2.241098
    113          1           0       11.061721   -2.332621   -1.889427
    114          1           0        9.933930   -2.756327   -0.359814
    115          1           0       11.316710    0.632109    0.120022
    116          1           0       11.211866   -1.034887    0.928296
    117          1           0       12.978135   -1.752587   -0.870651
    118          1           0       12.704438   -0.165919   -1.592844
    119          1           0       13.902996    0.746612    0.565608
    120          1           0       14.083840   -1.117458    1.022089
    121          1           0       15.432415    0.406888   -1.529451
    122          1           0       15.810782   -2.341869    0.001580
    123          1           0       14.810835   -2.439370   -1.422778
    124          1           0       16.708464   -1.536999   -1.310274
    125          1           0       16.105930    1.133608    0.805620
    126          1           0       16.657040   -0.397309    1.289860
    127          1           0       18.356696   -0.305288   -0.397770
    128          1           0       17.498887    1.000129   -1.211284
    129          1           0       18.383266    2.280780    0.960631
    130          1           0       18.656426    0.814881    1.800308
    131          1           0       20.458551    0.413014    0.307649
    132          1           0       20.270607    3.246889   -0.813748
    133          1           0       21.583082    1.893625   -1.284527
    134          1           0       19.735861    1.612316   -1.609215
    135          1           0       21.192952    1.314502    2.438211
    136          1           0       22.156423    2.105157    1.140859
    137          1           0       21.006335    2.915450    1.557293
 ---------------------------------------------------------------------

 SCF Done:  E(RCAM-B3LYP) =  -2933.43611270     A.U. after   16 cycles

 Excitation energies and oscillator strengths:

 Excited State   1:      Singlet-A      2.0258 eV  612.02 nm  f=0.2406  <S**2>=0.000
     240 -> 243       -0.23750
     241 -> 242        0.66322
 This state for optimization and/or second-order correction.
 Total Energy, E(TD-HF/TD-DFT) =  -2933.36166462
 Copying the excited state density for this state as the 1-particle RhoCI density.

 The electronic state is 1-A.
 Alpha  occ. eigenvalues --  -46.79603 -19.22908 -19.21950 -19.16380 -19.16305
 Alpha  occ. eigenvalues --  -19.15561 -14.37899 -14.36197 -14.34731 -14.34056
 Alpha  occ. eigenvalues --  -10.34852 -10.34248 -10.30478 -10.28201 -10.26356
 Alpha  occ. eigenvalues --  -10.26355 -10.26348 -10.26216 -10.26182 -10.25598
 Alpha  occ. eigenvalues --  -10.24792 -10.24585 -10.24162 -10.24069 -10.23837
 Alpha  occ. eigenvalues --  -10.23608 -10.23258 -10.23178 -10.23158 -10.23148
 Alpha  occ. eigenvalues --  -10.22849 -10.22654 -10.22639 -10.22632 -10.22590
 Alpha  occ. eigenvalues --  -10.22559 -10.22502 -10.22433 -10.22352 -10.22269
 Alpha  occ. eigenvalues --  -10.22148 -10.22101 -10.22094 -10.22047 -10.22044
 Alpha  occ. eigenvalues --  -10.21958 -10.21787 -10.21774 -10.21736 -10.21644
 Alpha  occ. eigenvalues --  -10.21621 -10.21620 -10.21604 -10.21530 -10.21255
 Alpha  occ. eigenvalues --  -10.20980 -10.20952 -10.20921 -10.20804 -10.20696
 Alpha  occ. eigenvalues --  -10.20615 -10.20417 -10.19949 -10.19787 -10.18983
 Alpha  occ. eigenvalues --   -3.08277  -1.83214  -1.82757  -1.82684  -1.14468
 Alpha  occ. eigenvalues --   -1.11207  -1.04948  -1.02648  -1.02194  -1.00929
 Alpha  occ. eigenvalues --   -0.99735  -0.97753  -0.95974  -0.87892  -0.86654
 Alpha  occ. eigenvalues --   -0.86003  -0.85704  -0.85368  -0.85012  -0.84365
 Alpha  occ. eigenvalues --   -0.84312  -0.83324  -0.82317  -0.81431  -0.81197
 Alpha  occ. eigenvalues --   -0.80262  -0.79625  -0.79163  -0.79003  -0.78083
 Alpha  occ. eigenvalues --   -0.77165  -0.76402  -0.75943  -0.75297  -0.73770
 Alpha  occ. eigenvalues --   -0.73322  -0.72471  -0.71898  -0.71790  -0.71585
 Alpha  occ. eigenvalues --   -0.70969  -0.70552  -0.69897  -0.68823  -0.68074
 Alpha  occ. eigenvalues --   -0.67197  -0.66273  -0.65666  -0.64954  -0.64429
 Alpha  occ. eigenvalues --   -0.63149  -0.61986  -0.61451  -0.61129  -0.60457
 Alpha  occ. eigenvalues --   -0.60140  -0.59780  -0.58298  -0.57831  -0.57758
 Alpha  occ. eigenvalues --   -0.57106  -0.56995  -0.56827  -0.55937  -0.54989
 Alpha  occ. eigenvalues --   -0.54668  -0.54405  -0.53636  -0.53186  -0.52511
 Alpha  occ. eigenvalues --   -0.52141  -0.51863  -0.51580  -0.51266  -0.50862
 Alpha  occ. eigenvalues --   -0.50683  -0.50451  -0.50324  -0.49351  -0.49190
 Alpha  occ. eigenvalues --   -0.49173  -0.49080  -0.48548  -0.48482  -0.48275
 Alpha  occ. eigenvalues --   -0.48007  -0.47710  -0.47425  -0.47135  -0.47074
 Alpha  occ. eigenvalues --   -0.46980  -0.46671  -0.46579  -0.46297  -0.46054
 Alpha  occ. eigenvalues --   -0.45784  -0.45754  -0.45515  -0.45269  -0.45094
 Alpha  occ. eigenvalues --   -0.44940  -0.44595  -0.44303  -0.44117  -0.44068
 Alpha  occ. eigenvalues --   -0.43866  -0.43431  -0.43190  -0.43025  -0.42742
 Alpha  occ. eigenvalues --   -0.42518  -0.42213  -0.41853  -0.41615  -0.41477
 Alpha  occ. eigenvalues --   -0.41164  -0.40873  -0.40850  -0.40657  -0.40441
 Alpha  occ. eigenvalues --   -0.40223  -0.40125  -0.40090  -0.39769  -0.39467
 Alpha  occ. eigenvalues --   -0.39117  -0.39074  -0.38901  -0.38547  -0.38474
 Alpha  occ. eigenvalues --   -0.38347  -0.38138  -0.38069  -0.37919  -0.37847
 Alpha  occ. eigenvalues --   -0.37823  -0.37656  -0.37615  -0.37094  -0.36950
 Alpha  occ. eigenvalues --   -0.36943  -0.36848  -0.36829  -0.36635  -0.36012
 Alpha  occ. eigenvalues --   -0.35914  -0.35614  -0.35565  -0.35107  -0.34896
 Alpha  occ. eigenvalues --   -0.34480  -0.34255  -0.34011  -0.33743  -0.33649
 Alpha  occ. eigenvalues --   -0.33618  -0.33266  -0.33188  -0.32895  -0.32720
 Alpha  occ. eigenvalues --   -0.32287  -0.31913  -0.30909  -0.30580  -0.30512
 Alpha  occ. eigenvalues --   -0.30422  -0.29710  -0.29531  -0.28486  -0.26349
 Alpha  occ. eigenvalues --   -0.26202  -0.25900  -0.25719  -0.24844  -0.21645
 Alpha  occ. eigenvalues --   -0.19982
 Alpha virt. eigenvalues --   -0.07186  -0.04008  -0.00610   0.01576   0.01734
 Alpha virt. eigenvalues --    0.03889   0.04554   0.05226   0.05369   0.05895
 Alpha virt. eigenvalues --    0.06237   0.08445   0.08782   0.09011   0.09254

 Mulliken charges:
               1
     1  Mg   0.803245
     2  C    0.131721
     3  C   -0.203099
     4  C   -0.190292
     5  C   -0.208904
     6  N   -0.641838
     7  C    0.257267
     8  C   -0.148557
     9  C   -0.165799
    10  C    0.377728
    11  C   -0.307542
    12  C   -0.168433
    13  C   -0.249762
    14  C    0.621322
    15  O   -0.487153
    16  O   -0.480576
    17  N   -0.701080
    18  C    0.311340
    19  C    0.009306
    20  C    0.065341
    21  C    0.291728
    22  C   -0.351023
    23  C   -0.108395
    24  C   -0.249207
    25  N   -0.690280
    26  C    0.340303
    27  C    0.003197
    28  C    0.128010
    29  C    0.273013
    30  C   -0.369973
    31  C   -0.303714
    32  C   -0.315164
    33  N   -0.753676
    34  C    0.335588
    35  C    0.009167
    36  C    0.040081
    37  C    0.299952
    38  C   -0.359878
    39  C    0.356971
    40  O   -0.489617
    41  C   -0.359369
    42  C    0.614213
    43  O   -0.477843
    44  O   -0.412427
    45  C   -0.100412
    46  C    0.025295
    47  C   -0.133198
    48  C    0.138152
    49  C   -0.364791
    50  C   -0.211278
    51  C   -0.151796
    52  C   -0.156008
    53  C   -0.065341
    54  C   -0.274173
    55  C   -0.149576
    56  C   -0.185548
    57  C   -0.149081
    58  C   -0.050549
    59  C   -0.295432
    60  C   -0.163100
    61  C   -0.197684
    62  C   -0.177671
    63  C   -0.039170
    64  C   -0.283804
    65  C   -0.308201
    66  H    0.079003
    67  H    0.086288
    68  H    0.070668
    69  H    0.124616
    70  H    0.099784
    71  H    0.107350
    72  H    0.100218
    73  H    0.135189
    74  H    0.121260
    75  H    0.121733
    76  H    0.143137
    77  H    0.095313
    78  H    0.126042
    79  H    0.146543
    80  H    0.095980
    81  H    0.081499
    82  H    0.103950
    83  H    0.098810
    84  H    0.101694
    85  H    0.113745
    86  H    0.129746
    87  H    0.128138
    88  H    0.098828
    89  H    0.091354
    90  H    0.094985
    91  H    0.130548
    92  H    0.073141
    93  H    0.127247
    94  H    0.142303
    95  H    0.148409
    96  H    0.125581
    97  H    0.148257
    98  H    0.130405
    99  H    0.115596
   100  H    0.120649
   101  H    0.075619
   102  H    0.073011
   103  H    0.132211
   104  H    0.125023
   105  H    0.076479
   106  H    0.108144
   107  H    0.052468
   108  H    0.099903
   109  H    0.080033
   110  H    0.076320
   111  H    0.084162
   112  H    0.105778
   113  H    0.077674
   114  H    0.081377
   115  H    0.099325
   116  H    0.083070
   117  H    0.071944
   118  H    0.092169
   119  H    0.077821
   120  H    0.084767
   121  H    0.057613
   122  H    0.081192
   123  H    0.085861
   124  H    0.095772
   125  H    0.100067
   126  H    0.077958
   127  H    0.087356
   128  H    0.091500
   129  H    0.098621
   130  H    0.081893
   131  H    0.101275
   132  H    0.059820
   133  H    0.078536
   134  H    0.114248
   135  H    0.076045
   136  H    0.107005
   137  H    0.107407
 Sum of Mulliken charges =  -0.00000

 Dipole moment (field-independent basis, Debye):
    X=              1.6024    Y=              4.9148    Z=              0.7656  Tot=              5.2258
 Quadrupole moment (field-independent basis, Debye-Ang):
   XX=           -351.0137   YY=           -391.6999   ZZ=           -398.1652
   XY=            -18.0015   XZ=             12.2628   YZ=             -6.2071

 Normal termination of Gaussian 16 at Mon Sep 23 11:17:44 2019.
