 Gaussian 16, Revision A.03,
 Gaussian 16:  ES64L-G16RevA.03 25-Dec-2016

 ----------------------------------------------------------------------
 # td=(NStates=1) iop(3/107=0140000000,3/108=0140000000) CAM-B3LYP/6-31
 G(d,p)
 ----------------------------------------------------------------------

 --
 TD
 --
 Symbolic Z-matrix:
 Charge =  0 Multiplicity = 1

                         Standard orientation:
 ---------------------------------------------------------------------
 Center     Atomic      Atomic             Coordinates (Angstroms)
 Number     Number       Type             X           Y           Z
 ---------------------------------------------------------------------
      1         12           0       -7.121563    0.618687    0.103458
      2          6           0       -4.846716   -1.953071    0.520109
      3          6           0       -4.807286    2.766661    1.213079
      4          6           0       -9.442398    3.227723   -0.346667
      5          6           0       -9.553947   -1.746635   -0.906543
      6          7           0       -5.075238    0.330909    0.748024
      7          6           0       -4.310033   -0.745205    0.732956
      8          6           0       -2.826061   -0.514849    1.081284
      9          6           0       -2.923554    1.087857    1.554190
     10          6           0       -4.352698    1.467900    1.152316
     11          6           0       -2.824921    1.153657    3.130848
     12          6           0       -1.822485   -0.673652   -0.038267
     13          6           0       -0.454773   -0.389044    0.487862
     14          6           0        0.606265   -0.594817   -0.639430
     15          8           0        0.311760   -1.139073   -1.797690
     16          8           0        1.797922   -0.472880   -0.197314
     17          7           0       -7.149566    2.634014    0.407697
     18          6           0       -6.053805    3.369533    0.937006
     19          6           0       -6.431429    4.732970    0.954442
     20          6           0       -7.631589    4.853594    0.461498
     21          6           0       -8.038306    3.599631    0.137886
     22          6           0       -5.480281    5.811040    1.357136
     23          6           0       -8.473990    6.011396    0.070810
     24          6           0       -8.281890    7.240287    0.677677
     25          7           0       -9.126063    0.729331   -0.592535
     26          6           0       -9.841722    1.869264   -0.705176
     27          6           0      -11.241565    1.527056   -1.044218
     28          6           0      -11.249979    0.176486   -1.258176
     29          6           0       -9.922542   -0.342267   -0.944928
     30          6           0      -12.415457    2.482264   -1.308339
     31          6           0      -12.400828   -0.724467   -1.720618
     32          6           0      -12.297789   -1.171023   -3.216142
     33          7           0       -7.300862   -1.392413   -0.081818
     34          6           0       -8.294322   -2.220259   -0.466673
     35          6           0       -7.918033   -3.541941   -0.516113
     36          6           0       -6.578823   -3.511251   -0.111783
     37          6           0       -6.191993   -2.174322    0.087595
     38          6           0       -8.690518   -4.767335   -0.807608
     39          6           0       -5.466452   -4.335870    0.127413
     40          8           0       -5.335614   -5.508957    0.229328
     41          6           0       -4.230696   -3.340990    0.604558
     42          6           0       -3.571325   -3.704579    1.888220
     43          8           0       -3.762219   -3.284031    2.951690
     44          8           0       -2.876229   -4.905343    1.702233
     45          6           0       -2.374201   -5.431242    2.905693
     46          6           0        2.822367   -0.582817   -1.232044
     47          6           0        4.171179   -0.331414   -0.596246
     48          6           0        5.127128    0.462786   -1.056527
     49          6           0        5.022374    1.345562   -2.241977
     50          6           0        6.451529    0.465450   -0.280953
     51          6           0        7.625708   -0.152503   -1.023507
     52          6           0        8.886772   -0.130802   -0.195184
     53          6           0       10.260595   -0.449416   -0.813420
     54          6           0       10.138351   -1.998965   -1.221869
     55          6           0       11.494671   -0.251243    0.065697
     56          6           0       12.766394   -0.470341   -0.716644
     57          6           0       14.009290    0.083999    0.149768
     58          6           0       15.303191   -0.158497   -0.508302
     59          6           0       15.572465   -1.572348   -0.831788
     60          6           0       16.546117    0.326635    0.407619
     61          6           0       17.859364    0.522453   -0.412157
     62          6           0       18.821637    1.153820    0.770896
     63          6           0       20.262829    1.272159    0.310769
     64          6           0       20.388017    2.180178   -0.934390
     65          6           0       21.193956    1.675516    1.405630
     66          1           0       -4.231898    3.608575    1.538921
     67          1           0      -10.108039    4.010171   -0.348019
     68          1           0      -10.266846   -2.452854   -1.341341
     69          1           0       -2.554087   -1.080279    1.872173
     70          1           0       -2.161549    1.813591    1.049451
     71          1           0       -1.768194    0.807643    3.296996
     72          1           0       -2.774648    2.065800    3.675788
     73          1           0       -3.576610    0.523586    3.731705
     74          1           0       -1.812690   -1.641762   -0.327761
     75          1           0       -1.898178   -0.019421   -0.863960
     76          1           0       -0.137384    0.571197    0.775682
     77          1           0       -0.119276   -1.294438    1.133884
     78          1           0       -5.691594    6.780278    0.970497
     79          1           0       -5.488901    6.189265    2.459050
     80          1           0       -4.517839    5.655198    1.069407
     81          1           0       -9.436450    6.002026   -0.618526
     82          1           0       -8.997285    7.964616    0.537645
     83          1           0       -7.392979    7.447691    1.170856
     84          1           0      -12.185724    3.329395   -2.307621
     85          1           0      -13.566747    1.991409   -1.544522
     86          1           0      -12.592466    3.135241   -0.587709
     87          1           0      -12.440396   -1.540961   -1.100591
     88          1           0      -13.267273   -0.169179   -1.595435
     89          1           0      -13.241680   -1.797195   -3.492509
     90          1           0      -12.162258   -0.408913   -3.869091
     91          1           0      -11.594240   -1.764876   -3.317795
     92          1           0       -9.302180   -4.392381   -1.678593
     93          1           0       -8.002099   -5.325841   -0.921155
     94          1           0       -9.477759   -4.940649   -0.156653
     95          1           0       -3.465248   -3.538059   -0.221223
     96          1           0       -1.548033   -4.907178    3.307127
     97          1           0       -3.240826   -5.478000    3.710358
     98          1           0       -1.811830   -6.304418    2.606528
     99          1           0        2.774067   -1.398311   -1.725219
    100          1           0        2.533910   -0.062030   -2.009819
    101          1           0        4.496387   -1.025600    0.210844
    102          1           0        3.939842    1.428598   -2.368286
    103          1           0        5.379613    2.428727   -2.086310
    104          1           0        5.635906    1.015134   -3.139704
    105          1           0        6.843811    1.465092   -0.282540
    106          1           0        6.413301    0.035741    0.784450
    107          1           0        7.497132   -1.272058   -1.174266
    108          1           0        7.750895    0.266455   -2.050830
    109          1           0        8.868953    0.771443    0.363071
    110          1           0        8.691395   -0.819348    0.666981
    111          1           0       10.175760    0.171698   -1.868411
    112          1           0        9.131047   -2.041038   -1.874141
    113          1           0       10.809657   -2.502877   -1.769764
    114          1           0       10.045215   -2.703751   -0.329819
    115          1           0       11.402418    0.787404    0.338440
    116          1           0       11.264839   -0.923381    0.873483
    117          1           0       12.796840   -1.425651   -1.058754
    118          1           0       12.686970    0.049672   -1.698573
    119          1           0       13.941387    1.230731    0.135151
    120          1           0       14.151408   -0.512215    1.303266
    121          1           0       15.442201    0.374011   -1.377471
    122          1           0       15.463469   -2.411134   -0.115110
    123          1           0       14.868424   -1.899758   -1.758783
    124          1           0       16.500580   -1.560962   -1.327736
    125          1           0       16.115958    1.380395    0.687321
    126          1           0       16.739202   -0.362120    1.230409
    127          1           0       18.213135   -0.416245   -0.868768
    128          1           0       17.834686    1.098347   -1.284111
    129          1           0       18.471671    2.206903    1.398426
    130          1           0       18.657065    0.435802    1.571976
    131          1           0       20.604386    0.319261    0.054629
    132          1           0       19.723038    3.124306   -0.810453
    133          1           0       21.462587    2.334718   -1.054054
    134          1           0       19.849252    1.656993   -1.824592
    135          1           0       20.881328    1.136941    2.428173
    136          1           0       22.368935    1.628367    1.266918
    137          1           0       20.815664    2.787328    1.629751
 ---------------------------------------------------------------------

 SCF Done:  E(RCAM-B3LYP) =  -2933.41989340     A.U. after   16 cycles

 Excitation energies and oscillator strengths:

 Excited State   1:      Singlet-A      1.9946 eV  621.60 nm  f=0.2423  <S**2>=0.000
     240 -> 243       -0.23115
     241 -> 242        0.66340
 This state for optimization and/or second-order correction.
 Total Energy, E(TD-HF/TD-DFT) =  -2933.34659289
 Copying the excited state density for this state as the 1-particle RhoCI density.

 The electronic state is 1-A.
 Alpha  occ. eigenvalues --  -46.80609 -19.23994 -19.19819 -19.16629 -19.15724
 Alpha  occ. eigenvalues --  -19.15279 -14.37752 -14.35333 -14.34928 -14.34836
 Alpha  occ. eigenvalues --  -10.34413 -10.33158 -10.29677 -10.26621 -10.25877
 Alpha  occ. eigenvalues --  -10.25600 -10.25395 -10.25177 -10.25074 -10.25012
 Alpha  occ. eigenvalues --  -10.24890 -10.24581 -10.24355 -10.24292 -10.24223
 Alpha  occ. eigenvalues --  -10.24025 -10.23802 -10.23543 -10.23460 -10.23403
 Alpha  occ. eigenvalues --  -10.23373 -10.23300 -10.23196 -10.22937 -10.22861
 Alpha  occ. eigenvalues --  -10.22707 -10.22628 -10.22370 -10.22284 -10.22153
 Alpha  occ. eigenvalues --  -10.22119 -10.22082 -10.21913 -10.21843 -10.21843
 Alpha  occ. eigenvalues --  -10.21604 -10.21578 -10.21548 -10.21495 -10.21369
 Alpha  occ. eigenvalues --  -10.21345 -10.21311 -10.20876 -10.20707 -10.20668
 Alpha  occ. eigenvalues --  -10.20661 -10.20620 -10.20563 -10.20450 -10.20373
 Alpha  occ. eigenvalues --  -10.20145 -10.20036 -10.20004 -10.19609 -10.18957
 Alpha  occ. eigenvalues --   -3.09011  -1.83968  -1.83466  -1.83419  -1.15500
 Alpha  occ. eigenvalues --   -1.13196  -1.07444  -1.04693  -0.99814  -0.99531
 Alpha  occ. eigenvalues --   -0.99279  -0.98331  -0.97441  -0.87107  -0.87018
 Alpha  occ. eigenvalues --   -0.85735  -0.85482  -0.84668  -0.84491  -0.84138
 Alpha  occ. eigenvalues --   -0.83572  -0.83208  -0.82932  -0.81870  -0.81545
 Alpha  occ. eigenvalues --   -0.80220  -0.79575  -0.78380  -0.78115  -0.77305
 Alpha  occ. eigenvalues --   -0.77070  -0.76841  -0.75528  -0.75155  -0.74750
 Alpha  occ. eigenvalues --   -0.73876  -0.72441  -0.71858  -0.71297  -0.70416
 Alpha  occ. eigenvalues --   -0.70309  -0.69799  -0.69790  -0.68951  -0.68206
 Alpha  occ. eigenvalues --   -0.67505  -0.67037  -0.66574  -0.65629  -0.64427
 Alpha  occ. eigenvalues --   -0.62830  -0.62685  -0.62325  -0.61431  -0.61152
 Alpha  occ. eigenvalues --   -0.60807  -0.60197  -0.58821  -0.58406  -0.57282
 Alpha  occ. eigenvalues --   -0.57239  -0.56670  -0.56370  -0.56022  -0.55434
 Alpha  occ. eigenvalues --   -0.55116  -0.54539  -0.54235  -0.53848  -0.53116
 Alpha  occ. eigenvalues --   -0.52221  -0.51995  -0.51536  -0.51508  -0.51155
 Alpha  occ. eigenvalues --   -0.50838  -0.50416  -0.50144  -0.49835  -0.49496
 Alpha  occ. eigenvalues --   -0.49370  -0.48864  -0.48735  -0.48463  -0.48094
 Alpha  occ. eigenvalues --   -0.48039  -0.47759  -0.47526  -0.47011  -0.46959
 Alpha  occ. eigenvalues --   -0.46743  -0.46539  -0.46399  -0.46082  -0.45756
 Alpha  occ. eigenvalues --   -0.45725  -0.45401  -0.45237  -0.45110  -0.44833
 Alpha  occ. eigenvalues --   -0.44780  -0.44296  -0.44073  -0.43669  -0.43596
 Alpha  occ. eigenvalues --   -0.43404  -0.43176  -0.42804  -0.42754  -0.42607
 Alpha  occ. eigenvalues --   -0.42553  -0.42040  -0.41860  -0.41579  -0.41499
 Alpha  occ. eigenvalues --   -0.41151  -0.41118  -0.40789  -0.40745  -0.40655
 Alpha  occ. eigenvalues --   -0.40495  -0.40283  -0.40088  -0.39883  -0.39732
 Alpha  occ. eigenvalues --   -0.39692  -0.39674  -0.39629  -0.39258  -0.39200
 Alpha  occ. eigenvalues --   -0.39035  -0.38976  -0.38706  -0.38599  -0.38352
 Alpha  occ. eigenvalues --   -0.38263  -0.38193  -0.37854  -0.37720  -0.37087
 Alpha  occ. eigenvalues --   -0.37066  -0.36900  -0.36875  -0.36695  -0.36408
 Alpha  occ. eigenvalues --   -0.36031  -0.35628  -0.35492  -0.35073  -0.34920
 Alpha  occ. eigenvalues --   -0.34580  -0.34258  -0.34237  -0.33990  -0.33678
 Alpha  occ. eigenvalues --   -0.33655  -0.33039  -0.32847  -0.32575  -0.32344
 Alpha  occ. eigenvalues --   -0.32045  -0.31608  -0.31330  -0.30391  -0.30076
 Alpha  occ. eigenvalues --   -0.29562  -0.29228  -0.29020  -0.28343  -0.27569
 Alpha  occ. eigenvalues --   -0.26827  -0.26285  -0.25768  -0.25361  -0.21314
 Alpha  occ. eigenvalues --   -0.20282
 Alpha virt. eigenvalues --   -0.07662  -0.03780   0.00390   0.02179   0.03126
 Alpha virt. eigenvalues --    0.03904   0.04052   0.04792   0.05044   0.05673
 Alpha virt. eigenvalues --    0.07207   0.08550   0.09562   0.09723   0.09905

 Mulliken charges:
               1
     1  Mg   0.818254
     2  C    0.091295
     3  C   -0.167722
     4  C   -0.142817
     5  C   -0.173760
     6  N   -0.639035
     7  C    0.319214
     8  C   -0.139650
     9  C   -0.161399
    10  C    0.338039
    11  C   -0.318735
    12  C   -0.138335
    13  C   -0.257443
    14  C    0.550538
    15  O   -0.534811
    16  O   -0.414781
    17  N   -0.700369
    18  C    0.260127
    19  C    0.032516
    20  C    0.080478
    21  C    0.252401
    22  C   -0.399485
    23  C   -0.097864
    24  C   -0.222107
    25  N   -0.680048
    26  C    0.294640
    27  C    0.028520
    28  C    0.005352
    29  C    0.290502
    30  C   -0.351982
    31  C   -0.230126
    32  C   -0.305077
    33  N   -0.743664
    34  C    0.304441
    35  C    0.004629
    36  C    0.026995
    37  C    0.271643
    38  C   -0.296513
    39  C    0.316498
    40  O   -0.431362
    41  C   -0.350728
    42  C    0.612842
    43  O   -0.435503
    44  O   -0.458029
    45  C   -0.077554
    46  C    0.017020
    47  C   -0.146873
    48  C    0.153768
    49  C   -0.375639
    50  C   -0.233677
    51  C   -0.174263
    52  C   -0.169957
    53  C   -0.066263
    54  C   -0.314357
    55  C   -0.147425
    56  C   -0.184585
    57  C   -0.138584
    58  C   -0.056659
    59  C   -0.297882
    60  C   -0.175626
    61  C   -0.201936
    62  C   -0.155747
    63  C   -0.037467
    64  C   -0.297627
    65  C   -0.299824
    66  H    0.067237
    67  H    0.076246
    68  H    0.087089
    69  H    0.121405
    70  H    0.094942
    71  H    0.100094
    72  H    0.116406
    73  H    0.125896
    74  H    0.127197
    75  H    0.121509
    76  H    0.131177
    77  H    0.133579
    78  H    0.122349
    79  H    0.109175
    80  H    0.124858
    81  H    0.098807
    82  H    0.098561
    83  H    0.092661
    84  H    0.066739
    85  H    0.090839
    86  H    0.140038
    87  H    0.109599
    88  H    0.101103
    89  H    0.082233
    90  H    0.121908
    91  H    0.119195
    92  H    0.104276
    93  H    0.126926
    94  H    0.142123
    95  H    0.142816
    96  H    0.108626
    97  H    0.117966
    98  H    0.114465
    99  H    0.146323
   100  H    0.119271
   101  H    0.091907
   102  H    0.117738
   103  H    0.108603
   104  H    0.127136
   105  H    0.105072
   106  H    0.094524
   107  H    0.094742
   108  H    0.084710
   109  H    0.081369
   110  H    0.080278
   111  H    0.053537
   112  H    0.077950
   113  H    0.109806
   114  H    0.087859
   115  H    0.093462
   116  H    0.098754
   117  H    0.110802
   118  H    0.089977
   119  H    0.084588
   120  H    0.053120
   121  H    0.090659
   122  H    0.102366
   123  H    0.059389
   124  H    0.100044
   125  H    0.079373
   126  H    0.098972
   127  H    0.099566
   128  H    0.104563
   129  H    0.056228
   130  H    0.095489
   131  H    0.097654
   132  H    0.094440
   133  H    0.104889
   134  H    0.087686
   135  H    0.082612
   136  H    0.093071
   137  H    0.077009
 Sum of Mulliken charges =  -0.00000

 Dipole moment (field-independent basis, Debye):
    X=              2.7013    Y=              5.1753    Z=             -0.4709  Tot=              5.8568
 Quadrupole moment (field-independent basis, Debye-Ang):
   XX=           -340.8381   YY=           -397.1061   ZZ=           -400.5941
   XY=            -28.6483   XZ=              3.2618   YZ=             -0.2554

 Normal termination of Gaussian 16 at Sat Sep 14 00:02:52 2019.
