 Gaussian 16, Revision A.03,
 Gaussian 16:  ES64L-G16RevA.03 25-Dec-2016

 ----------------------------------------------------------------------
 # td=(NStates=1) iop(3/107=0140000000,3/108=0140000000) CAM-B3LYP/6-31
 G(d,p)
 ----------------------------------------------------------------------

 --
 TD
 --
 Symbolic Z-matrix:
 Charge =  0 Multiplicity = 1

                         Standard orientation:
 ---------------------------------------------------------------------
 Center     Atomic      Atomic             Coordinates (Angstroms)
 Number     Number       Type             X           Y           Z
 ---------------------------------------------------------------------
      1         12           0       -7.156123    0.571146    0.036218
      2          6           0       -4.801585   -2.001430    0.449226
      3          6           0       -4.802544    2.839637    1.090577
      4          6           0       -9.459844    3.110916   -0.421120
      5          6           0       -9.507722   -1.719138   -0.943646
      6          7           0       -5.092360    0.392593    0.589692
      7          6           0       -4.343392   -0.704453    0.741402
      8          6           0       -2.961864   -0.362440    1.243936
      9          6           0       -3.001227    1.081822    1.629212
     10          6           0       -4.440235    1.469047    1.119337
     11          6           0       -3.013805    1.220536    3.134711
     12          6           0       -1.898404   -0.668291    0.085942
     13          6           0       -0.521429   -0.519578    0.556735
     14          6           0        0.544668   -0.735721   -0.557944
     15          8           0        0.168872   -1.046933   -1.690954
     16          8           0        1.676499   -0.444790   -0.174625
     17          7           0       -7.126862    2.648307    0.340972
     18          6           0       -6.026939    3.343272    0.769040
     19          6           0       -6.443825    4.758306    0.847915
     20          6           0       -7.706608    4.933306    0.431258
     21          6           0       -8.147341    3.523093   -0.014116
     22          6           0       -5.557015    5.930076    1.157553
     23          6           0       -8.653104    6.109416    0.178330
     24          6           0       -8.505323    7.196426    0.994496
     25          7           0       -9.175641    0.767754   -0.500638
     26          6           0       -9.910892    1.852075   -0.625168
     27          6           0      -11.219484    1.439193   -1.259034
     28          6           0      -11.146072    0.157840   -1.336770
     29          6           0       -9.928064   -0.296101   -0.899016
     30          6           0      -12.365226    2.556670   -1.384715
     31          6           0      -12.294475   -0.760466   -1.832240
     32          6           0      -12.062971   -1.073826   -3.280778
     33          7           0       -7.182416   -1.401385   -0.236048
     34          6           0       -8.222983   -2.224452   -0.521543
     35          6           0       -7.802793   -3.627768   -0.503529
     36          6           0       -6.452056   -3.668983   -0.085412
     37          6           0       -6.188929   -2.246383    0.084646
     38          6           0       -8.668476   -4.744038   -0.929715
     39          6           0       -5.317162   -4.473950    0.283710
     40          8           0       -5.188189   -5.657339    0.290582
     41          6           0       -4.181309   -3.419492    0.555786
     42          6           0       -3.617962   -3.748712    1.906344
     43          8           0       -3.788248   -3.096871    2.906140
     44          8           0       -2.757447   -4.810427    1.835462
     45          6           0       -2.228489   -5.287360    2.935258
     46          6           0        2.760193   -0.596092   -1.233660
     47          6           0        4.082664   -0.432664   -0.461252
     48          6           0        5.129408    0.378080   -0.908841
     49          6           0        5.005018    1.213342   -2.097350
     50          6           0        6.397281    0.427740   -0.084217
     51          6           0        7.645606   -0.142571   -0.864365
     52          6           0        8.867683   -0.112886    0.012265
     53          6           0       10.188568   -0.607195   -0.761733
     54          6           0       10.120309   -2.052688   -1.123544
     55          6           0       11.510216   -0.360890   -0.065764
     56          6           0       12.826090   -0.444341   -0.757655
     57          6           0       13.926835    0.028599    0.149651
     58          6           0       15.383402   -0.165322   -0.491146
     59          6           0       15.750350   -1.637084   -0.932095
     60          6           0       16.493848    0.333244    0.426163
     61          6           0       17.893058    0.420686   -0.291801
     62          6           0       18.811711    1.231782    0.677987
     63          6           0       20.275798    1.390802    0.241046
     64          6           0       20.323867    2.208742   -1.139907
     65          6           0       21.241522    1.968048    1.338260
     66          1           0       -4.116579    3.678723    1.391363
     67          1           0      -10.149840    3.783955   -0.576952
     68          1           0      -10.160262   -2.447637   -1.513899
     69          1           0       -2.694959   -1.016905    2.120103
     70          1           0       -2.235743    1.673692    1.234040
     71          1           0       -1.900234    0.896347    3.548552
     72          1           0       -2.921730    2.259173    3.375840
     73          1           0       -3.861035    0.687970    3.623033
     74          1           0       -1.911895   -1.662232   -0.174470
     75          1           0       -2.084492   -0.063983   -0.785852
     76          1           0       -0.249557    0.376024    0.899030
     77          1           0       -0.202663   -1.278352    1.306133
     78          1           0       -5.568534    6.744610    0.436967
     79          1           0       -5.657040    6.148053    2.158669
     80          1           0       -4.556312    5.508428    1.068301
     81          1           0       -9.498339    5.979278   -0.505322
     82          1           0       -8.811459    7.968807    0.523534
     83          1           0       -7.677007    7.410031    1.713517
     84          1           0      -12.287362    2.898916   -2.524935
     85          1           0      -13.489989    2.053423   -0.997612
     86          1           0      -11.984128    3.573850   -0.612705
     87          1           0      -12.336496   -1.553395   -0.806426
     88          1           0      -13.341062   -0.343778   -1.654098
     89          1           0      -12.903725   -1.751991   -3.545148
     90          1           0      -12.003528   -0.279644   -4.025864
     91          1           0      -11.076984   -1.567999   -3.492231
     92          1           0       -9.160572   -4.743947   -1.858280
     93          1           0       -7.977115   -5.669810   -1.091605
     94          1           0       -9.469622   -4.954347   -0.147859
     95          1           0       -3.513863   -3.590176   -0.142395
     96          1           0       -1.754872   -4.413323    3.684888
     97          1           0       -3.047225   -5.619012    3.580316
     98          1           0       -1.663549   -6.122638    2.586816
     99          1           0        2.553420   -1.733319   -1.570404
    100          1           0        2.603947    0.166332   -1.935488
    101          1           0        4.002225   -1.217509    0.502689
    102          1           0        3.923908    1.252334   -2.615423
    103          1           0        5.378134    2.259576   -1.968889
    104          1           0        5.678027    1.035396   -2.803463
    105          1           0        6.850033    1.485769    0.118326
    106          1           0        6.149598   -0.027301    0.999597
    107          1           0        7.501085   -1.291463   -1.237265
    108          1           0        7.959811    0.567309   -1.742616
    109          1           0        9.060824    1.033501    0.247991
    110          1           0        8.788983   -0.565631    0.907311
    111          1           0       10.236197    0.076718   -1.622653
    112          1           0        9.270931   -2.089604   -2.066300
    113          1           0       11.059465   -2.260055   -1.736575
    114          1           0        9.755848   -2.591428   -0.302619
    115          1           0       11.542860    0.529230    0.337881
    116          1           0       11.506102   -0.785653    1.083487
    117          1           0       13.037836   -1.485151   -1.209165
    118          1           0       12.811972    0.166497   -1.764327
    119          1           0       13.997684    1.106529    0.416619
    120          1           0       13.961306   -0.345035    1.164961
    121          1           0       15.269200    0.142060   -1.607409
    122          1           0       15.629465   -2.378097   -0.107163
    123          1           0       15.205231   -1.877812   -1.992093
    124          1           0       16.783891   -1.605036   -1.365888
    125          1           0       16.054538    1.502886    0.591436
    126          1           0       16.469879   -0.192428    1.385439
    127          1           0       18.273198   -0.556040   -0.509461
    128          1           0       17.897360    0.972561   -1.333573
    129          1           0       18.471367    2.203794    0.688190
    130          1           0       18.990300    0.654753    1.678609
    131          1           0       20.578767    0.413111   -0.218434
    132          1           0       19.858586    3.216673   -1.024355
    133          1           0       21.473496    2.317861   -1.448879
    134          1           0       19.786157    1.698065   -2.083597
    135          1           0       20.930079    1.610017    2.387404
    136          1           0       22.275956    1.996254    1.024363
    137          1           0       21.041341    3.048204    1.414711
 ---------------------------------------------------------------------

 SCF Done:  E(RCAM-B3LYP) =  -2933.41194481     A.U. after   16 cycles

 Excitation energies and oscillator strengths:

 Excited State   1:      Singlet-A      1.9961 eV  621.13 nm  f=0.2525  <S**2>=0.000
     240 -> 243       -0.24063
     241 -> 242        0.66307
 This state for optimization and/or second-order correction.
 Total Energy, E(TD-HF/TD-DFT) =  -2933.33858884
 Copying the excited state density for this state as the 1-particle RhoCI density.

 The electronic state is 1-A.
 Alpha  occ. eigenvalues --  -46.80481 -19.22962 -19.21432 -19.16823 -19.16309
 Alpha  occ. eigenvalues --  -19.13940 -14.37900 -14.35494 -14.35114 -14.34491
 Alpha  occ. eigenvalues --  -10.34228 -10.32534 -10.30361 -10.29241 -10.26899
 Alpha  occ. eigenvalues --  -10.26757 -10.26194 -10.25749 -10.25207 -10.25111
 Alpha  occ. eigenvalues --  -10.24918 -10.24735 -10.24617 -10.24607 -10.24571
 Alpha  occ. eigenvalues --  -10.24156 -10.24021 -10.23979 -10.23961 -10.23902
 Alpha  occ. eigenvalues --  -10.23835 -10.23265 -10.22933 -10.22876 -10.22758
 Alpha  occ. eigenvalues --  -10.22549 -10.22496 -10.22304 -10.22282 -10.22262
 Alpha  occ. eigenvalues --  -10.22187 -10.22122 -10.22052 -10.22046 -10.21931
 Alpha  occ. eigenvalues --  -10.21882 -10.21827 -10.21814 -10.21657 -10.21510
 Alpha  occ. eigenvalues --  -10.21502 -10.21455 -10.21402 -10.21352 -10.21216
 Alpha  occ. eigenvalues --  -10.21214 -10.21055 -10.20789 -10.20631 -10.20503
 Alpha  occ. eigenvalues --  -10.20477 -10.20322 -10.20138 -10.20119 -10.19817
 Alpha  occ. eigenvalues --   -3.08949  -1.83907  -1.83418  -1.83344  -1.16062
 Alpha  occ. eigenvalues --   -1.14733  -1.07718  -1.05781  -1.02200  -0.99857
 Alpha  occ. eigenvalues --   -0.99405  -0.98670  -0.96656  -0.86958  -0.86551
 Alpha  occ. eigenvalues --   -0.85626  -0.84881  -0.84151  -0.84129  -0.83342
 Alpha  occ. eigenvalues --   -0.82895  -0.82611  -0.82016  -0.81622  -0.80925
 Alpha  occ. eigenvalues --   -0.80328  -0.79571  -0.78812  -0.78454  -0.77368
 Alpha  occ. eigenvalues --   -0.77211  -0.76170  -0.75787  -0.75164  -0.72961
 Alpha  occ. eigenvalues --   -0.72652  -0.72257  -0.71970  -0.71037  -0.70523
 Alpha  occ. eigenvalues --   -0.70181  -0.69034  -0.68891  -0.68519  -0.67457
 Alpha  occ. eigenvalues --   -0.66049  -0.65617  -0.64726  -0.64527  -0.64199
 Alpha  occ. eigenvalues --   -0.62655  -0.62201  -0.60937  -0.60561  -0.60045
 Alpha  occ. eigenvalues --   -0.59898  -0.59407  -0.58962  -0.58466  -0.57927
 Alpha  occ. eigenvalues --   -0.57109  -0.56621  -0.55991  -0.55587  -0.55420
 Alpha  occ. eigenvalues --   -0.54844  -0.54375  -0.53989  -0.53609  -0.53409
 Alpha  occ. eigenvalues --   -0.52123  -0.51580  -0.51216  -0.50929  -0.50616
 Alpha  occ. eigenvalues --   -0.50447  -0.50026  -0.49777  -0.49481  -0.49278
 Alpha  occ. eigenvalues --   -0.49065  -0.48589  -0.48333  -0.47949  -0.47873
 Alpha  occ. eigenvalues --   -0.47674  -0.47412  -0.47173  -0.47126  -0.46781
 Alpha  occ. eigenvalues --   -0.46661  -0.46247  -0.46208  -0.45814  -0.45649
 Alpha  occ. eigenvalues --   -0.45530  -0.45407  -0.45097  -0.44876  -0.44710
 Alpha  occ. eigenvalues --   -0.44611  -0.44347  -0.44232  -0.43774  -0.43591
 Alpha  occ. eigenvalues --   -0.43404  -0.43034  -0.42727  -0.42470  -0.42414
 Alpha  occ. eigenvalues --   -0.42272  -0.42101  -0.42042  -0.41851  -0.41751
 Alpha  occ. eigenvalues --   -0.41562  -0.41235  -0.40979  -0.40927  -0.40813
 Alpha  occ. eigenvalues --   -0.40732  -0.40493  -0.40287  -0.40111  -0.39941
 Alpha  occ. eigenvalues --   -0.39652  -0.39527  -0.39460  -0.39235  -0.38946
 Alpha  occ. eigenvalues --   -0.38604  -0.38422  -0.38287  -0.38245  -0.38050
 Alpha  occ. eigenvalues --   -0.37915  -0.37434  -0.37364  -0.37289  -0.36948
 Alpha  occ. eigenvalues --   -0.36426  -0.36248  -0.36050  -0.35990  -0.35634
 Alpha  occ. eigenvalues --   -0.35393  -0.35378  -0.35137  -0.34413  -0.34249
 Alpha  occ. eigenvalues --   -0.34103  -0.33294  -0.33221  -0.33147  -0.32708
 Alpha  occ. eigenvalues --   -0.32674  -0.32561  -0.32497  -0.31938  -0.31820
 Alpha  occ. eigenvalues --   -0.31606  -0.31555  -0.30952  -0.30464  -0.30458
 Alpha  occ. eigenvalues --   -0.29870  -0.29329  -0.28407  -0.28167  -0.27254
 Alpha  occ. eigenvalues --   -0.27029  -0.26506  -0.26456  -0.25050  -0.21290
 Alpha  occ. eigenvalues --   -0.19249
 Alpha virt. eigenvalues --   -0.06556  -0.03468  -0.00113   0.01804   0.02016
 Alpha virt. eigenvalues --    0.03991   0.04730   0.05105   0.05633   0.06917
 Alpha virt. eigenvalues --    0.07535   0.07806   0.08840   0.09241   0.09479

 Mulliken charges:
               1
     1  Mg   0.818525
     2  C    0.043823
     3  C   -0.184276
     4  C   -0.125819
     5  C   -0.193706
     6  N   -0.621532
     7  C    0.317027
     8  C   -0.162062
     9  C   -0.123185
    10  C    0.300214
    11  C   -0.297709
    12  C   -0.155824
    13  C   -0.265789
    14  C    0.568829
    15  O   -0.520003
    16  O   -0.411496
    17  N   -0.706779
    18  C    0.378618
    19  C   -0.053462
    20  C    0.050701
    21  C    0.243808
    22  C   -0.371514
    23  C   -0.092562
    24  C   -0.226506
    25  N   -0.688117
    26  C    0.292709
    27  C    0.022323
    28  C    0.023288
    29  C    0.306211
    30  C   -0.332112
    31  C   -0.214257
    32  C   -0.313965
    33  N   -0.703860
    34  C    0.292258
    35  C   -0.014557
    36  C    0.074885
    37  C    0.249718
    38  C   -0.396720
    39  C    0.339084
    40  O   -0.438449
    41  C   -0.297133
    42  C    0.608275
    43  O   -0.461057
    44  O   -0.400652
    45  C   -0.083104
    46  C   -0.002425
    47  C   -0.133666
    48  C    0.157647
    49  C   -0.380437
    50  C   -0.226583
    51  C   -0.162453
    52  C   -0.177098
    53  C   -0.063891
    54  C   -0.277010
    55  C   -0.152208
    56  C   -0.171393
    57  C   -0.177106
    58  C   -0.051293
    59  C   -0.315107
    60  C   -0.156411
    61  C   -0.186908
    62  C   -0.148494
    63  C   -0.055298
    64  C   -0.317148
    65  C   -0.320804
    66  H    0.080179
    67  H    0.025082
    68  H    0.102181
    69  H    0.122156
    70  H    0.105281
    71  H    0.074209
    72  H    0.109196
    73  H    0.130804
    74  H    0.117591
    75  H    0.117742
    76  H    0.121170
    77  H    0.116051
    78  H    0.129864
    79  H    0.135304
    80  H    0.096956
    81  H    0.109399
    82  H    0.101046
    83  H    0.102107
    84  H    0.121229
    85  H    0.098688
    86  H    0.086712
    87  H    0.075844
    88  H    0.095504
    89  H    0.104045
    90  H    0.124767
    91  H    0.109026
    92  H    0.131360
    93  H    0.125006
    94  H    0.124520
    95  H    0.164216
    96  H    0.083732
    97  H    0.113323
    98  H    0.120832
    99  H    0.137580
   100  H    0.133249
   101  H    0.091439
   102  H    0.102112
   103  H    0.114327
   104  H    0.144467
   105  H    0.093175
   106  H    0.097743
   107  H    0.087770
   108  H    0.088917
   109  H    0.066068
   110  H    0.104216
   111  H    0.076565
   112  H    0.055259
   113  H    0.107562
   114  H    0.118136
   115  H    0.103064
   116  H    0.044325
   117  H    0.095074
   118  H    0.078592
   119  H    0.091209
   120  H    0.093888
   121  H    0.073025
   122  H    0.098875
   123  H    0.070311
   124  H    0.100755
   125  H    0.055150
   126  H    0.106135
   127  H    0.107856
   128  H    0.087268
   129  H    0.103710
   130  H    0.075952
   131  H    0.083259
   132  H    0.097085
   133  H    0.080389
   134  H    0.086856
   135  H    0.099261
   136  H    0.114361
   137  H    0.103891
 Sum of Mulliken charges =  -0.00000

 Dipole moment (field-independent basis, Debye):
    X=              4.3531    Y=              4.8196    Z=             -0.7520  Tot=              6.5379
 Quadrupole moment (field-independent basis, Debye-Ang):
   XX=           -340.4675   YY=           -399.9882   ZZ=           -397.1795
   XY=             -9.4897   XZ=             18.1714   YZ=             -2.9437

 Normal termination of Gaussian 16 at Sun Sep  8 08:42:33 2019.
