 Gaussian 09, Revision D.01,
 Gaussian 09:  ES64L-G09RevD.01 24-Apr-2013

 -------------------------------------
 # td=(NStates=1) CAM-B3LYP/6-31G(d,p)
 -------------------------------------

 --
 TD
 --
 Symbolic Z-matrix:
 Charge =  0 Multiplicity = 1

                         Standard orientation:
 ---------------------------------------------------------------------
 Center     Atomic      Atomic             Coordinates (Angstroms)
 Number     Number       Type             X           Y           Z
 ---------------------------------------------------------------------
      1         12           0       -7.164762    0.539777    0.110717
      2          6           0       -4.837523   -1.970676    0.479583
      3          6           0       -4.882496    2.817722    1.187080
      4          6           0       -9.493589    3.167974   -0.477959
      5          6           0       -9.560523   -1.697113   -0.838903
      6          7           0       -5.106942    0.419228    0.762437
      7          6           0       -4.319204   -0.736336    0.809098
      8          6           0       -2.829938   -0.383791    1.237358
      9          6           0       -3.036141    1.070636    1.640328
     10          6           0       -4.447285    1.525326    1.233471
     11          6           0       -2.859742    1.195608    3.180741
     12          6           0       -1.867234   -0.597903    0.032828
     13          6           0       -0.473791   -0.500564    0.443981
     14          6           0        0.455556   -0.717541   -0.718337
     15          8           0        0.187433   -1.044943   -1.868085
     16          8           0        1.755305   -0.433436   -0.324965
     17          7           0       -7.199935    2.589836    0.337341
     18          6           0       -6.139915    3.323634    0.834408
     19          6           0       -6.435637    4.741129    0.733349
     20          6           0       -7.703556    4.811259    0.275405
     21          6           0       -8.222487    3.505822    0.001761
     22          6           0       -5.497054    5.805478    1.168157
     23          6           0       -8.568733    6.015066    0.175442
     24          6           0       -8.527181    7.177487    0.805000
     25          7           0       -9.055505    0.787101   -0.622473
     26          6           0       -9.845588    1.834120   -0.738794
     27          6           0      -11.199767    1.473160   -1.122539
     28          6           0      -11.314744    0.158799   -1.164010
     29          6           0       -9.978816   -0.352290   -0.807753
     30          6           0      -12.337813    2.423820   -1.300113
     31          6           0      -12.410375   -0.720283   -1.650074
     32          6           0      -12.305787   -1.116077   -3.130225
     33          7           0       -7.263274   -1.379533   -0.177950
     34          6           0       -8.217994   -2.224606   -0.517513
     35          6           0       -7.819661   -3.583965   -0.476161
     36          6           0       -6.487281   -3.541884   -0.070266
     37          6           0       -6.216074   -2.227224    0.035433
     38          6           0       -8.684710   -4.813582   -0.864464
     39          6           0       -5.302934   -4.310199    0.130070
     40          8           0       -5.152626   -5.550859    0.147166
     41          6           0       -4.105481   -3.248347    0.559795
     42          6           0       -3.569023   -3.642637    1.967573
     43          8           0       -3.923883   -3.081716    3.054256
     44          8           0       -2.703504   -4.736190    1.840259
     45          6           0       -2.076933   -5.175390    3.030359
     46          6           0        2.850035   -0.581642   -1.301054
     47          6           0        4.197996   -0.374784   -0.662719
     48          6           0        5.151609    0.342586   -1.099345
     49          6           0        5.252187    1.144082   -2.326631
     50          6           0        6.565905    0.238060   -0.205059
     51          6           0        7.661423   -0.215286   -1.028037
     52          6           0        8.978977   -0.256264   -0.155337
     53          6           0       10.214210   -0.649856   -0.862039
     54          6           0       10.274075   -2.124817   -1.315352
     55          6           0       11.540827   -0.362987   -0.032331
     56          6           0       12.827801   -0.454770   -0.685973
     57          6           0       13.907474   -0.136871    0.286972
     58          6           0       15.314368   -0.154173   -0.518361
     59          6           0       15.740526   -1.563377   -0.789229
     60          6           0       16.343720    0.482184    0.505871
     61          6           0       17.691938    0.592452   -0.111810
     62          6           0       18.746653    1.540423    0.705372
     63          6           0       20.144598    1.379121    0.285243
     64          6           0       20.354971    2.086831   -1.055258
     65          6           0       21.240705    2.006797    1.363706
     66          1           0       -4.265587    3.598880    1.512230
     67          1           0       -9.990000    4.076341   -0.836120
     68          1           0      -10.287041   -2.439240   -1.129038
     69          1           0       -2.658976   -0.998244    2.016737
     70          1           0       -2.266545    1.737901    1.339430
     71          1           0       -2.010999    0.884489    3.617640
     72          1           0       -2.968054    2.145599    3.455871
     73          1           0       -3.833705    0.532441    3.274258
     74          1           0       -2.185578   -1.557968   -0.605766
     75          1           0       -2.169390    0.124232   -0.764928
     76          1           0       -0.224954    0.400545    0.871235
     77          1           0       -0.136213   -1.148887    1.313801
     78          1           0       -5.839739    6.745568    0.825658
     79          1           0       -5.522394    5.995581    2.336036
     80          1           0       -4.527257    5.690059    0.661674
     81          1           0       -9.122320    5.956189   -0.438059
     82          1           0       -9.415129    7.792951    0.527290
     83          1           0       -7.947232    7.197152    1.588090
     84          1           0      -12.124343    3.218334   -2.094527
     85          1           0      -13.193201    1.829079   -1.531319
     86          1           0      -12.705870    3.038552   -0.263766
     87          1           0      -12.402598   -1.621268   -1.090701
     88          1           0      -13.428961   -0.273790   -1.612259
     89          1           0      -13.213710   -1.632216   -3.493741
     90          1           0      -12.027238   -0.097919   -3.644491
     91          1           0      -11.405496   -1.897930   -3.214028
     92          1           0       -8.980638   -4.757173   -1.926509
     93          1           0       -8.038074   -5.626719   -1.060273
     94          1           0       -9.505959   -5.209699   -0.023783
     95          1           0       -3.411128   -3.186185   -0.270038
     96          1           0       -1.627445   -4.403596    3.698180
     97          1           0       -2.780854   -5.826636    3.752523
     98          1           0       -1.193890   -5.848662    2.744792
     99          1           0        2.664898   -1.586290   -1.522984
    100          1           0        2.605612    0.077878   -1.978088
    101          1           0        4.102678   -0.943498    0.293995
    102          1           0        4.324519    1.418403   -2.754355
    103          1           0        5.498926    2.153865   -2.176287
    104          1           0        5.832549    0.777305   -3.314449
    105          1           0        6.741822    1.225407    0.132214
    106          1           0        6.359347   -0.647516    0.557218
    107          1           0        7.495930   -1.270743   -1.275653
    108          1           0        7.871314    0.319428   -1.871121
    109          1           0        9.181911    0.845129    0.285184
    110          1           0        8.896959   -0.835851    0.694928
    111          1           0       10.375424    0.026773   -1.841454
    112          1           0        9.514381   -2.467096   -2.002952
    113          1           0       11.282747   -2.490443   -1.620265
    114          1           0        9.992582   -2.717710   -0.360185
    115          1           0       11.519024    0.588313    0.583793
    116          1           0       11.407932   -1.049298    0.844070
    117          1           0       13.068107   -1.553556   -1.124254
    118          1           0       12.708912    0.188990   -1.583865
    119          1           0       13.879342    0.853642    0.809433
    120          1           0       14.170298   -0.874257    1.194085
    121          1           0       15.228761    0.600870   -1.334160
    122          1           0       15.830469   -2.302007    0.014824
    123          1           0       15.010573   -1.948147   -1.507991
    124          1           0       16.730897   -1.558191   -1.417815
    125          1           0       15.821991    1.635793    0.756895
    126          1           0       16.382832   -0.026718    1.634349
    127          1           0       18.168290   -0.379240   -0.353289
    128          1           0       17.571485    1.071792   -1.116974
    129          1           0       18.439625    2.688682    0.551834
    130          1           0       18.726224    1.099937    1.766100
    131          1           0       20.405328    0.391421    0.183019
    132          1           0       19.990811    3.064110   -0.835103
    133          1           0       21.409622    2.027836   -1.622858
    134          1           0       19.664998    1.324344   -1.769378
    135          1           0       20.970074    1.485583    2.234979
    136          1           0       22.251481    2.072468    1.102096
    137          1           0       21.083526    3.112186    1.498807
 ---------------------------------------------------------------------

 SCF Done:  E(RCAM-B3LYP) =  -2932.61024986     A.U. after   17 cycles

 Excitation energies and oscillator strengths:

 Excited State   1:      Singlet-A      2.1546 eV  575.45 nm  f=0.3028  <S**2>=0.000
     240 -> 242       -0.17865
     240 -> 243        0.18479
     241 -> 242        0.64726
 This state for optimization and/or second-order correction.
 Total Energy, E(TD-HF/TD-KS) =  -2932.53107071
 Copying the excited state density for this state as the 1-particle RhoCI density.

 The electronic state is 1-A.
 Alpha  occ. eigenvalues --  -46.84035 -19.27134 -19.24311 -19.21707 -19.20899
 Alpha  occ. eigenvalues --  -19.19711 -14.41769 -14.40398 -14.39384 -14.39166
 Alpha  occ. eigenvalues --  -10.40860 -10.39159 -10.35004 -10.32315 -10.31447
 Alpha  occ. eigenvalues --  -10.30404 -10.30154 -10.29968 -10.29936 -10.29851
 Alpha  occ. eigenvalues --  -10.29550 -10.28490 -10.28412 -10.28346 -10.28111
 Alpha  occ. eigenvalues --  -10.27654 -10.27562 -10.27466 -10.27388 -10.27347
 Alpha  occ. eigenvalues --  -10.27265 -10.27202 -10.27171 -10.27167 -10.27119
 Alpha  occ. eigenvalues --  -10.27028 -10.26973 -10.26788 -10.26735 -10.26706
 Alpha  occ. eigenvalues --  -10.26590 -10.26584 -10.26531 -10.26521 -10.26491
 Alpha  occ. eigenvalues --  -10.26396 -10.26363 -10.26170 -10.25969 -10.25942
 Alpha  occ. eigenvalues --  -10.25927 -10.25786 -10.25684 -10.25613 -10.25357
 Alpha  occ. eigenvalues --  -10.25287 -10.25259 -10.25129 -10.25081 -10.24813
 Alpha  occ. eigenvalues --  -10.24640 -10.24411 -10.24184 -10.24088 -10.23756
 Alpha  occ. eigenvalues --   -3.13182  -1.87879  -1.87422  -1.87375  -1.16106
 Alpha  occ. eigenvalues --   -1.15834  -1.08464  -1.07737  -1.07390  -1.05472
 Alpha  occ. eigenvalues --   -1.03682  -1.02864  -1.02043  -0.92634  -0.91648
 Alpha  occ. eigenvalues --   -0.90899  -0.90580  -0.90414  -0.90319  -0.89427
 Alpha  occ. eigenvalues --   -0.88690  -0.88334  -0.87613  -0.86704  -0.86236
 Alpha  occ. eigenvalues --   -0.85970  -0.85214  -0.83748  -0.83419  -0.83203
 Alpha  occ. eigenvalues --   -0.81895  -0.80985  -0.80359  -0.80194  -0.78692
 Alpha  occ. eigenvalues --   -0.78296  -0.77062  -0.76356  -0.75742  -0.75105
 Alpha  occ. eigenvalues --   -0.74716  -0.74602  -0.74269  -0.73015  -0.72830
 Alpha  occ. eigenvalues --   -0.71391  -0.70434  -0.70025  -0.69030  -0.68597
 Alpha  occ. eigenvalues --   -0.68233  -0.66354  -0.66087  -0.64959  -0.64411
 Alpha  occ. eigenvalues --   -0.64005  -0.62805  -0.62626  -0.62324  -0.62129
 Alpha  occ. eigenvalues --   -0.61781  -0.61656  -0.61287  -0.60811  -0.58971
 Alpha  occ. eigenvalues --   -0.58755  -0.58577  -0.57827  -0.57309  -0.56997
 Alpha  occ. eigenvalues --   -0.56937  -0.55925  -0.55622  -0.55143  -0.54638
 Alpha  occ. eigenvalues --   -0.54017  -0.53646  -0.53522  -0.53252  -0.52904
 Alpha  occ. eigenvalues --   -0.52772  -0.52716  -0.52320  -0.52240  -0.51840
 Alpha  occ. eigenvalues --   -0.51681  -0.51552  -0.51052  -0.50613  -0.50586
 Alpha  occ. eigenvalues --   -0.50308  -0.50059  -0.49873  -0.49642  -0.49544
 Alpha  occ. eigenvalues --   -0.49463  -0.49190  -0.48767  -0.48546  -0.48382
 Alpha  occ. eigenvalues --   -0.48270  -0.48144  -0.47998  -0.47790  -0.47440
 Alpha  occ. eigenvalues --   -0.47019  -0.46812  -0.46746  -0.46280  -0.46170
 Alpha  occ. eigenvalues --   -0.46136  -0.45817  -0.45669  -0.45382  -0.45155
 Alpha  occ. eigenvalues --   -0.44827  -0.44396  -0.44048  -0.43976  -0.43849
 Alpha  occ. eigenvalues --   -0.43712  -0.43489  -0.43472  -0.43339  -0.43013
 Alpha  occ. eigenvalues --   -0.42910  -0.42775  -0.42616  -0.42304  -0.42276
 Alpha  occ. eigenvalues --   -0.42219  -0.41856  -0.41841  -0.41635  -0.41343
 Alpha  occ. eigenvalues --   -0.41059  -0.40978  -0.40885  -0.40573  -0.40496
 Alpha  occ. eigenvalues --   -0.40242  -0.40097  -0.39812  -0.39437  -0.39322
 Alpha  occ. eigenvalues --   -0.39196  -0.38296  -0.38076  -0.37922  -0.37724
 Alpha  occ. eigenvalues --   -0.37597  -0.37459  -0.37042  -0.36446  -0.36350
 Alpha  occ. eigenvalues --   -0.36116  -0.35766  -0.35387  -0.35357  -0.35335
 Alpha  occ. eigenvalues --   -0.35162  -0.34307  -0.34011  -0.33809  -0.33553
 Alpha  occ. eigenvalues --   -0.33060  -0.32214  -0.31917  -0.31573  -0.31304
 Alpha  occ. eigenvalues --   -0.29734  -0.29424  -0.29236  -0.28511  -0.23364
 Alpha  occ. eigenvalues --   -0.21670
 Alpha virt. eigenvalues --   -0.07042  -0.02525   0.01418   0.03773   0.04805
 Alpha virt. eigenvalues --    0.06197   0.06271   0.06674   0.06879   0.06957
 Alpha virt. eigenvalues --    0.08475   0.10413   0.11287   0.11665   0.11738

 Mulliken charges:
               1
     1  Mg   0.820436
     2  C    0.044905
     3  C   -0.194393
     4  C   -0.169025
     5  C   -0.174243
     6  N   -0.641937
     7  C    0.242968
     8  C   -0.102897
     9  C   -0.194880
    10  C    0.379767
    11  C   -0.290954
    12  C   -0.177599
    13  C   -0.253183
    14  C    0.609833
    15  O   -0.482145
    16  O   -0.540421
    17  N   -0.721936
    18  C    0.320421
    19  C    0.027539
    20  C   -0.033749
    21  C    0.307388
    22  C   -0.384030
    23  C    0.017271
    24  C   -0.217645
    25  N   -0.667232
    26  C    0.345305
    27  C    0.003304
    28  C    0.092092
    29  C    0.217242
    30  C   -0.358069
    31  C   -0.251085
    32  C   -0.288945
    33  N   -0.724111
    34  C    0.270292
    35  C   -0.024198
    36  C    0.096756
    37  C    0.269711
    38  C   -0.375287
    39  C    0.320089
    40  O   -0.475733
    41  C   -0.318781
    42  C    0.636140
    43  O   -0.483773
    44  O   -0.436965
    45  C   -0.082071
    46  C    0.052657
    47  C   -0.130113
    48  C    0.112214
    49  C   -0.385674
    50  C   -0.209571
    51  C   -0.163019
    52  C   -0.170625
    53  C   -0.052468
    54  C   -0.310379
    55  C   -0.175087
    56  C   -0.153622
    57  C   -0.170965
    58  C   -0.066489
    59  C   -0.303082
    60  C   -0.145351
    61  C   -0.187517
    62  C   -0.154660
    63  C   -0.066987
    64  C   -0.276520
    65  C   -0.322830
    66  H    0.078023
    67  H    0.098669
    68  H    0.097417
    69  H    0.126035
    70  H    0.100014
    71  H    0.113995
    72  H    0.107557
    73  H    0.109873
    74  H    0.108279
    75  H    0.122382
    76  H    0.149880
    77  H    0.137138
    78  H    0.128685
    79  H    0.119023
    80  H    0.126763
    81  H    0.028028
    82  H    0.102818
    83  H    0.091837
    84  H    0.111186
    85  H    0.115246
    86  H    0.091373
    87  H    0.115338
    88  H    0.106158
    89  H    0.112707
    90  H    0.103399
    91  H    0.091694
    92  H    0.117591
    93  H    0.146085
    94  H    0.107324
    95  H    0.164726
    96  H    0.124455
    97  H    0.113388
    98  H    0.117372
    99  H    0.128330
   100  H    0.116546
   101  H    0.098618
   102  H    0.117220
   103  H    0.126314
   104  H    0.114453
   105  H    0.106949
   106  H    0.090482
   107  H    0.099451
   108  H    0.107246
   109  H    0.064512
   110  H    0.097822
   111  H    0.049050
   112  H    0.107546
   113  H    0.105604
   114  H    0.080360
   115  H    0.081496
   116  H    0.079256
   117  H    0.079446
   118  H    0.098349
   119  H    0.090261
   120  H    0.082424
   121  H    0.098422
   122  H    0.115434
   123  H    0.100820
   124  H    0.088504
   125  H    0.043942
   126  H    0.063039
   127  H    0.098837
   128  H    0.096526
   129  H    0.079185
   130  H    0.083711
   131  H    0.096590
   132  H    0.106038
   133  H    0.085137
   134  H    0.064259
   135  H    0.103924
   136  H    0.108940
   137  H    0.084417
 Sum of Mulliken charges =   0.00000

 Dipole moment (field-independent basis, Debye):
    X=              0.8796    Y=              5.9222    Z=             -0.2303  Tot=              5.9916
 Quadrupole moment (field-independent basis, Debye-Ang):
   XX=           -341.4943   YY=           -395.4850   ZZ=           -400.0884
   XY=            -38.1077   XZ=             12.3804   YZ=             -1.0742

 Normal termination of Gaussian 09 at Wed Jul  3 17:21:33 2019.
