 Gaussian 16, Revision A.03,
 Gaussian 16:  ES64L-G16RevA.03 25-Dec-2016

 ----------------------------------------------------------------------
 # td=(NStates=1) iop(3/107=0140000000,3/108=0140000000) CAM-B3LYP/6-31
 G(d,p)
 ----------------------------------------------------------------------

 --
 TD
 --
 Symbolic Z-matrix:
 Charge =  0 Multiplicity = 1

                         Standard orientation:
 ---------------------------------------------------------------------
 Center     Atomic      Atomic             Coordinates (Angstroms)
 Number     Number       Type             X           Y           Z
 ---------------------------------------------------------------------
      1         12           0       -7.186317    0.557177    0.067175
      2          6           0       -4.818137   -2.008675    0.474962
      3          6           0       -4.804693    2.834270    1.177887
      4          6           0       -9.452033    3.069021   -0.440858
      5          6           0       -9.533739   -1.713963   -0.838288
      6          7           0       -5.198639    0.427873    0.816249
      7          6           0       -4.384949   -0.647166    0.846044
      8          6           0       -2.905077   -0.412901    1.245581
      9          6           0       -2.993843    1.114688    1.769563
     10          6           0       -4.392489    1.547770    1.141051
     11          6           0       -2.940757    1.311040    3.305898
     12          6           0       -2.017484   -0.536479    0.013653
     13          6           0       -0.507746   -0.514524    0.601021
     14          6           0        0.484436   -0.612085   -0.498959
     15          8           0        0.201083   -0.928495   -1.600527
     16          8           0        1.782430   -0.381202   -0.213489
     17          7           0       -7.056907    2.634321    0.239896
     18          6           0       -6.043109    3.447323    0.766781
     19          6           0       -6.376863    4.796079    0.698071
     20          6           0       -7.671284    4.869910    0.282085
     21          6           0       -8.103246    3.491436    0.083073
     22          6           0       -5.489089    5.837725    1.145382
     23          6           0       -8.613131    6.017531    0.286077
     24          6           0       -8.330204    7.258755    0.717982
     25          7           0       -9.127847    0.605577   -0.596965
     26          6           0       -9.871613    1.784854   -0.694286
     27          6           0      -11.272526    1.498333   -1.154227
     28          6           0      -11.231967    0.145154   -1.268112
     29          6           0       -9.916548   -0.375976   -0.896360
     30          6           0      -12.384378    2.486010   -1.278162
     31          6           0      -12.252945   -0.839769   -1.799298
     32          6           0      -11.965502   -1.256303   -3.271614
     33          7           0       -7.167294   -1.473977   -0.099705
     34          6           0       -8.203954   -2.213854   -0.594076
     35          6           0       -7.857849   -3.655034   -0.515563
     36          6           0       -6.510835   -3.670924   -0.119960
     37          6           0       -6.165728   -2.329253    0.127296
     38          6           0       -8.607331   -4.859001   -0.902590
     39          6           0       -5.308385   -4.431119    0.241111
     40          8           0       -5.085202   -5.644789    0.250529
     41          6           0       -4.020237   -3.300911    0.579469
     42          6           0       -3.420353   -3.592101    1.909833
     43          8           0       -3.633668   -3.135310    2.959721
     44          8           0       -2.586579   -4.630964    1.772799
     45          6           0       -2.145472   -5.266518    3.032105
     46          6           0        2.795113   -0.573202   -1.222616
     47          6           0        4.094696   -0.334646   -0.577919
     48          6           0        5.095485    0.421813   -1.065619
     49          6           0        5.057117    1.144939   -2.421226
     50          6           0        6.442838    0.433392   -0.280349
     51          6           0        7.662511   -0.047388   -1.010117
     52          6           0        8.902812   -0.010639   -0.115180
     53          6           0       10.140825   -0.419505   -0.890000
     54          6           0        9.982453   -1.862981   -1.268469
     55          6           0       11.375493   -0.212266    0.011210
     56          6           0       12.730948   -0.537400   -0.676316
     57          6           0       13.967723   -0.118783    0.157138
     58          6           0       15.357991   -0.244166   -0.519717
     59          6           0       15.519196   -1.653236   -0.967782
     60          6           0       16.387530    0.353754    0.517228
     61          6           0       17.724327    0.566316   -0.191881
     62          6           0       18.806695    1.214660    0.708888
     63          6           0       20.283510    1.237274    0.162601
     64          6           0       20.348383    2.014563   -1.048819
     65          6           0       21.067937    1.942475    1.348066
     66          1           0       -4.248331    3.501010    1.960643
     67          1           0      -10.096585    3.972692   -0.712700
     68          1           0      -10.065961   -2.613619   -1.211437
     69          1           0       -2.620865   -0.981154    2.026642
     70          1           0       -2.237720    1.724933    1.174555
     71          1           0       -1.899289    0.922011    3.519711
     72          1           0       -2.828061    2.527376    3.510532
     73          1           0       -3.469078    0.412661    3.750490
     74          1           0       -1.975458   -1.486490   -0.267665
     75          1           0       -2.221444    0.131045   -0.797822
     76          1           0       -0.168127    0.472764    0.909069
     77          1           0       -0.302338   -1.075460    1.433230
     78          1           0       -5.679417    6.696739    0.266762
     79          1           0       -5.935339    6.342464    1.993248
     80          1           0       -4.515753    5.598599    1.128302
     81          1           0       -9.402932    5.983633   -0.427130
     82          1           0       -9.102692    8.161824    0.893522
     83          1           0       -7.386861    7.412591    1.183729
     84          1           0      -12.597213    3.164030   -2.369975
     85          1           0      -13.503257    1.691756   -1.292755
     86          1           0      -12.427147    3.169275   -0.421593
     87          1           0      -12.409356   -1.757697   -1.126257
     88          1           0      -13.308601   -0.362173   -1.867574
     89          1           0      -12.764728   -1.758572   -3.653436
     90          1           0      -11.824662   -0.524722   -3.952606
     91          1           0      -11.030053   -2.016785   -3.031824
     92          1           0       -8.964677   -4.807212   -1.869556
     93          1           0       -7.792876   -5.737484   -0.990773
     94          1           0       -9.509092   -5.110431   -0.260870
     95          1           0       -3.433658   -3.661579   -0.265535
     96          1           0       -1.746838   -4.381604    3.624221
     97          1           0       -2.907300   -5.678579    3.620019
     98          1           0       -1.550792   -5.999247    2.731489
     99          1           0        2.852214   -1.619823   -1.417422
    100          1           0        2.294519   -0.007959   -2.041467
    101          1           0        4.291700   -1.051503    0.269899
    102          1           0        4.131257    1.313734   -2.601433
    103          1           0        5.544819    2.117839   -2.442414
    104          1           0        5.500380    0.782548   -3.298145
    105          1           0        6.532203    1.251495    0.017625
    106          1           0        6.100835   -0.046095    0.717055
    107          1           0        7.388849   -1.038970   -1.169617
    108          1           0        7.738206    0.509753   -1.920158
    109          1           0        8.857057    0.896065    0.523009
    110          1           0        8.846778   -0.860108    0.565527
    111          1           0       10.246105    0.373612   -1.689018
    112          1           0        9.082751   -2.294817   -1.752586
    113          1           0       10.896759   -2.162782   -2.067172
    114          1           0       10.097656   -2.526028   -0.451252
    115          1           0       11.275796    0.723853    0.339442
    116          1           0       11.259963   -0.779827    1.003272
    117          1           0       12.734054   -1.628692   -0.966078
    118          1           0       12.493103   -0.109144   -1.582037
    119          1           0       13.690381    0.887693    0.540278
    120          1           0       14.073316   -0.757219    1.056778
    121          1           0       15.416339    0.293845   -1.300393
    122          1           0       15.282224   -2.490182   -0.178894
    123          1           0       14.703058   -1.702568   -1.883710
    124          1           0       16.549813   -1.680118   -1.252048
    125          1           0       15.965947    1.336866    0.754511
    126          1           0       16.311638   -0.152852    1.447485
    127          1           0       17.984913   -0.575410   -0.105223
    128          1           0       17.493920    0.935716   -1.131470
    129          1           0       18.406927    2.223411    0.905324
    130          1           0       18.812474    0.802984    1.756876
    131          1           0       20.355054    0.295884   -0.153287
    132          1           0       20.038637    2.990469   -0.925475
    133          1           0       21.349765    2.133612   -1.390217
    134          1           0       19.778237    1.714943   -1.896447
    135          1           0       21.096618    1.337831    2.355029
    136          1           0       22.061430    1.980002    0.941928
    137          1           0       20.769764    2.842830    1.610410
 ---------------------------------------------------------------------

 SCF Done:  E(RCAM-B3LYP) =  -2933.39453994     A.U. after   16 cycles

 Excitation energies and oscillator strengths:

 Excited State   1:      Singlet-A      1.8863 eV  657.27 nm  f=0.3061  <S**2>=0.000
     240 -> 243       -0.20664
     241 -> 242        0.67506
 This state for optimization and/or second-order correction.
 Total Energy, E(TD-HF/TD-DFT) =  -2933.32521789
 Copying the excited state density for this state as the 1-particle RhoCI density.

 The electronic state is 1-A.
 Alpha  occ. eigenvalues --  -46.80757 -19.20396 -19.19770 -19.17289 -19.16072
 Alpha  occ. eigenvalues --  -19.15086 -14.38283 -14.35915 -14.35274 -14.35051
 Alpha  occ. eigenvalues --  -10.33251 -10.33029 -10.32021 -10.27150 -10.26518
 Alpha  occ. eigenvalues --  -10.26276 -10.25917 -10.25515 -10.25364 -10.25262
 Alpha  occ. eigenvalues --  -10.25080 -10.25004 -10.25004 -10.24473 -10.24298
 Alpha  occ. eigenvalues --  -10.24128 -10.23954 -10.23878 -10.23821 -10.23342
 Alpha  occ. eigenvalues --  -10.23160 -10.23122 -10.23044 -10.23035 -10.22696
 Alpha  occ. eigenvalues --  -10.22635 -10.22542 -10.22415 -10.22167 -10.22128
 Alpha  occ. eigenvalues --  -10.22044 -10.21991 -10.21915 -10.21863 -10.21649
 Alpha  occ. eigenvalues --  -10.21637 -10.21399 -10.21279 -10.21116 -10.20914
 Alpha  occ. eigenvalues --  -10.20702 -10.20531 -10.20503 -10.20389 -10.20384
 Alpha  occ. eigenvalues --  -10.20341 -10.20062 -10.19955 -10.19793 -10.19672
 Alpha  occ. eigenvalues --  -10.19633 -10.19532 -10.19365 -10.19016 -10.17920
 Alpha  occ. eigenvalues --   -3.09229  -1.84183  -1.83696  -1.83631  -1.13740
 Alpha  occ. eigenvalues --   -1.13047  -1.05696  -1.04405  -1.03844  -1.00157
 Alpha  occ. eigenvalues --   -0.99278  -0.97876  -0.97045  -0.86530  -0.86280
 Alpha  occ. eigenvalues --   -0.85544  -0.85103  -0.84655  -0.84203  -0.83946
 Alpha  occ. eigenvalues --   -0.83554  -0.83384  -0.82608  -0.81953  -0.81258
 Alpha  occ. eigenvalues --   -0.80155  -0.79277  -0.78857  -0.78440  -0.77450
 Alpha  occ. eigenvalues --   -0.77023  -0.76373  -0.75818  -0.75445  -0.74128
 Alpha  occ. eigenvalues --   -0.73202  -0.72215  -0.72124  -0.72063  -0.71345
 Alpha  occ. eigenvalues --   -0.70591  -0.70276  -0.69949  -0.68899  -0.67716
 Alpha  occ. eigenvalues --   -0.66739  -0.66544  -0.65372  -0.64917  -0.64048
 Alpha  occ. eigenvalues --   -0.63114  -0.61939  -0.61335  -0.60838  -0.60223
 Alpha  occ. eigenvalues --   -0.60102  -0.59681  -0.59633  -0.59044  -0.58028
 Alpha  occ. eigenvalues --   -0.57395  -0.56865  -0.56061  -0.55831  -0.55308
 Alpha  occ. eigenvalues --   -0.54571  -0.54421  -0.54096  -0.53553  -0.52880
 Alpha  occ. eigenvalues --   -0.52112  -0.51729  -0.51423  -0.51258  -0.50613
 Alpha  occ. eigenvalues --   -0.50263  -0.49975  -0.49954  -0.49822  -0.49016
 Alpha  occ. eigenvalues --   -0.48933  -0.48417  -0.48190  -0.48085  -0.47909
 Alpha  occ. eigenvalues --   -0.47842  -0.47756  -0.47612  -0.47357  -0.47030
 Alpha  occ. eigenvalues --   -0.46979  -0.46403  -0.46287  -0.46159  -0.45911
 Alpha  occ. eigenvalues --   -0.45695  -0.45519  -0.45316  -0.45014  -0.44766
 Alpha  occ. eigenvalues --   -0.44556  -0.44450  -0.44358  -0.44098  -0.43562
 Alpha  occ. eigenvalues --   -0.43453  -0.43258  -0.43137  -0.42979  -0.42896
 Alpha  occ. eigenvalues --   -0.42673  -0.42529  -0.42271  -0.41918  -0.41700
 Alpha  occ. eigenvalues --   -0.41322  -0.41247  -0.41224  -0.40855  -0.40754
 Alpha  occ. eigenvalues --   -0.40464  -0.40336  -0.40069  -0.39957  -0.39854
 Alpha  occ. eigenvalues --   -0.39738  -0.39609  -0.39491  -0.39326  -0.39181
 Alpha  occ. eigenvalues --   -0.38947  -0.38747  -0.38437  -0.38400  -0.38324
 Alpha  occ. eigenvalues --   -0.38025  -0.37908  -0.37486  -0.37408  -0.37067
 Alpha  occ. eigenvalues --   -0.36866  -0.36391  -0.36289  -0.36007  -0.35782
 Alpha  occ. eigenvalues --   -0.35694  -0.35354  -0.35025  -0.34943  -0.34694
 Alpha  occ. eigenvalues --   -0.34546  -0.34139  -0.34021  -0.33905  -0.33566
 Alpha  occ. eigenvalues --   -0.33374  -0.32841  -0.32576  -0.32165  -0.31918
 Alpha  occ. eigenvalues --   -0.31828  -0.31758  -0.31088  -0.30746  -0.30410
 Alpha  occ. eigenvalues --   -0.29304  -0.29296  -0.28991  -0.28510  -0.27594
 Alpha  occ. eigenvalues --   -0.26958  -0.26870  -0.26824  -0.24742  -0.21292
 Alpha  occ. eigenvalues --   -0.19832
 Alpha virt. eigenvalues --   -0.07885  -0.03518  -0.00297   0.02342   0.03849
 Alpha virt. eigenvalues --    0.04445   0.04556   0.04778   0.05517   0.05968
 Alpha virt. eigenvalues --    0.06581   0.07727   0.08006   0.08729   0.09337

 Mulliken charges:
               1
     1  Mg   0.823532
     2  C    0.048883
     3  C   -0.219324
     4  C   -0.187116
     5  C   -0.175065
     6  N   -0.590069
     7  C    0.305273
     8  C   -0.148797
     9  C   -0.133608
    10  C    0.295008
    11  C   -0.312773
    12  C   -0.151302
    13  C   -0.288137
    14  C    0.577716
    15  O   -0.462589
    16  O   -0.493962
    17  N   -0.672651
    18  C    0.275052
    19  C    0.055891
    20  C   -0.007940
    21  C    0.273649
    22  C   -0.378287
    23  C   -0.056129
    24  C   -0.257251
    25  N   -0.696526
    26  C    0.276298
    27  C    0.096610
    28  C    0.024993
    29  C    0.372299
    30  C   -0.362317
    31  C   -0.269060
    32  C   -0.285244
    33  N   -0.708465
    34  C    0.254759
    35  C    0.004089
    36  C    0.076706
    37  C    0.275819
    38  C   -0.403309
    39  C    0.319538
    40  O   -0.449904
    41  C   -0.323385
    42  C    0.624241
    43  O   -0.465211
    44  O   -0.466354
    45  C   -0.081259
    46  C    0.024512
    47  C   -0.135183
    48  C    0.089110
    49  C   -0.367542
    50  C   -0.206761
    51  C   -0.168390
    52  C   -0.178416
    53  C   -0.064165
    54  C   -0.308345
    55  C   -0.172271
    56  C   -0.189155
    57  C   -0.168080
    58  C   -0.049209
    59  C   -0.289961
    60  C   -0.192537
    61  C   -0.178861
    62  C   -0.175994
    63  C   -0.041830
    64  C   -0.315408
    65  C   -0.312606
    66  H    0.074406
    67  H    0.089912
    68  H    0.083628
    69  H    0.108622
    70  H    0.097984
    71  H    0.103778
    72  H    0.112608
    73  H    0.143544
    74  H    0.141925
    75  H    0.128459
    76  H    0.130881
    77  H    0.143775
    78  H    0.095238
    79  H    0.138625
    80  H    0.117032
    81  H    0.093668
    82  H    0.095014
    83  H    0.087367
    84  H    0.095174
    85  H    0.067404
    86  H    0.138980
    87  H    0.103290
    88  H    0.080392
    89  H    0.113174
    90  H    0.122734
    91  H    0.078451
    92  H    0.141145
    93  H    0.134019
    94  H    0.127786
    95  H    0.163872
    96  H    0.121403
    97  H    0.137049
    98  H    0.129605
    99  H    0.122765
   100  H    0.127104
   101  H    0.097643
   102  H    0.119666
   103  H    0.103379
   104  H    0.128253
   105  H    0.105908
   106  H    0.068533
   107  H    0.110462
   108  H    0.095493
   109  H    0.083556
   110  H    0.092659
   111  H    0.078796
   112  H    0.106685
   113  H    0.067919
   114  H    0.118524
   115  H    0.095730
   116  H    0.065382
   117  H    0.089973
   118  H    0.097292
   119  H    0.078745
   120  H    0.088591
   121  H    0.091209
   122  H    0.087649
   123  H    0.083790
   124  H    0.102142
   125  H    0.080951
   126  H    0.092074
   127  H    0.082561
   128  H    0.099705
   129  H    0.076809
   130  H    0.079760
   131  H    0.095819
   132  H    0.103358
   133  H    0.095067
   134  H    0.102306
   135  H    0.085936
   136  H    0.099142
   137  H    0.124494
 Sum of Mulliken charges =  -0.00000

 Dipole moment (field-independent basis, Debye):
    X=              1.2796    Y=              3.0795    Z=              0.0206  Tot=              3.3348
 Quadrupole moment (field-independent basis, Debye-Ang):
   XX=           -342.1784   YY=           -394.1701   ZZ=           -393.7303
   XY=             -2.2169   XZ=             12.5813   YZ=             -2.2036

 Normal termination of Gaussian 16 at Thu Sep  5 12:22:54 2019.
