 Gaussian 16, Revision A.03,
 Gaussian 16:  ES64L-G16RevA.03 25-Dec-2016

 ----------------------------------------------------------------------
 # td=(NStates=1) iop(3/107=0140000000,3/108=0140000000) CAM-B3LYP/6-31
 G(d,p)
 ----------------------------------------------------------------------

 --
 TD
 --
 Symbolic Z-matrix:
 Charge =  0 Multiplicity = 1

                         Standard orientation:
 ---------------------------------------------------------------------
 Center     Atomic      Atomic             Coordinates (Angstroms)
 Number     Number       Type             X           Y           Z
 ---------------------------------------------------------------------
      1         12           0       -7.142359    0.621686    0.052032
      2          6           0       -4.886219   -1.950688    0.500799
      3          6           0       -4.783787    2.776798    1.144222
      4          6           0       -9.407697    3.113770   -0.429808
      5          6           0       -9.500585   -1.704030   -0.878823
      6          7           0       -5.109186    0.496379    0.708446
      7          6           0       -4.366953   -0.678796    0.753015
      8          6           0       -2.942668   -0.314348    1.197771
      9          6           0       -2.951105    1.108726    1.675141
     10          6           0       -4.370951    1.526718    1.069367
     11          6           0       -2.769547    1.423747    3.078880
     12          6           0       -1.841226   -0.625075    0.091865
     13          6           0       -0.491400   -0.560227    0.589115
     14          6           0        0.490062   -0.737041   -0.621299
     15          8           0        0.207031   -1.123609   -1.722012
     16          8           0        1.767627   -0.432233   -0.145593
     17          7           0       -7.110162    2.667708    0.205539
     18          6           0       -5.944829    3.333320    0.607570
     19          6           0       -6.311880    4.727194    0.749711
     20          6           0       -7.585890    4.931652    0.285190
     21          6           0       -8.085252    3.540534   -0.015267
     22          6           0       -5.404016    5.811780    1.184446
     23          6           0       -8.441135    6.116244    0.105333
     24          6           0       -8.338972    7.277350    0.716644
     25          7           0       -9.187352    0.746849   -0.402068
     26          6           0       -9.890340    1.855292   -0.609185
     27          6           0      -11.302793    1.483137   -1.011939
     28          6           0      -11.343139    0.107945   -1.226925
     29          6           0       -9.983187   -0.360509   -0.943941
     30          6           0      -12.309405    2.510272   -1.304731
     31          6           0      -12.496416   -0.786891   -1.738014
     32          6           0      -12.201055   -1.286305   -3.106433
     33          7           0       -7.229449   -1.416738   -0.129683
     34          6           0       -8.322712   -2.187436   -0.614523
     35          6           0       -7.899159   -3.561220   -0.638293
     36          6           0       -6.501604   -3.534520   -0.206935
     37          6           0       -6.209527   -2.224198    0.056859
     38          6           0       -8.650310   -4.751608   -1.065575
     39          6           0       -5.399924   -4.393634    0.280085
     40          8           0       -5.177811   -5.612953    0.277862
     41          6           0       -4.217742   -3.275583    0.721641
     42          6           0       -3.643192   -3.634024    1.963658
     43          8           0       -3.705341   -2.940754    2.997098
     44          8           0       -2.797203   -4.657312    1.836960
     45          6           0       -2.273704   -5.226107    3.039632
     46          6           0        2.803360   -0.671725   -1.203295
     47          6           0        4.118865   -0.536990   -0.543597
     48          6           0        5.111887    0.328268   -0.916127
     49          6           0        5.037079    1.119536   -2.125755
     50          6           0        6.508287    0.274079   -0.171757
     51          6           0        7.608157   -0.256186   -0.963488
     52          6           0        8.898169   -0.238538   -0.111145
     53          6           0       10.282848   -0.766819   -0.819664
     54          6           0       10.173667   -2.293106   -1.230882
     55          6           0       11.465398   -0.507024    0.044047
     56          6           0       12.865614   -0.676363   -0.592202
     57          6           0       13.959961   -0.162674    0.273391
     58          6           0       15.328330   -0.155584   -0.460567
     59          6           0       15.685754   -1.479440   -0.946114
     60          6           0       16.391191    0.531533    0.349874
     61          6           0       17.778324    0.719257   -0.185953
     62          6           0       18.842730    1.426241    0.685161
     63          6           0       20.254871    1.471146    0.131875
     64          6           0       20.173262    2.262179   -1.196520
     65          6           0       21.216422    1.883589    1.187548
     66          1           0       -3.979181    3.629802    1.399397
     67          1           0       -9.947907    4.162765   -0.480084
     68          1           0      -10.250603   -2.438596   -1.070758
     69          1           0       -3.048195   -1.029005    2.160382
     70          1           0       -2.219450    1.800959    1.254263
     71          1           0       -1.793667    1.122956    3.514307
     72          1           0       -2.879470    2.392672    3.386992
     73          1           0       -3.489076    0.917474    3.792642
     74          1           0       -2.085970   -1.464368   -0.350646
     75          1           0       -2.167519    0.193487   -0.572733
     76          1           0       -0.370330    0.298200    1.128291
     77          1           0       -0.242541   -1.266770    1.288538
     78          1           0       -5.456221    6.699870    0.503998
     79          1           0       -5.752684    6.125659    2.114610
     80          1           0       -4.402969    5.477198    1.130399
     81          1           0       -9.081732    5.846950   -0.625251
     82          1           0       -8.899509    8.155252    0.304017
     83          1           0       -7.758182    7.451778    1.581199
     84          1           0      -11.855453    2.895082   -2.299954
     85          1           0      -13.319662    2.063482   -1.759255
     86          1           0      -12.405660    3.411118   -0.692506
     87          1           0      -12.562089   -1.557340   -0.908221
     88          1           0      -13.464308   -0.321704   -1.813438
     89          1           0      -13.288504   -1.565376   -3.439749
     90          1           0      -12.093934   -0.438742   -3.786335
     91          1           0      -11.567460   -2.012338   -3.249328
     92          1           0       -8.851392   -4.753564   -2.210170
     93          1           0       -8.110601   -5.660151   -1.016096
     94          1           0       -9.740838   -5.012430   -0.536059
     95          1           0       -3.668937   -3.502085   -0.240448
     96          1           0       -1.835068   -4.290111    3.863301
     97          1           0       -3.268620   -5.700478    3.671899
     98          1           0       -1.680872   -6.048381    2.871368
     99          1           0        2.503011   -1.779569   -1.478634
    100          1           0        2.713762   -0.066729   -1.895620
    101          1           0        4.225360   -1.203892    0.234025
    102          1           0        4.003737    1.061469   -2.334449
    103          1           0        5.245734    2.146474   -1.855699
    104          1           0        5.842824    0.837051   -2.669342
    105          1           0        6.629468    1.379837   -0.131012
    106          1           0        6.442106    0.118860    1.053380
    107          1           0        7.487501   -1.238021   -1.236809
    108          1           0        7.759680    0.346580   -1.845620
    109          1           0        9.374381    0.644047    0.401151
    110          1           0        8.705211   -0.979387    0.949307
    111          1           0       10.511253   -0.279593   -1.766087
    112          1           0        9.319931   -2.489320   -1.815435
    113          1           0       11.107054   -2.632632   -1.761522
    114          1           0        9.951980   -2.959809   -0.335678
    115          1           0       11.182484    0.522979    0.392935
    116          1           0       11.379489   -1.104085    0.831488
    117          1           0       12.832891   -1.669588   -0.785973
    118          1           0       12.669674   -0.070852   -1.469850
    119          1           0       13.716504    0.914693    0.415348
    120          1           0       14.108189   -0.662276    1.309736
    121          1           0       15.153947    0.663141   -1.356454
    122          1           0       15.922761   -2.105432   -0.129993
    123          1           0       14.795494   -1.991935   -1.521374
    124          1           0       16.547425   -1.732444   -1.561298
    125          1           0       15.990743    1.514251    0.622632
    126          1           0       16.536479    0.055622    1.249874
    127          1           0       18.292353   -0.331130   -0.457533
    128          1           0       17.832125    1.162685   -1.178528
    129          1           0       18.595103    2.510327    0.750696
    130          1           0       18.893409    0.863139    1.618428
    131          1           0       20.560359    0.360981   -0.229043
    132          1           0       19.942469    3.281115   -0.898528
    133          1           0       21.179470    2.239229   -1.668003
    134          1           0       19.657481    1.733865   -1.897923
    135          1           0       21.001164    1.161933    1.955704
    136          1           0       22.209754    1.831838    1.055148
    137          1           0       20.967294    2.836888    1.646932
 ---------------------------------------------------------------------

 SCF Done:  E(RCAM-B3LYP) =  -2933.47956797     A.U. after   16 cycles

 Excitation energies and oscillator strengths:

 Excited State   1:      Singlet-A      1.9644 eV  631.14 nm  f=0.2737  <S**2>=0.000
     240 -> 243        0.19448
     241 -> 242        0.67442
 This state for optimization and/or second-order correction.
 Total Energy, E(TD-HF/TD-DFT) =  -2933.40737635
 Copying the excited state density for this state as the 1-particle RhoCI density.

 The electronic state is 1-A.
 Alpha  occ. eigenvalues --  -46.80159 -19.22221 -19.20809 -19.17523 -19.16674
 Alpha  occ. eigenvalues --  -19.15553 -14.37391 -14.35315 -14.35113 -14.34577
 Alpha  occ. eigenvalues --  -10.34319 -10.33882 -10.31509 -10.28938 -10.26305
 Alpha  occ. eigenvalues --  -10.25727 -10.25397 -10.25374 -10.25361 -10.25285
 Alpha  occ. eigenvalues --  -10.24876 -10.24605 -10.23947 -10.23856 -10.23740
 Alpha  occ. eigenvalues --  -10.23647 -10.23233 -10.23180 -10.23104 -10.22954
 Alpha  occ. eigenvalues --  -10.22934 -10.22774 -10.22721 -10.22695 -10.22600
 Alpha  occ. eigenvalues --  -10.22499 -10.22390 -10.22217 -10.22196 -10.22110
 Alpha  occ. eigenvalues --  -10.22083 -10.22055 -10.21862 -10.21836 -10.21824
 Alpha  occ. eigenvalues --  -10.21727 -10.21706 -10.21590 -10.21396 -10.21035
 Alpha  occ. eigenvalues --  -10.20891 -10.20745 -10.20574 -10.20417 -10.20414
 Alpha  occ. eigenvalues --  -10.20394 -10.20381 -10.20357 -10.20210 -10.19869
 Alpha  occ. eigenvalues --  -10.19706 -10.19464 -10.19053 -10.19019 -10.18676
 Alpha  occ. eigenvalues --   -3.08623  -1.83582  -1.83082  -1.83022  -1.12971
 Alpha  occ. eigenvalues --   -1.11268  -1.04864  -1.03958  -1.02542  -0.99497
 Alpha  occ. eigenvalues --   -0.98531  -0.98067  -0.96285  -0.87515  -0.86977
 Alpha  occ. eigenvalues --   -0.86276  -0.85605  -0.84880  -0.84436  -0.84116
 Alpha  occ. eigenvalues --   -0.83786  -0.83563  -0.82948  -0.82246  -0.81794
 Alpha  occ. eigenvalues --   -0.81327  -0.79984  -0.79579  -0.78744  -0.78557
 Alpha  occ. eigenvalues --   -0.77642  -0.76701  -0.76142  -0.75822  -0.73650
 Alpha  occ. eigenvalues --   -0.73473  -0.72843  -0.72573  -0.71243  -0.71149
 Alpha  occ. eigenvalues --   -0.70995  -0.70595  -0.70247  -0.68583  -0.68052
 Alpha  occ. eigenvalues --   -0.66986  -0.66492  -0.65699  -0.65306  -0.64280
 Alpha  occ. eigenvalues --   -0.63168  -0.62734  -0.61375  -0.60912  -0.60467
 Alpha  occ. eigenvalues --   -0.59892  -0.59559  -0.59033  -0.57748  -0.57293
 Alpha  occ. eigenvalues --   -0.56923  -0.56811  -0.56135  -0.55874  -0.54878
 Alpha  occ. eigenvalues --   -0.54703  -0.54299  -0.53634  -0.53296  -0.53111
 Alpha  occ. eigenvalues --   -0.52599  -0.52112  -0.51775  -0.51337  -0.51105
 Alpha  occ. eigenvalues --   -0.50991  -0.50650  -0.50245  -0.50232  -0.49768
 Alpha  occ. eigenvalues --   -0.49351  -0.49059  -0.48813  -0.48673  -0.48135
 Alpha  occ. eigenvalues --   -0.48082  -0.47797  -0.47758  -0.47593  -0.47292
 Alpha  occ. eigenvalues --   -0.47220  -0.46866  -0.46341  -0.46270  -0.45992
 Alpha  occ. eigenvalues --   -0.45909  -0.45572  -0.45442  -0.45298  -0.45219
 Alpha  occ. eigenvalues --   -0.44686  -0.44609  -0.44396  -0.44163  -0.44076
 Alpha  occ. eigenvalues --   -0.43706  -0.43458  -0.43344  -0.43169  -0.42755
 Alpha  occ. eigenvalues --   -0.42607  -0.42401  -0.42209  -0.42047  -0.41985
 Alpha  occ. eigenvalues --   -0.41761  -0.41660  -0.41423  -0.41279  -0.41152
 Alpha  occ. eigenvalues --   -0.41052  -0.40825  -0.40541  -0.39953  -0.39863
 Alpha  occ. eigenvalues --   -0.39561  -0.39235  -0.39194  -0.38945  -0.38774
 Alpha  occ. eigenvalues --   -0.38643  -0.38452  -0.38226  -0.38213  -0.38086
 Alpha  occ. eigenvalues --   -0.37842  -0.37669  -0.37336  -0.37262  -0.37140
 Alpha  occ. eigenvalues --   -0.36754  -0.36652  -0.36170  -0.36075  -0.35875
 Alpha  occ. eigenvalues --   -0.35569  -0.35502  -0.34793  -0.34689  -0.34155
 Alpha  occ. eigenvalues --   -0.33856  -0.33734  -0.33673  -0.33533  -0.33021
 Alpha  occ. eigenvalues --   -0.32939  -0.32792  -0.32687  -0.32670  -0.32484
 Alpha  occ. eigenvalues --   -0.32235  -0.32191  -0.31319  -0.31187  -0.30826
 Alpha  occ. eigenvalues --   -0.30189  -0.30020  -0.29575  -0.28280  -0.26580
 Alpha  occ. eigenvalues --   -0.26469  -0.26434  -0.25183  -0.24987  -0.21763
 Alpha  occ. eigenvalues --   -0.19855
 Alpha virt. eigenvalues --   -0.07421  -0.03703   0.00108   0.02397   0.02551
 Alpha virt. eigenvalues --    0.03765   0.04738   0.04856   0.05491   0.05738
 Alpha virt. eigenvalues --    0.06868   0.08887   0.09266   0.09883   0.10447

 Mulliken charges:
               1
     1  Mg   0.808357
     2  C    0.085098
     3  C   -0.189528
     4  C   -0.176354
     5  C   -0.191221
     6  N   -0.629292
     7  C    0.276646
     8  C   -0.216088
     9  C   -0.102128
    10  C    0.349418
    11  C   -0.321028
    12  C   -0.141153
    13  C   -0.250458
    14  C    0.604584
    15  O   -0.455573
    16  O   -0.502934
    17  N   -0.699787
    18  C    0.289959
    19  C   -0.021271
    20  C    0.014498
    21  C    0.281337
    22  C   -0.372317
    23  C   -0.026608
    24  C   -0.257369
    25  N   -0.664376
    26  C    0.364942
    27  C    0.022871
    28  C    0.041664
    29  C    0.219982
    30  C   -0.391763
    31  C   -0.230176
    32  C   -0.296596
    33  N   -0.758410
    34  C    0.321747
    35  C    0.045507
    36  C   -0.001530
    37  C    0.339322
    38  C   -0.400761
    39  C    0.330857
    40  O   -0.460530
    41  C   -0.350562
    42  C    0.652324
    43  O   -0.503289
    44  O   -0.424027
    45  C   -0.066070
    46  C    0.025973
    47  C   -0.092382
    48  C    0.057619
    49  C   -0.343252
    50  C   -0.218252
    51  C   -0.157069
    52  C   -0.170467
    53  C   -0.071024
    54  C   -0.322258
    55  C   -0.181917
    56  C   -0.172350
    57  C   -0.160915
    58  C   -0.035996
    59  C   -0.313127
    60  C   -0.158505
    61  C   -0.184814
    62  C   -0.146743
    63  C   -0.062285
    64  C   -0.304794
    65  C   -0.303483
    66  H    0.069683
    67  H    0.068952
    68  H    0.082439
    69  H    0.138956
    70  H    0.100882
    71  H    0.105719
    72  H    0.118156
    73  H    0.109844
    74  H    0.118002
    75  H    0.106594
    76  H    0.129840
    77  H    0.147089
    78  H    0.120543
    79  H    0.135884
    80  H    0.109511
    81  H    0.086202
    82  H    0.097558
    83  H    0.104446
    84  H    0.121589
    85  H    0.099150
    86  H    0.130470
    87  H    0.108299
    88  H    0.107988
    89  H    0.081545
    90  H    0.117711
    91  H    0.123800
    92  H    0.117709
    93  H    0.154015
    94  H    0.100682
    95  H    0.181168
    96  H    0.105889
    97  H    0.092670
    98  H    0.137987
    99  H    0.114290
   100  H    0.106862
   101  H    0.081272
   102  H    0.115050
   103  H    0.114858
   104  H    0.133094
   105  H    0.098360
   106  H    0.089539
   107  H    0.123282
   108  H    0.106967
   109  H    0.092042
   110  H    0.044543
   111  H    0.078945
   112  H    0.103754
   113  H    0.095310
   114  H    0.090614
   115  H    0.067566
   116  H    0.101484
   117  H    0.112725
   118  H    0.094849
   119  H    0.092819
   120  H    0.081086
   121  H    0.048342
   122  H    0.103645
   123  H    0.085566
   124  H    0.106554
   125  H    0.084155
   126  H    0.090185
   127  H    0.058330
   128  H    0.090840
   129  H    0.082865
   130  H    0.083155
   131  H    0.049428
   132  H    0.099527
   133  H    0.086088
   134  H    0.119796
   135  H    0.103566
   136  H    0.110485
   137  H    0.095320
 Sum of Mulliken charges =  -0.00000

 Dipole moment (field-independent basis, Debye):
    X=              1.3240    Y=              4.4212    Z=             -0.9717  Tot=              4.7163
 Quadrupole moment (field-independent basis, Debye-Ang):
   XX=           -335.8490   YY=           -389.4873   ZZ=           -397.3746
   XY=            -19.3325   XZ=             21.2400   YZ=              0.9722

 Normal termination of Gaussian 16 at Wed Sep 11 00:23:54 2019.
