 Gaussian 16, Revision A.03,
 Gaussian 16:  ES64L-G16RevA.03 25-Dec-2016

 ----------------------------------------------------------------------
 # td=(NStates=1) iop(3/107=0140000000,3/108=0140000000) CAM-B3LYP/6-31
 G(d,p)
 ----------------------------------------------------------------------

 --
 TD
 --
 Symbolic Z-matrix:
 Charge =  0 Multiplicity = 1

                         Standard orientation:
 ---------------------------------------------------------------------
 Center     Atomic      Atomic             Coordinates (Angstroms)
 Number     Number       Type             X           Y           Z
 ---------------------------------------------------------------------
      1         12           0       -7.162608    0.559145    0.181916
      2          6           0       -4.888957   -1.961286    0.497733
      3          6           0       -4.709966    2.804119    1.095589
      4          6           0       -9.386866    3.031171   -0.283996
      5          6           0       -9.464971   -1.774531   -0.983876
      6          7           0       -5.190314    0.420686    0.692553
      7          6           0       -4.353711   -0.736642    0.828460
      8          6           0       -2.994898   -0.427194    1.238369
      9          6           0       -3.075809    1.057248    1.662682
     10          6           0       -4.464708    1.495127    1.109840
     11          6           0       -3.070238    1.222067    3.209250
     12          6           0       -2.006392   -0.621426    0.019292
     13          6           0       -0.534718   -0.404524    0.423234
     14          6           0        0.513500   -0.713637   -0.665167
     15          8           0        0.226031   -1.133974   -1.656139
     16          8           0        1.737812   -0.401977   -0.185805
     17          7           0       -7.060863    2.542157    0.394715
     18          6           0       -5.999691    3.374921    0.807905
     19          6           0       -6.391745    4.734684    0.804618
     20          6           0       -7.755923    4.834353    0.454173
     21          6           0       -8.186797    3.494222    0.105461
     22          6           0       -5.497520    5.967182    1.029759
     23          6           0       -8.594231    5.982622    0.166457
     24          6           0       -8.431759    7.303514    0.652688
     25          7           0       -9.140983    0.571924   -0.395440
     26          6           0       -9.797123    1.711602   -0.517693
     27          6           0      -11.234057    1.412044   -1.058115
     28          6           0      -11.209242    0.046427   -1.296838
     29          6           0       -9.938957   -0.410787   -0.938053
     30          6           0      -12.259562    2.400580   -1.442785
     31          6           0      -12.369632   -0.699931   -1.770989
     32          6           0      -12.260504   -1.211118   -3.227974
     33          7           0       -7.176376   -1.426161   -0.112413
     34          6           0       -8.223951   -2.245702   -0.593994
     35          6           0       -7.820568   -3.656702   -0.531011
     36          6           0       -6.458049   -3.627764   -0.114909
     37          6           0       -6.183975   -2.173369    0.088151
     38          6           0       -8.552319   -4.789899   -1.073049
     39          6           0       -5.271232   -4.372585    0.202982
     40          8           0       -5.099374   -5.497392    0.131967
     41          6           0       -4.241865   -3.253232    0.640108
     42          6           0       -3.514286   -3.665482    1.964500
     43          8           0       -3.662316   -3.195501    3.032518
     44          8           0       -2.840679   -4.789704    1.816047
     45          6           0       -2.135466   -5.108575    3.055170
     46          6           0        2.779904   -0.478382   -1.216185
     47          6           0        4.148723   -0.380909   -0.597057
     48          6           0        5.103143    0.491185   -0.908305
     49          6           0        5.093304    1.418620   -2.107607
     50          6           0        6.372483    0.476955   -0.015237
     51          6           0        7.573680    0.058754   -0.961795
     52          6           0        8.890584   -0.073845   -0.187913
     53          6           0       10.186554   -0.478406   -1.003641
     54          6           0       10.071493   -1.850582   -1.617569
     55          6           0       11.476791   -0.193076   -0.211915
     56          6           0       12.804656   -0.543518   -0.941587
     57          6           0       13.947215   -0.162198    0.084908
     58          6           0       15.345275   -0.264092   -0.433948
     59          6           0       15.740514   -1.814036   -0.580112
     60          6           0       16.360654    0.469577    0.482515
     61          6           0       17.833917    0.487385   -0.203846
     62          6           0       18.785196    1.112848    0.751225
     63          6           0       20.195613    1.317257    0.263752
     64          6           0       20.401299    2.322449   -0.983302
     65          6           0       21.114944    1.675730    1.370429
     66          1           0       -4.073677    3.670657    1.550872
     67          1           0      -10.053376    3.792768   -0.477674
     68          1           0       -9.965038   -2.565597   -1.410389
     69          1           0       -2.667216   -1.134636    2.154287
     70          1           0       -2.188881    1.378713    1.255851
     71          1           0       -2.138349    0.594596    3.699699
     72          1           0       -3.229807    2.294095    3.638348
     73          1           0       -3.926632    0.629835    3.692989
     74          1           0       -2.046418   -1.715547   -0.338532
     75          1           0       -2.155604    0.021250   -0.887433
     76          1           0       -0.198558    0.675294    0.740780
     77          1           0       -0.162413   -1.041832    1.313591
     78          1           0       -5.542122    6.984027    0.447579
     79          1           0       -5.505719    6.413369    2.075297
     80          1           0       -4.553508    5.593212    0.708136
     81          1           0       -9.381468    5.937524   -0.562874
     82          1           0       -9.152607    7.992966    0.534466
     83          1           0       -7.716512    7.438015    1.400724
     84          1           0      -11.808127    3.295044   -2.059932
     85          1           0      -13.168538    2.015762   -1.790236
     86          1           0      -12.682302    2.781007   -0.472383
     87          1           0      -12.308702   -1.572659   -0.946639
     88          1           0      -13.297434   -0.160867   -1.517796
     89          1           0      -12.981881   -1.907634   -3.583386
     90          1           0      -12.562060   -0.487485   -3.946470
     91          1           0      -11.158727   -1.544373   -3.353030
     92          1           0       -8.916339   -4.647233   -2.061468
     93          1           0       -8.079607   -5.840340   -0.954801
     94          1           0       -9.389985   -4.741824   -0.391820
     95          1           0       -3.378438   -3.336400   -0.092578
     96          1           0       -1.523274   -4.139161    3.210149
     97          1           0       -2.821778   -5.286550    3.878868
     98          1           0       -1.404638   -5.991964    2.988756
     99          1           0        2.572504   -1.341573   -1.790573
    100          1           0        2.614714    0.398732   -1.870621
    101          1           0        4.482333   -0.836771    0.345617
    102          1           0        4.340855    1.645550   -2.974238
    103          1           0        5.529490    2.279902   -1.809108
    104          1           0        5.744168    1.060303   -2.993534
    105          1           0        6.665707    1.442851    0.331539
    106          1           0        6.308392   -0.111276    0.817328
    107          1           0        7.255796   -0.963764   -1.255161
    108          1           0        7.723241    0.527462   -1.822228
    109          1           0        9.175802    0.973457    0.246077
    110          1           0        8.827951   -0.830033    0.723940
    111          1           0       10.260498    0.341327   -1.754111
    112          1           0        8.826843   -2.159948   -2.122930
    113          1           0       10.809288   -1.884116   -2.403265
    114          1           0       10.165093   -2.471336   -0.580567
    115          1           0       11.447113    0.794664    0.161731
    116          1           0       11.387159   -0.818151    0.647709
    117          1           0       12.772069   -1.476182   -1.279458
    118          1           0       13.058240   -0.101708   -1.793241
    119          1           0       13.787015    0.993026    0.177790
    120          1           0       13.784605   -0.635747    1.126762
    121          1           0       15.147282    0.380910   -1.405400
    122          1           0       15.964517   -2.418728    0.305107
    123          1           0       15.090296   -2.375374   -1.313961
    124          1           0       16.767509   -1.867749   -1.058409
    125          1           0       16.033506    1.624654    0.556235
    126          1           0       16.401994   -0.234209    1.623161
    127          1           0       18.155180   -0.596531   -0.419287
    128          1           0       17.827929    1.019580   -1.073407
    129          1           0       18.289144    2.077293    1.174973
    130          1           0       18.695945    0.535811    1.795284
    131          1           0       20.664549    0.346814   -0.317941
    132          1           0       20.058790    3.271616   -0.733451
    133          1           0       21.467848    2.373473   -1.136431
    134          1           0       19.736897    1.876112   -1.976336
    135          1           0       21.473969    0.613428    1.934873
    136          1           0       22.185714    1.727811    1.060274
    137          1           0       20.920517    2.447480    1.820004
 ---------------------------------------------------------------------

 SCF Done:  E(RCAM-B3LYP) =  -2933.42895893     A.U. after   15 cycles

 Excitation energies and oscillator strengths:

 Excited State   1:      Singlet-A      2.0508 eV  604.58 nm  f=0.2581  <S**2>=0.000
     240 -> 243       -0.23417
     241 -> 242        0.66006
 This state for optimization and/or second-order correction.
 Total Energy, E(TD-HF/TD-DFT) =  -2933.35359523
 Copying the excited state density for this state as the 1-particle RhoCI density.

 The electronic state is 1-A.
 Alpha  occ. eigenvalues --  -46.78514 -19.21586 -19.20872 -19.16948 -19.15747
 Alpha  occ. eigenvalues --  -19.15699 -14.36841 -14.35361 -14.34826 -14.34781
 Alpha  occ. eigenvalues --  -10.33494 -10.33120 -10.29286 -10.27414 -10.27070
 Alpha  occ. eigenvalues --  -10.25724 -10.25528 -10.25284 -10.24776 -10.24666
 Alpha  occ. eigenvalues --  -10.24488 -10.24481 -10.24479 -10.24357 -10.23596
 Alpha  occ. eigenvalues --  -10.23558 -10.23548 -10.23503 -10.23399 -10.23329
 Alpha  occ. eigenvalues --  -10.23263 -10.23111 -10.22995 -10.22946 -10.22937
 Alpha  occ. eigenvalues --  -10.22936 -10.22832 -10.22751 -10.22716 -10.22418
 Alpha  occ. eigenvalues --  -10.22278 -10.22192 -10.22146 -10.22015 -10.21866
 Alpha  occ. eigenvalues --  -10.21838 -10.21755 -10.21591 -10.21498 -10.21476
 Alpha  occ. eigenvalues --  -10.21387 -10.21371 -10.21282 -10.21216 -10.21148
 Alpha  occ. eigenvalues --  -10.21132 -10.20935 -10.20934 -10.20704 -10.20620
 Alpha  occ. eigenvalues --  -10.20436 -10.20434 -10.20205 -10.19754 -10.19176
 Alpha  occ. eigenvalues --   -3.07378  -1.82301  -1.81871  -1.81791  -1.15650
 Alpha  occ. eigenvalues --   -1.14665  -1.10155  -1.06941  -1.04620  -0.99963
 Alpha  occ. eigenvalues --   -0.98428  -0.97196  -0.94513  -0.87668  -0.86006
 Alpha  occ. eigenvalues --   -0.85046  -0.84599  -0.84193  -0.84097  -0.83842
 Alpha  occ. eigenvalues --   -0.83259  -0.82715  -0.82450  -0.81402  -0.80348
 Alpha  occ. eigenvalues --   -0.79538  -0.78862  -0.78253  -0.77921  -0.77319
 Alpha  occ. eigenvalues --   -0.76263  -0.75988  -0.75629  -0.75120  -0.73979
 Alpha  occ. eigenvalues --   -0.72991  -0.72395  -0.71782  -0.70925  -0.70592
 Alpha  occ. eigenvalues --   -0.69987  -0.69938  -0.69147  -0.68417  -0.67790
 Alpha  occ. eigenvalues --   -0.66573  -0.66342  -0.66226  -0.64883  -0.64060
 Alpha  occ. eigenvalues --   -0.62654  -0.62619  -0.61528  -0.61277  -0.60069
 Alpha  occ. eigenvalues --   -0.59831  -0.58224  -0.58135  -0.57741  -0.57623
 Alpha  occ. eigenvalues --   -0.56446  -0.56166  -0.55937  -0.55548  -0.55255
 Alpha  occ. eigenvalues --   -0.54389  -0.54153  -0.53413  -0.52911  -0.52599
 Alpha  occ. eigenvalues --   -0.52031  -0.51603  -0.51375  -0.50995  -0.50693
 Alpha  occ. eigenvalues --   -0.50572  -0.50208  -0.49890  -0.49730  -0.49473
 Alpha  occ. eigenvalues --   -0.49327  -0.48989  -0.48575  -0.48197  -0.48004
 Alpha  occ. eigenvalues --   -0.47771  -0.47680  -0.47205  -0.46810  -0.46624
 Alpha  occ. eigenvalues --   -0.46530  -0.46231  -0.46057  -0.46053  -0.45851
 Alpha  occ. eigenvalues --   -0.45539  -0.45424  -0.45272  -0.44952  -0.44836
 Alpha  occ. eigenvalues --   -0.44716  -0.44362  -0.44039  -0.43768  -0.43397
 Alpha  occ. eigenvalues --   -0.43272  -0.43107  -0.42764  -0.42637  -0.42531
 Alpha  occ. eigenvalues --   -0.42347  -0.42076  -0.41958  -0.41902  -0.41705
 Alpha  occ. eigenvalues --   -0.41417  -0.41379  -0.41198  -0.41068  -0.40816
 Alpha  occ. eigenvalues --   -0.40683  -0.40400  -0.40160  -0.39962  -0.39837
 Alpha  occ. eigenvalues --   -0.39576  -0.39443  -0.39068  -0.38841  -0.38781
 Alpha  occ. eigenvalues --   -0.38506  -0.38311  -0.37956  -0.37784  -0.37707
 Alpha  occ. eigenvalues --   -0.37524  -0.37368  -0.37304  -0.37152  -0.36980
 Alpha  occ. eigenvalues --   -0.36884  -0.36739  -0.36463  -0.36125  -0.35939
 Alpha  occ. eigenvalues --   -0.35756  -0.35676  -0.34818  -0.34803  -0.34260
 Alpha  occ. eigenvalues --   -0.34174  -0.33857  -0.33828  -0.33496  -0.33212
 Alpha  occ. eigenvalues --   -0.32901  -0.32701  -0.32576  -0.32385  -0.32360
 Alpha  occ. eigenvalues --   -0.32171  -0.31958  -0.30805  -0.30602  -0.30515
 Alpha  occ. eigenvalues --   -0.30308  -0.30009  -0.29198  -0.27859  -0.26959
 Alpha  occ. eigenvalues --   -0.26873  -0.26306  -0.25345  -0.24167  -0.21541
 Alpha  occ. eigenvalues --   -0.19867
 Alpha virt. eigenvalues --   -0.06821  -0.03866   0.00618   0.02220   0.04449
 Alpha virt. eigenvalues --    0.05053   0.05370   0.05805   0.06025   0.06629
 Alpha virt. eigenvalues --    0.07534   0.08508   0.08944   0.09146   0.09492

 Mulliken charges:
               1
     1  Mg   0.787309
     2  C    0.119336
     3  C   -0.187781
     4  C   -0.143346
     5  C   -0.166074
     6  N   -0.657283
     7  C    0.331346
     8  C   -0.179031
     9  C   -0.107343
    10  C    0.366500
    11  C   -0.309818
    12  C   -0.181272
    13  C   -0.280357
    14  C    0.592780
    15  O   -0.399385
    16  O   -0.488113
    17  N   -0.708455
    18  C    0.317969
    19  C   -0.003419
    20  C    0.064282
    21  C    0.248965
    22  C   -0.382839
    23  C   -0.111255
    24  C   -0.231382
    25  N   -0.679915
    26  C    0.318482
    27  C    0.004944
    28  C    0.065039
    29  C    0.276490
    30  C   -0.381213
    31  C   -0.237845
    32  C   -0.312623
    33  N   -0.726206
    34  C    0.247833
    35  C    0.007437
    36  C    0.005555
    37  C    0.323343
    38  C   -0.379930
    39  C    0.355739
    40  O   -0.398097
    41  C   -0.379274
    42  C    0.592272
    43  O   -0.461706
    44  O   -0.424600
    45  C   -0.082028
    46  C    0.006597
    47  C   -0.126431
    48  C    0.127002
    49  C   -0.380488
    50  C   -0.234569
    51  C   -0.165555
    52  C   -0.168379
    53  C   -0.078902
    54  C   -0.260212
    55  C   -0.168939
    56  C   -0.176661
    57  C   -0.159620
    58  C   -0.039374
    59  C   -0.328621
    60  C   -0.151221
    61  C   -0.162241
    62  C   -0.146226
    63  C   -0.045165
    64  C   -0.303122
    65  C   -0.283598
    66  H    0.083137
    67  H    0.067711
    68  H    0.071608
    69  H    0.118767
    70  H    0.102570
    71  H    0.084447
    72  H    0.104081
    73  H    0.119250
    74  H    0.113483
    75  H    0.123552
    76  H    0.118439
    77  H    0.118750
    78  H    0.116848
    79  H    0.117904
    80  H    0.117436
    81  H    0.096904
    82  H    0.103232
    83  H    0.098982
    84  H    0.116819
    85  H    0.117285
    86  H    0.117011
    87  H    0.086468
    88  H    0.099197
    89  H    0.108832
    90  H    0.116018
    91  H    0.104189
    92  H    0.138955
    93  H    0.139781
    94  H    0.132845
    95  H    0.143034
    96  H    0.112970
    97  H    0.144321
    98  H    0.116879
    99  H    0.136300
   100  H    0.115320
   101  H    0.077522
   102  H    0.113305
   103  H    0.128584
   104  H    0.109028
   105  H    0.105617
   106  H    0.112420
   107  H    0.095715
   108  H    0.106919
   109  H    0.067505
   110  H    0.063341
   111  H    0.071673
   112  H    0.051457
   113  H    0.115788
   114  H    0.086713
   115  H    0.096302
   116  H    0.091317
   117  H    0.102919
   118  H    0.092151
   119  H    0.066965
   120  H    0.077039
   121  H    0.069667
   122  H    0.113911
   123  H    0.099860
   124  H    0.093599
   125  H    0.077227
   126  H    0.049540
   127  H    0.089902
   128  H    0.105310
   129  H    0.071778
   130  H    0.073619
   131  H    0.059032
   132  H    0.109777
   133  H    0.110142
   134  H    0.066578
   135  H    0.073772
   136  H    0.091261
   137  H    0.110116
 Sum of Mulliken charges =  -0.00000

 Dipole moment (field-independent basis, Debye):
    X=              1.6949    Y=              3.9381    Z=             -1.1707  Tot=              4.4443
 Quadrupole moment (field-independent basis, Debye-Ang):
   XX=           -317.4946   YY=           -392.7303   ZZ=           -394.8001
   XY=             -9.3226   XZ=             10.9080   YZ=             -3.1106

 Normal termination of Gaussian 16 at Mon Sep 16 08:12:54 2019.
