 Gaussian 16, Revision A.03,
 Gaussian 16:  ES64L-G16RevA.03 25-Dec-2016

 ----------------------------------------------------------------------
 # td=(NStates=1) iop(3/107=0140000000,3/108=0140000000) CAM-B3LYP/6-31
 G(d,p)
 ----------------------------------------------------------------------

 --
 TD
 --
 Symbolic Z-matrix:
 Charge =  0 Multiplicity = 1

                         Standard orientation:
 ---------------------------------------------------------------------
 Center     Atomic      Atomic             Coordinates (Angstroms)
 Number     Number       Type             X           Y           Z
 ---------------------------------------------------------------------
      1         12           0       -7.149602    0.605210    0.176793
      2          6           0       -4.836261   -2.102842    0.507188
      3          6           0       -4.733488    2.851759    1.154959
      4          6           0       -9.366242    3.093887   -0.221331
      5          6           0       -9.572501   -1.715604   -0.831486
      6          7           0       -5.163953    0.419087    0.762227
      7          6           0       -4.343031   -0.782968    0.884527
      8          6           0       -2.927633   -0.385239    1.309603
      9          6           0       -3.086086    1.072661    1.709209
     10          6           0       -4.419090    1.491182    1.222908
     11          6           0       -2.928153    1.241991    3.158521
     12          6           0       -1.966665   -0.697558    0.040227
     13          6           0       -0.517158   -0.452561    0.404683
     14          6           0        0.436377   -0.658001   -0.725409
     15          8           0        0.102077   -0.839407   -1.821794
     16          8           0        1.679117   -0.355735   -0.301414
     17          7           0       -7.024939    2.620605    0.201208
     18          6           0       -5.944728    3.360818    0.714066
     19          6           0       -6.312255    4.729078    0.885941
     20          6           0       -7.650413    4.852183    0.440060
     21          6           0       -8.032862    3.478550    0.098319
     22          6           0       -5.383435    5.913498    1.243291
     23          6           0       -8.412931    6.098203    0.156547
     24          6           0       -8.362672    7.273941    0.738532
     25          7           0       -9.061676    0.683896   -0.594000
     26          6           0       -9.817627    1.779953   -0.702837
     27          6           0      -11.168154    1.496147   -1.196645
     28          6           0      -11.316635    0.104557   -1.251109
     29          6           0       -9.939944   -0.400576   -0.933793
     30          6           0      -12.206027    2.587830   -1.206983
     31          6           0      -12.435387   -0.695986   -1.755803
     32          6           0      -12.210164   -1.055204   -3.210813
     33          7           0       -7.204580   -1.393031   -0.174307
     34          6           0       -8.279686   -2.242343   -0.506088
     35          6           0       -7.920747   -3.633632   -0.496286
     36          6           0       -6.520439   -3.596468   -0.208634
     37          6           0       -6.140016   -2.210194   -0.002732
     38          6           0       -8.846038   -4.762301   -0.919650
     39          6           0       -5.456840   -4.379062    0.169254
     40          8           0       -5.283643   -5.620778    0.303382
     41          6           0       -4.286483   -3.432396    0.560238
     42          6           0       -3.546978   -3.726392    1.859741
     43          8           0       -3.686344   -3.210386    3.000118
     44          8           0       -2.837231   -4.844155    1.748231
     45          6           0       -2.267403   -5.415008    2.835500
     46          6           0        2.797592   -0.473045   -1.201530
     47          6           0        4.068278   -0.279128   -0.514293
     48          6           0        5.062084    0.459673   -1.016299
     49          6           0        5.170037    1.276699   -2.322166
     50          6           0        6.439738    0.358945   -0.254272
     51          6           0        7.731390   -0.038180   -0.981250
     52          6           0        8.958376   -0.112810   -0.009378
     53          6           0       10.268980   -0.500069   -0.915251
     54          6           0       10.120841   -1.954617   -1.366679
     55          6           0       11.507684   -0.342108    0.013734
     56          6           0       12.807252   -0.503906   -0.697788
     57          6           0       13.984174   -0.176248    0.192586
     58          6           0       15.303028   -0.274274   -0.503364
     59          6           0       15.743970   -1.733750   -0.905307
     60          6           0       16.451174    0.301921    0.449050
     61          6           0       17.797230    0.563020   -0.237571
     62          6           0       18.801028    1.217216    0.706422
     63          6           0       20.229567    1.282158    0.276788
     64          6           0       20.249623    2.174603   -0.974232
     65          6           0       21.184378    1.828808    1.333122
     66          1           0       -4.015578    3.480620    1.635907
     67          1           0      -10.159650    3.956919   -0.324154
     68          1           0      -10.218537   -2.544836   -1.077388
     69          1           0       -2.461674   -1.070496    2.224624
     70          1           0       -2.217227    1.600940    1.390424
     71          1           0       -1.918809    0.889933    3.443938
     72          1           0       -2.997977    2.411816    3.580391
     73          1           0       -3.729122    0.597109    3.756593
     74          1           0       -2.040660   -1.601949   -0.376104
     75          1           0       -2.349444   -0.027821   -0.955414
     76          1           0       -0.488066    0.777478    0.615801
     77          1           0       -0.245641   -1.158393    1.311749
     78          1           0       -5.758993    6.915881    0.555347
     79          1           0       -5.302500    6.172449    2.387517
     80          1           0       -4.541618    5.531917    0.886138
     81          1           0       -9.277423    5.851157   -0.526666
     82          1           0       -9.162853    8.036371    0.321002
     83          1           0       -7.390338    7.669072    1.355623
     84          1           0      -11.639937    3.397753   -1.951191
     85          1           0      -13.253209    2.476464   -1.484619
     86          1           0      -12.083308    3.199465   -0.291376
     87          1           0      -12.595836   -1.487870   -1.164384
     88          1           0      -13.458383   -0.066630   -1.741233
     89          1           0      -13.000758   -1.799989   -3.597591
     90          1           0      -12.453964   -0.273166   -3.987677
     91          1           0      -11.259570   -1.754124   -3.316253
     92          1           0       -9.232964   -4.603496   -1.840459
     93          1           0       -8.301628   -5.676580   -0.992130
     94          1           0       -9.745165   -4.813919   -0.204308
     95          1           0       -3.356659   -3.340391   -0.049956
     96          1           0       -1.645960   -4.628064    3.431439
     97          1           0       -3.149623   -6.230829    3.378483
     98          1           0       -1.558821   -6.102238    2.462653
     99          1           0        2.692895   -1.609223   -1.344439
    100          1           0        2.570903    0.040795   -2.081102
    101          1           0        4.086564   -0.666592    0.571743
    102          1           0        4.118902    1.461675   -2.837340
    103          1           0        5.887202    2.238736   -2.246287
    104          1           0        5.779243    0.485003   -3.137435
    105          1           0        6.700359    1.350498    0.275826
    106          1           0        6.505843   -0.269525    0.619349
    107          1           0        7.392781   -0.754838   -1.598756
    108          1           0        7.872383    0.742807   -1.518307
    109          1           0        9.291934    0.958374    0.309769
    110          1           0        8.931860   -0.795026    0.920826
    111          1           0       10.377535    0.077660   -1.687812
    112          1           0        9.176695   -2.226254   -2.013934
    113          1           0       10.879601   -2.337914   -1.832629
    114          1           0        9.809348   -2.595649   -0.463620
    115          1           0       11.419694    0.529234    0.677310
    116          1           0       11.284561   -1.059727    0.797300
    117          1           0       12.704534   -1.472682   -1.118978
    118          1           0       12.962526    0.195638   -1.632396
    119          1           0       13.676262    0.887173    0.490438
    120          1           0       13.950772   -0.775042    1.337739
    121          1           0       15.125317    0.333328   -1.380866
    122          1           0       15.902337   -2.344856   -0.021624
    123          1           0       14.844970   -2.031992   -1.587910
    124          1           0       16.814095   -1.856301   -1.463845
    125          1           0       15.810218    1.272752    0.937233
    126          1           0       16.779242   -0.386259    1.329513
    127          1           0       18.206534   -0.262117   -0.579771
    128          1           0       17.854506    1.193557   -1.222899
    129          1           0       18.508299    2.210185    1.129535
    130          1           0       18.849821    0.534743    1.544876
    131          1           0       20.584476    0.243781    0.040735
    132          1           0       19.571246    3.116496   -0.818671
    133          1           0       21.388150    2.526587   -1.291114
    134          1           0       19.812995    1.757050   -1.824589
    135          1           0       21.300553    1.126722    2.200446
    136          1           0       22.201502    2.052385    1.058896
    137          1           0       20.822935    2.770677    1.714241
 ---------------------------------------------------------------------

 SCF Done:  E(RCAM-B3LYP) =  -2933.43396109     A.U. after   16 cycles

 Excitation energies and oscillator strengths:

 Excited State   1:      Singlet-A      1.9548 eV  634.26 nm  f=0.2592  <S**2>=0.000
     240 -> 243        0.22135
     241 -> 242        0.66587
 This state for optimization and/or second-order correction.
 Total Energy, E(TD-HF/TD-DFT) =  -2933.36212441
 Copying the excited state density for this state as the 1-particle RhoCI density.

 The electronic state is 1-A.
 Alpha  occ. eigenvalues --  -46.79821 -19.21728 -19.20775 -19.16825 -19.15472
 Alpha  occ. eigenvalues --  -19.13937 -14.38575 -14.35952 -14.35761 -14.35326
 Alpha  occ. eigenvalues --  -10.34234 -10.33763 -10.28919 -10.27734 -10.27391
 Alpha  occ. eigenvalues --  -10.27233 -10.26841 -10.26365 -10.25984 -10.25919
 Alpha  occ. eigenvalues --  -10.25874 -10.25338 -10.24829 -10.24757 -10.24630
 Alpha  occ. eigenvalues --  -10.24389 -10.24252 -10.24040 -10.23858 -10.23793
 Alpha  occ. eigenvalues --  -10.23741 -10.23634 -10.23520 -10.23359 -10.23340
 Alpha  occ. eigenvalues --  -10.23332 -10.23251 -10.23201 -10.23114 -10.23088
 Alpha  occ. eigenvalues --  -10.23086 -10.23040 -10.22995 -10.22931 -10.22791
 Alpha  occ. eigenvalues --  -10.22745 -10.22719 -10.22590 -10.22495 -10.22199
 Alpha  occ. eigenvalues --  -10.22145 -10.22092 -10.21539 -10.21409 -10.21347
 Alpha  occ. eigenvalues --  -10.21319 -10.20997 -10.20978 -10.20626 -10.20368
 Alpha  occ. eigenvalues --  -10.20332 -10.20072 -10.19903 -10.19703 -10.19245
 Alpha  occ. eigenvalues --   -3.08508  -1.83438  -1.82975  -1.82929  -1.14204
 Alpha  occ. eigenvalues --   -1.14066  -1.06318  -1.02209  -1.01737  -0.99310
 Alpha  occ. eigenvalues --   -0.97942  -0.97349  -0.96569  -0.88387  -0.86096
 Alpha  occ. eigenvalues --   -0.85549  -0.84958  -0.84760  -0.84553  -0.83851
 Alpha  occ. eigenvalues --   -0.83727  -0.83310  -0.82463  -0.82143  -0.81561
 Alpha  occ. eigenvalues --   -0.80733  -0.79328  -0.79210  -0.78569  -0.78025
 Alpha  occ. eigenvalues --   -0.77064  -0.76470  -0.75874  -0.75353  -0.73529
 Alpha  occ. eigenvalues --   -0.72973  -0.72267  -0.71254  -0.70800  -0.70595
 Alpha  occ. eigenvalues --   -0.70474  -0.69840  -0.69048  -0.68677  -0.68322
 Alpha  occ. eigenvalues --   -0.66811  -0.66028  -0.65625  -0.64542  -0.63999
 Alpha  occ. eigenvalues --   -0.62639  -0.62208  -0.61156  -0.61032  -0.60753
 Alpha  occ. eigenvalues --   -0.59644  -0.59336  -0.58505  -0.58422  -0.57909
 Alpha  occ. eigenvalues --   -0.57178  -0.56811  -0.56439  -0.55738  -0.55221
 Alpha  occ. eigenvalues --   -0.54987  -0.53960  -0.53588  -0.53116  -0.52707
 Alpha  occ. eigenvalues --   -0.52099  -0.51626  -0.51240  -0.51193  -0.50771
 Alpha  occ. eigenvalues --   -0.50338  -0.50169  -0.50103  -0.49861  -0.49672
 Alpha  occ. eigenvalues --   -0.48843  -0.48553  -0.48482  -0.47885  -0.47749
 Alpha  occ. eigenvalues --   -0.47182  -0.47104  -0.46924  -0.46911  -0.46872
 Alpha  occ. eigenvalues --   -0.46561  -0.46414  -0.46175  -0.45780  -0.45669
 Alpha  occ. eigenvalues --   -0.45543  -0.45448  -0.45151  -0.44854  -0.44548
 Alpha  occ. eigenvalues --   -0.44437  -0.44379  -0.44004  -0.43496  -0.43416
 Alpha  occ. eigenvalues --   -0.43226  -0.43022  -0.42662  -0.42512  -0.42465
 Alpha  occ. eigenvalues --   -0.42244  -0.41959  -0.41816  -0.41636  -0.41424
 Alpha  occ. eigenvalues --   -0.41375  -0.41277  -0.41122  -0.40887  -0.40778
 Alpha  occ. eigenvalues --   -0.40580  -0.40122  -0.39741  -0.39727  -0.39542
 Alpha  occ. eigenvalues --   -0.39437  -0.39374  -0.38905  -0.38615  -0.38455
 Alpha  occ. eigenvalues --   -0.38393  -0.38237  -0.38037  -0.38005  -0.37787
 Alpha  occ. eigenvalues --   -0.37749  -0.37474  -0.37167  -0.37101  -0.36906
 Alpha  occ. eigenvalues --   -0.36660  -0.36566  -0.35892  -0.35867  -0.35823
 Alpha  occ. eigenvalues --   -0.35688  -0.35614  -0.35407  -0.35089  -0.34871
 Alpha  occ. eigenvalues --   -0.34757  -0.34483  -0.34352  -0.34090  -0.33926
 Alpha  occ. eigenvalues --   -0.33848  -0.33408  -0.33399  -0.33148  -0.32740
 Alpha  occ. eigenvalues --   -0.32359  -0.31437  -0.31190  -0.31070  -0.30429
 Alpha  occ. eigenvalues --   -0.30156  -0.30007  -0.29010  -0.27842  -0.26929
 Alpha  occ. eigenvalues --   -0.26654  -0.25694  -0.25662  -0.25590  -0.21678
 Alpha  occ. eigenvalues --   -0.20066
 Alpha virt. eigenvalues --   -0.07596  -0.04204  -0.00763   0.02117   0.03060
 Alpha virt. eigenvalues --    0.03253   0.03681   0.04151   0.05030   0.05271
 Alpha virt. eigenvalues --    0.06731   0.08385   0.08900   0.08968   0.09248

 Mulliken charges:
               1
     1  Mg   0.818673
     2  C    0.121001
     3  C   -0.179505
     4  C   -0.202235
     5  C   -0.166408
     6  N   -0.647612
     7  C    0.277384
     8  C   -0.154084
     9  C   -0.131164
    10  C    0.373399
    11  C   -0.299397
    12  C   -0.163982
    13  C   -0.255372
    14  C    0.596595
    15  O   -0.433531
    16  O   -0.487244
    17  N   -0.705780
    18  C    0.305390
    19  C    0.004881
    20  C    0.018627
    21  C    0.325938
    22  C   -0.354501
    23  C   -0.049798
    24  C   -0.248549
    25  N   -0.661224
    26  C    0.325869
    27  C    0.034146
    28  C    0.046957
    29  C    0.268127
    30  C   -0.381418
    31  C   -0.225408
    32  C   -0.305991
    33  N   -0.724956
    34  C    0.241526
    35  C    0.050707
    36  C    0.036479
    37  C    0.273503
    38  C   -0.378219
    39  C    0.320132
    40  O   -0.509873
    41  C   -0.320841
    42  C    0.579959
    43  O   -0.497012
    44  O   -0.379798
    45  C   -0.069796
    46  C    0.028658
    47  C   -0.129516
    48  C    0.136964
    49  C   -0.349666
    50  C   -0.253406
    51  C   -0.152846
    52  C   -0.200302
    53  C   -0.054227
    54  C   -0.305064
    55  C   -0.180934
    56  C   -0.173064
    57  C   -0.151980
    58  C   -0.044478
    59  C   -0.301998
    60  C   -0.155677
    61  C   -0.168251
    62  C   -0.161464
    63  C   -0.049087
    64  C   -0.297738
    65  C   -0.312517
    66  H    0.083467
    67  H    0.072315
    68  H    0.077110
    69  H    0.110526
    70  H    0.109049
    71  H    0.112635
    72  H    0.076124
    73  H    0.115319
    74  H    0.124358
    75  H    0.091136
    76  H    0.113719
    77  H    0.116639
    78  H    0.096845
    79  H    0.117902
    80  H    0.131806
    81  H    0.087108
    82  H    0.097388
    83  H    0.099134
    84  H    0.092096
    85  H    0.121689
    86  H    0.136330
    87  H    0.120418
    88  H    0.085480
    89  H    0.087493
    90  H    0.120254
    91  H    0.103587
    92  H    0.139390
    93  H    0.148580
    94  H    0.116990
    95  H    0.155661
    96  H    0.112815
    97  H    0.090711
    98  H    0.125362
    99  H    0.109263
   100  H    0.122855
   101  H    0.105591
   102  H    0.111682
   103  H    0.122591
   104  H    0.091493
   105  H    0.074762
   106  H    0.096471
   107  H    0.107607
   108  H    0.110370
   109  H    0.087601
   110  H    0.090253
   111  H    0.091652
   112  H    0.082410
   113  H    0.114020
   114  H    0.087681
   115  H    0.077079
   116  H    0.093374
   117  H    0.106190
   118  H    0.072729
   119  H    0.093414
   120  H    0.047286
   121  H    0.090745
   122  H    0.113585
   123  H    0.090696
   124  H    0.085852
   125  H    0.054078
   126  H    0.084575
   127  H    0.107201
   128  H    0.070910
   129  H    0.087131
   130  H    0.079338
   131  H    0.078082
   132  H    0.085793
   133  H    0.065732
   134  H    0.113570
   135  H    0.090780
   136  H    0.105176
   137  H    0.101944
 Sum of Mulliken charges =  -0.00000

 Dipole moment (field-independent basis, Debye):
    X=              1.1140    Y=              4.9491    Z=             -0.7970  Tot=              5.1352
 Quadrupole moment (field-independent basis, Debye-Ang):
   XX=           -335.0062   YY=           -401.7187   ZZ=           -403.7188
   XY=            -31.0969   XZ=             12.4191   YZ=              3.6308

 Normal termination of Gaussian 16 at Wed Sep 11 18:35:01 2019.
