 Gaussian 16, Revision A.03,
 Gaussian 16:  ES64L-G16RevA.03 25-Dec-2016

 ----------------------------------------------------------------------
 # td=(NStates=1) iop(3/107=0140000000,3/108=0140000000) CAM-B3LYP/6-31
 G(d,p)
 ----------------------------------------------------------------------

 --
 TD
 --
 Symbolic Z-matrix:
 Charge =  0 Multiplicity = 1

                         Standard orientation:
 ---------------------------------------------------------------------
 Center     Atomic      Atomic             Coordinates (Angstroms)
 Number     Number       Type             X           Y           Z
 ---------------------------------------------------------------------
      1         12           0       -7.136726    0.579741    0.101241
      2          6           0       -4.840376   -1.907368    0.511599
      3          6           0       -4.812451    2.796720    1.137615
      4          6           0       -9.410374    3.066048   -0.368389
      5          6           0       -9.503086   -1.766002   -0.858151
      6          7           0       -5.116867    0.456593    0.660749
      7          6           0       -4.317219   -0.682083    0.823578
      8          6           0       -2.894223   -0.377534    1.257629
      9          6           0       -3.134814    1.095098    1.784391
     10          6           0       -4.426396    1.496602    1.170510
     11          6           0       -3.012682    1.276083    3.224203
     12          6           0       -1.919621   -0.643706    0.109343
     13          6           0       -0.469944   -0.371112    0.570865
     14          6           0        0.463296   -0.752780   -0.593977
     15          8           0        0.185420   -1.076875   -1.723416
     16          8           0        1.748284   -0.483969   -0.175503
     17          7           0       -7.126839    2.595468    0.346620
     18          6           0       -6.101895    3.378835    0.671049
     19          6           0       -6.411323    4.806553    0.702079
     20          6           0       -7.684653    4.887950    0.245635
     21          6           0       -8.158710    3.489533    0.058001
     22          6           0       -5.451386    5.964379    1.160646
     23          6           0       -8.476972    6.102042    0.138031
     24          6           0       -8.397317    7.282565    0.759539
     25          7           0       -9.152416    0.614925   -0.436723
     26          6           0       -9.831662    1.773433   -0.605772
     27          6           0      -11.160973    1.445820   -1.168086
     28          6           0      -11.246321    0.043322   -1.212603
     29          6           0       -9.995823   -0.449824   -0.851101
     30          6           0      -12.228523    2.469258   -1.441955
     31          6           0      -12.350578   -0.699919   -1.887940
     32          6           0      -12.151410   -1.064374   -3.366729
     33          7           0       -7.182179   -1.368284   -0.172523
     34          6           0       -8.243884   -2.286754   -0.585632
     35          6           0       -7.779646   -3.640870   -0.510936
     36          6           0       -6.466020   -3.576169    0.012628
     37          6           0       -6.195691   -2.176032    0.028097
     38          6           0       -8.563823   -4.841337   -0.917839
     39          6           0       -5.300761   -4.357049    0.296857
     40          8           0       -5.123360   -5.547367    0.182250
     41          6           0       -4.123494   -3.291706    0.654268
     42          6           0       -3.552580   -3.691773    1.885114
     43          8           0       -3.664460   -2.968578    2.911456
     44          8           0       -2.951676   -4.790307    1.696420
     45          6           0       -2.356351   -5.245823    2.963545
     46          6           0        2.867517   -0.847845   -1.164401
     47          6           0        4.127431   -0.588082   -0.483922
     48          6           0        5.092879    0.253341   -0.851647
     49          6           0        4.996393    1.090241   -2.088255
     50          6           0        6.490910    0.360815   -0.102218
     51          6           0        7.659873   -0.302094   -0.854591
     52          6           0        8.925610   -0.282351   -0.035649
     53          6           0       10.267170   -0.467125   -0.828469
     54          6           0       10.127203   -1.959988   -1.282840
     55          6           0       11.501735   -0.075869    0.001965
     56          6           0       12.822469   -0.352408   -0.755985
     57          6           0       13.908351   -0.043456    0.128232
     58          6           0       15.289549   -0.168308   -0.426387
     59          6           0       15.677932   -1.601733   -0.868409
     60          6           0       16.347347    0.384651    0.472060
     61          6           0       17.731501    0.465337   -0.231334
     62          6           0       18.793248    1.298507    0.625643
     63          6           0       20.217849    1.276155    0.154416
     64          6           0       20.417475    2.079614   -1.179891
     65          6           0       21.150822    1.893746    1.195520
     66          1           0       -3.993536    3.451751    1.466744
     67          1           0      -10.037485    3.926135   -0.505915
     68          1           0      -10.288102   -2.329315   -1.013093
     69          1           0       -2.714392   -1.135242    1.989407
     70          1           0       -2.340729    1.904593    1.430853
     71          1           0       -2.117613    1.057117    3.717585
     72          1           0       -2.973335    2.393670    3.347564
     73          1           0       -3.761548    0.677993    3.742576
     74          1           0       -1.875974   -1.450522   -0.387337
     75          1           0       -2.170525    0.262951   -0.693834
     76          1           0       -0.385411    0.613529    0.893655
     77          1           0       -0.331966   -1.243379    1.243237
     78          1           0       -5.419349    6.976182    0.733588
     79          1           0       -5.614686    5.980902    2.184904
     80          1           0       -4.466581    5.876362    0.827378
     81          1           0       -9.316004    6.190147   -0.567605
     82          1           0       -8.919340    8.142809    0.497861
     83          1           0       -7.632216    7.363105    1.576844
     84          1           0      -11.988898    3.169082   -2.322743
     85          1           0      -13.116763    2.067283   -1.863318
     86          1           0      -12.616486    3.064944   -0.488828
     87          1           0      -12.717235   -1.623053   -1.342784
     88          1           0      -13.196202   -0.128674   -2.020324
     89          1           0      -13.131228   -1.582438   -3.926333
     90          1           0      -12.153568   -0.068658   -3.971318
     91          1           0      -11.178075   -1.755397   -3.326970
     92          1           0       -9.118779   -4.742602   -1.866689
     93          1           0       -8.053035   -5.850619   -0.965834
     94          1           0       -9.478407   -5.137969   -0.252038
     95          1           0       -3.347601   -3.384163   -0.039873
     96          1           0       -1.608042   -4.447704    3.422415
     97          1           0       -3.078545   -5.660679    3.591073
     98          1           0       -1.732377   -6.253359    2.811189
     99          1           0        2.698459   -1.745903   -1.614052
    100          1           0        2.782135    0.074750   -1.881193
    101          1           0        4.303609   -1.197718    0.382300
    102          1           0        4.067660    1.235076   -2.550237
    103          1           0        5.340351    2.180082   -1.902422
    104          1           0        5.782733    0.861060   -2.777125
    105          1           0        6.580469    1.441712   -0.062634
    106          1           0        6.366261   -0.061969    0.888699
    107          1           0        7.319715   -1.264533   -1.317355
    108          1           0        7.839475    0.229636   -1.708075
    109          1           0        8.994752    0.850144    0.109108
    110          1           0        8.775533   -0.822840    0.953772
    111          1           0       10.165146    0.076005   -1.820125
    112          1           0        9.317119   -2.248982   -1.663010
    113          1           0       11.028600   -2.097867   -2.159481
    114          1           0       10.447267   -2.662585   -0.359911
    115          1           0       11.452923    1.059002    0.238493
    116          1           0       11.416936   -0.611999    1.067718
    117          1           0       12.745414   -1.313886   -1.028327
    118          1           0       12.938697    0.359876   -1.806288
    119          1           0       13.666072    0.948096    0.578868
    120          1           0       13.881195   -0.819029    1.165845
    121          1           0       15.430715    0.671437   -1.187075
    122          1           0       15.748815   -2.295551    0.030687
    123          1           0       14.686727   -2.026279   -1.271814
    124          1           0       16.484550   -1.705707   -1.541778
    125          1           0       16.099771    1.316342    0.765549
    126          1           0       16.245025   -0.372380    1.277422
    127          1           0       18.156916   -0.458479   -0.411444
    128          1           0       17.663409    1.043527   -1.142868
    129          1           0       18.359834    2.315176    0.597508
    130          1           0       18.791041    1.009913    1.655515
    131          1           0       20.677654    0.222711   -0.077666
    132          1           0       20.056093    3.373574   -0.931755
    133          1           0       21.404838    2.206676   -1.473497
    134          1           0       19.776759    1.606862   -2.087661
    135          1           0       21.044958    1.500242    2.300345
    136          1           0       22.157089    1.996520    1.021207
    137          1           0       20.881027    2.900426    1.369609
 ---------------------------------------------------------------------

 SCF Done:  E(RCAM-B3LYP) =  -2933.50297125     A.U. after   15 cycles

 Excitation energies and oscillator strengths:

 Excited State   1:      Singlet-A      2.1114 eV  587.21 nm  f=0.2169  <S**2>=0.000
     240 -> 243        0.25846
     241 -> 242        0.64703
 This state for optimization and/or second-order correction.
 Total Energy, E(TD-HF/TD-DFT) =  -2933.42537852
 Copying the excited state density for this state as the 1-particle RhoCI density.

 The electronic state is 1-A.
 Alpha  occ. eigenvalues --  -46.79386 -19.24197 -19.20320 -19.16534 -19.15804
 Alpha  occ. eigenvalues --  -19.14834 -14.36401 -14.35753 -14.35122 -14.34575
 Alpha  occ. eigenvalues --  -10.33769 -10.33178 -10.30000 -10.28781 -10.26923
 Alpha  occ. eigenvalues --  -10.26293 -10.25196 -10.25017 -10.24999 -10.24955
 Alpha  occ. eigenvalues --  -10.24663 -10.24285 -10.24147 -10.23904 -10.23503
 Alpha  occ. eigenvalues --  -10.23473 -10.23472 -10.23297 -10.23131 -10.23060
 Alpha  occ. eigenvalues --  -10.23052 -10.22862 -10.22839 -10.22631 -10.22525
 Alpha  occ. eigenvalues --  -10.22359 -10.22358 -10.22171 -10.22155 -10.22154
 Alpha  occ. eigenvalues --  -10.22112 -10.21979 -10.21975 -10.21886 -10.21843
 Alpha  occ. eigenvalues --  -10.21563 -10.21543 -10.21522 -10.21454 -10.21396
 Alpha  occ. eigenvalues --  -10.21370 -10.21365 -10.21353 -10.21286 -10.21109
 Alpha  occ. eigenvalues --  -10.21060 -10.20893 -10.20885 -10.20860 -10.20836
 Alpha  occ. eigenvalues --  -10.20287 -10.20263 -10.20136 -10.19485 -10.19208
 Alpha  occ. eigenvalues --   -3.08092  -1.83024  -1.82572  -1.82507  -1.16176
 Alpha  occ. eigenvalues --   -1.10578  -1.06066  -1.02668  -1.02099  -0.99287
 Alpha  occ. eigenvalues --   -0.98790  -0.97681  -0.96581  -0.86669  -0.86204
 Alpha  occ. eigenvalues --   -0.86078  -0.84808  -0.84443  -0.84358  -0.84091
 Alpha  occ. eigenvalues --   -0.83445  -0.83044  -0.82472  -0.82184  -0.81379
 Alpha  occ. eigenvalues --   -0.80804  -0.79741  -0.78874  -0.78633  -0.77619
 Alpha  occ. eigenvalues --   -0.77082  -0.76528  -0.75562  -0.75335  -0.74057
 Alpha  occ. eigenvalues --   -0.73458  -0.72705  -0.71503  -0.71284  -0.70877
 Alpha  occ. eigenvalues --   -0.70505  -0.70312  -0.69817  -0.68683  -0.68120
 Alpha  occ. eigenvalues --   -0.66678  -0.65982  -0.65227  -0.63968  -0.63787
 Alpha  occ. eigenvalues --   -0.63074  -0.63000  -0.60828  -0.60825  -0.60490
 Alpha  occ. eigenvalues --   -0.59816  -0.58869  -0.58290  -0.58006  -0.57791
 Alpha  occ. eigenvalues --   -0.57076  -0.56967  -0.56105  -0.55642  -0.55048
 Alpha  occ. eigenvalues --   -0.54922  -0.54336  -0.54081  -0.53427  -0.52942
 Alpha  occ. eigenvalues --   -0.52371  -0.52185  -0.52020  -0.51533  -0.51275
 Alpha  occ. eigenvalues --   -0.51054  -0.50689  -0.50512  -0.49641  -0.49352
 Alpha  occ. eigenvalues --   -0.49159  -0.48860  -0.48692  -0.48534  -0.48436
 Alpha  occ. eigenvalues --   -0.48196  -0.47915  -0.47351  -0.47122  -0.46882
 Alpha  occ. eigenvalues --   -0.46572  -0.46261  -0.45893  -0.45867  -0.45779
 Alpha  occ. eigenvalues --   -0.45559  -0.45202  -0.45072  -0.44934  -0.44411
 Alpha  occ. eigenvalues --   -0.44270  -0.44186  -0.43771  -0.43702  -0.43531
 Alpha  occ. eigenvalues --   -0.43296  -0.42959  -0.42831  -0.42562  -0.42398
 Alpha  occ. eigenvalues --   -0.41960  -0.41806  -0.41508  -0.41262  -0.41044
 Alpha  occ. eigenvalues --   -0.40997  -0.40938  -0.40685  -0.40615  -0.40420
 Alpha  occ. eigenvalues --   -0.40233  -0.40058  -0.39945  -0.39729  -0.39634
 Alpha  occ. eigenvalues --   -0.39546  -0.39323  -0.39254  -0.38937  -0.38763
 Alpha  occ. eigenvalues --   -0.38581  -0.38378  -0.38282  -0.38241  -0.38125
 Alpha  occ. eigenvalues --   -0.38031  -0.37845  -0.37682  -0.37066  -0.37018
 Alpha  occ. eigenvalues --   -0.36625  -0.36424  -0.36204  -0.35910  -0.35816
 Alpha  occ. eigenvalues --   -0.35395  -0.35281  -0.35161  -0.34813  -0.34726
 Alpha  occ. eigenvalues --   -0.34595  -0.34524  -0.34137  -0.34117  -0.33829
 Alpha  occ. eigenvalues --   -0.33470  -0.33173  -0.32962  -0.32716  -0.32314
 Alpha  occ. eigenvalues --   -0.32274  -0.31467  -0.30911  -0.30666  -0.30440
 Alpha  occ. eigenvalues --   -0.30039  -0.29335  -0.28772  -0.28061  -0.27393
 Alpha  occ. eigenvalues --   -0.27222  -0.26100  -0.25894  -0.25108  -0.20948
 Alpha  occ. eigenvalues --   -0.20333
 Alpha virt. eigenvalues --   -0.06894  -0.03701   0.00662   0.02831   0.03982
 Alpha virt. eigenvalues --    0.04764   0.04994   0.05446   0.05495   0.05920
 Alpha virt. eigenvalues --    0.06640   0.09040   0.09320   0.09334   0.09855

 Mulliken charges:
               1
     1  Mg   0.803407
     2  C    0.034388
     3  C   -0.222573
     4  C   -0.158696
     5  C   -0.160073
     6  N   -0.658445
     7  C    0.282373
     8  C   -0.134250
     9  C   -0.181253
    10  C    0.429410
    11  C   -0.290046
    12  C   -0.140870
    13  C   -0.250721
    14  C    0.590037
    15  O   -0.463903
    16  O   -0.502600
    17  N   -0.685613
    18  C    0.301547
    19  C    0.015900
    20  C    0.033969
    21  C    0.286010
    22  C   -0.369506
    23  C   -0.093016
    24  C   -0.233122
    25  N   -0.704768
    26  C    0.339633
    27  C    0.018984
    28  C    0.046365
    29  C    0.270506
    30  C   -0.386586
    31  C   -0.253157
    32  C   -0.280642
    33  N   -0.710863
    34  C    0.263447
    35  C    0.065917
    36  C    0.031125
    37  C    0.332266
    38  C   -0.406251
    39  C    0.334031
    40  O   -0.455089
    41  C   -0.335886
    42  C    0.638559
    43  O   -0.530724
    44  O   -0.387305
    45  C   -0.102558
    46  C    0.013418
    47  C   -0.121572
    48  C    0.121038
    49  C   -0.385105
    50  C   -0.222728
    51  C   -0.176138
    52  C   -0.169508
    53  C   -0.064892
    54  C   -0.274153
    55  C   -0.173148
    56  C   -0.137711
    57  C   -0.145879
    58  C   -0.052499
    59  C   -0.319154
    60  C   -0.149591
    61  C   -0.196116
    62  C   -0.168698
    63  C   -0.043180
    64  C   -0.274772
    65  C   -0.316833
    66  H    0.064531
    67  H    0.083867
    68  H    0.062399
    69  H    0.129768
    70  H    0.079983
    71  H    0.120739
    72  H    0.093968
    73  H    0.125525
    74  H    0.117831
    75  H    0.076275
    76  H    0.140598
    77  H    0.131168
    78  H    0.121485
    79  H    0.142269
    80  H    0.119996
    81  H    0.083221
    82  H    0.107088
    83  H    0.086856
    84  H    0.109466
    85  H    0.115603
    86  H    0.110891
    87  H    0.096578
    88  H    0.110824
    89  H    0.078022
    90  H    0.101646
    91  H    0.094798
    92  H    0.126599
    93  H    0.144609
    94  H    0.113947
    95  H    0.158506
    96  H    0.135208
    97  H    0.155038
    98  H    0.107227
    99  H    0.143210
   100  H    0.106530
   101  H    0.080492
   102  H    0.126908
   103  H    0.095347
   104  H    0.129700
   105  H    0.105248
   106  H    0.102792
   107  H    0.091857
   108  H    0.103136
   109  H    0.081607
   110  H    0.090241
   111  H    0.083945
   112  H    0.117638
   113  H    0.051967
   114  H    0.078271
   115  H    0.086123
   116  H    0.084643
   117  H    0.119079
   118  H    0.060114
   119  H    0.088203
   120  H    0.032763
   121  H    0.067560
   122  H    0.097062
   123  H    0.089198
   124  H    0.120991
   125  H    0.088751
   126  H    0.077207
   127  H    0.102452
   128  H    0.096186
   129  H    0.088658
   130  H    0.095051
   131  H    0.077978
   132  H    0.033633
   133  H    0.118443
   134  H    0.086134
   135  H    0.078159
   136  H    0.107778
   137  H    0.106276
 Sum of Mulliken charges =  -0.00000

 Dipole moment (field-independent basis, Debye):
    X=              2.6435    Y=              3.8777    Z=              0.3878  Tot=              4.7091
 Quadrupole moment (field-independent basis, Debye-Ang):
   XX=           -344.3332   YY=           -380.2636   ZZ=           -398.7158
   XY=            -19.0572   XZ=              7.9558   YZ=             -6.6994

 Normal termination of Gaussian 16 at Wed Sep  4 04:54:31 2019.
