 Gaussian 16, Revision A.03,
 Gaussian 16:  ES64L-G16RevA.03 25-Dec-2016

 ----------------------------------------------------------------------
 # td=(NStates=1) iop(3/107=0140000000,3/108=0140000000) CAM-B3LYP/6-31
 G(d,p)
 ----------------------------------------------------------------------

 --
 TD
 --
 Symbolic Z-matrix:
 Charge =  0 Multiplicity = 1

                         Standard orientation:
 ---------------------------------------------------------------------
 Center     Atomic      Atomic             Coordinates (Angstroms)
 Number     Number       Type             X           Y           Z
 ---------------------------------------------------------------------
      1         12           0       -7.114404    0.612439    0.029697
      2          6           0       -4.816452   -1.954395    0.379298
      3          6           0       -4.844564    2.710090    1.310717
      4          6           0       -9.429350    3.154449   -0.375116
      5          6           0       -9.562391   -1.776950   -0.937157
      6          7           0       -5.092696    0.352025    0.712693
      7          6           0       -4.297429   -0.772879    0.821592
      8          6           0       -2.951862   -0.442598    1.303251
      9          6           0       -3.049871    0.948027    1.902273
     10          6           0       -4.398896    1.370393    1.251014
     11          6           0       -3.251340    0.960405    3.523008
     12          6           0       -1.888829   -0.489208    0.160175
     13          6           0       -0.513676   -0.372732    0.573307
     14          6           0        0.482101   -0.424239   -0.636985
     15          8           0        0.230355   -0.696195   -1.748266
     16          8           0        1.707047   -0.210387   -0.101861
     17          7           0       -7.109242    2.659389    0.354138
     18          6           0       -6.040771    3.279530    0.845693
     19          6           0       -6.386065    4.718537    0.943886
     20          6           0       -7.693521    4.778061    0.389320
     21          6           0       -8.101164    3.471088    0.030386
     22          6           0       -5.413719    5.763414    1.337544
     23          6           0       -8.481017    5.991594    0.132327
     24          6           0       -8.313853    7.187311    0.743477
     25          7           0       -9.121825    0.753571   -0.552073
     26          6           0       -9.808442    1.787371   -0.681519
     27          6           0      -11.170585    1.492648   -1.205921
     28          6           0      -11.232530    0.149474   -1.317435
     29          6           0       -9.852372   -0.309167   -1.036206
     30          6           0      -12.216819    2.472028   -1.529710
     31          6           0      -12.412938   -0.708825   -1.838290
     32          6           0      -12.241385   -1.142988   -3.317924
     33          7           0       -7.268259   -1.362484   -0.205979
     34          6           0       -8.242818   -2.272529   -0.621109
     35          6           0       -7.843693   -3.584181   -0.591819
     36          6           0       -6.485864   -3.546665   -0.204901
     37          6           0       -6.202817   -2.213573    0.023712
     38          6           0       -8.788576   -4.749980   -0.839363
     39          6           0       -5.382849   -4.367900    0.175412
     40          8           0       -5.216573   -5.532027    0.141504
     41          6           0       -4.244102   -3.466812    0.542932
     42          6           0       -3.693051   -3.871120    1.957650
     43          8           0       -3.974023   -3.241532    2.997863
     44          8           0       -2.697939   -4.739420    1.711499
     45          6           0       -2.242287   -5.268790    3.058345
     46          6           0        2.804455   -0.298823   -1.216224
     47          6           0        4.142041   -0.248670   -0.648263
     48          6           0        5.155873    0.558648   -0.888083
     49          6           0        5.201517    1.500461   -2.185092
     50          6           0        6.470414    0.501272   -0.141256
     51          6           0        7.664165   -0.209174   -0.877550
     52          6           0        9.033528   -0.134955   -0.106499
     53          6           0       10.247229   -0.661782   -0.924973
     54          6           0       10.162290   -2.150487   -1.369211
     55          6           0       11.518742   -0.461343   -0.117754
     56          6           0       12.793261   -0.642475   -0.858632
     57          6           0       14.006222   -0.141984   -0.027967
     58          6           0       15.339465   -0.248052   -0.569096
     59          6           0       15.752793   -1.794305   -0.817285
     60          6           0       16.439334    0.386686    0.398087
     61          6           0       17.914941    0.482160   -0.277402
     62          6           0       18.792315    1.159295    0.805155
     63          6           0       20.174701    1.360531    0.259131
     64          6           0       20.377844    2.093993   -1.023881
     65          6           0       21.060903    1.974187    1.368894
     66          1           0       -4.129227    3.326534    1.909794
     67          1           0      -10.176518    3.907930   -0.469895
     68          1           0      -10.301903   -2.343685   -1.504857
     69          1           0       -2.750375   -1.211240    2.099855
     70          1           0       -2.321353    1.455417    1.371689
     71          1           0       -2.304651    0.922105    3.916649
     72          1           0       -3.599742    1.992137    3.789926
     73          1           0       -3.939483    0.244893    3.803285
     74          1           0       -2.132747   -1.307612   -0.519167
     75          1           0       -2.113010    0.373819   -0.391176
     76          1           0       -0.175499    0.525019    0.948810
     77          1           0       -0.221817   -0.889948    1.399515
     78          1           0       -5.381584    6.471579    0.513642
     79          1           0       -5.751597    5.973269    2.569411
     80          1           0       -4.250589    5.446948    1.198426
     81          1           0       -9.314664    5.826488   -0.508269
     82          1           0       -9.041997    8.137536    0.395605
     83          1           0       -7.720559    7.440049    1.451324
     84          1           0      -11.913643    3.119788   -2.287889
     85          1           0      -13.192614    2.035075   -1.774532
     86          1           0      -12.446274    3.234626   -0.683251
     87          1           0      -12.420314   -1.581402   -1.131752
     88          1           0      -13.529098   -0.216140   -1.733673
     89          1           0      -12.960025   -1.859536   -3.716934
     90          1           0      -12.341115   -0.255762   -3.895501
     91          1           0      -11.219646   -1.613688   -3.360792
     92          1           0       -9.078132   -4.670512   -1.857530
     93          1           0       -8.288676   -5.784926   -0.795788
     94          1           0       -9.577403   -4.703282   -0.341625
     95          1           0       -3.500553   -3.835855   -0.173540
     96          1           0       -1.863714   -4.380141    3.607911
     97          1           0       -3.186179   -5.655492    3.510071
     98          1           0       -1.361317   -5.897980    2.656346
     99          1           0        2.569792   -1.137449   -1.876933
    100          1           0        2.643248    0.582168   -1.901068
    101          1           0        4.592367   -1.025882    0.243719
    102          1           0        4.259680    1.631842   -2.556802
    103          1           0        5.389403    2.691900   -1.923418
    104          1           0        5.968685    1.320393   -2.901699
    105          1           0        6.768163    1.461455    0.142989
    106          1           0        6.298605   -0.117520    0.791606
    107          1           0        7.366733   -1.088769   -1.193861
    108          1           0        7.907412    0.454021   -1.738221
    109          1           0        9.193754    0.705010    0.317618
    110          1           0        8.932616   -0.807417    0.714955
    111          1           0       10.315372    0.048182   -1.894413
    112          1           0        9.189829   -2.182576   -1.752922
    113          1           0       10.888851   -2.340375   -2.230823
    114          1           0       10.276783   -2.886563   -0.328420
    115          1           0       11.325938    0.547931    0.422259
    116          1           0       11.301217   -1.142314    0.658169
    117          1           0       12.874795   -1.661007   -1.263005
    118          1           0       12.921321    0.124275   -1.755129
    119          1           0       13.531891    0.761410    0.264494
    120          1           0       13.821532   -0.818562    0.905950
    121          1           0       15.319888    0.523984   -1.464817
    122          1           0       15.521510   -2.464091    0.057394
    123          1           0       15.244989   -2.248788   -1.728158
    124          1           0       16.962547   -1.849943   -0.922504
    125          1           0       16.048785    1.301799    0.790752
    126          1           0       16.427155   -0.206964    1.199873
    127          1           0       18.382469   -0.457022   -0.726199
    128          1           0       17.907581    1.333881   -1.149909
    129          1           0       18.470746    2.125608    0.930780
    130          1           0       18.804294    0.836042    1.784835
    131          1           0       20.729501    0.326332    0.103874
    132          1           0       20.206714    3.217218   -0.861573
    133          1           0       21.508933    2.019092   -1.346943
    134          1           0       19.561033    1.829635   -1.745825
    135          1           0       21.167230    1.292084    2.151035
    136          1           0       22.177157    2.167673    1.123556
    137          1           0       20.624151    2.952537    1.815200
 ---------------------------------------------------------------------

 SCF Done:  E(RCAM-B3LYP) =  -2933.48103465     A.U. after   15 cycles

 Excitation energies and oscillator strengths:

 Excited State   1:      Singlet-A      2.0755 eV  597.36 nm  f=0.2283  <S**2>=0.000
     240 -> 243        0.24176
     241 -> 242        0.66063
 This state for optimization and/or second-order correction.
 Total Energy, E(TD-HF/TD-DFT) =  -2933.40476045
 Copying the excited state density for this state as the 1-particle RhoCI density.

 The electronic state is 1-A.
 Alpha  occ. eigenvalues --  -46.80437 -19.22835 -19.21946 -19.17272 -19.16931
 Alpha  occ. eigenvalues --  -19.14194 -14.37349 -14.35264 -14.34739 -14.34736
 Alpha  occ. eigenvalues --  -10.34750 -10.34151 -10.28700 -10.28284 -10.27965
 Alpha  occ. eigenvalues --  -10.26233 -10.25336 -10.25159 -10.25040 -10.24732
 Alpha  occ. eigenvalues --  -10.24481 -10.24436 -10.24234 -10.23937 -10.23892
 Alpha  occ. eigenvalues --  -10.23717 -10.23690 -10.23421 -10.23256 -10.23045
 Alpha  occ. eigenvalues --  -10.22766 -10.22694 -10.22633 -10.22617 -10.22604
 Alpha  occ. eigenvalues --  -10.22523 -10.22457 -10.22389 -10.22357 -10.22338
 Alpha  occ. eigenvalues --  -10.22298 -10.22246 -10.22027 -10.21834 -10.21710
 Alpha  occ. eigenvalues --  -10.21627 -10.21548 -10.21521 -10.21489 -10.21418
 Alpha  occ. eigenvalues --  -10.21188 -10.21181 -10.21155 -10.21087 -10.21055
 Alpha  occ. eigenvalues --  -10.20914 -10.20875 -10.20506 -10.20271 -10.20260
 Alpha  occ. eigenvalues --  -10.20159 -10.19948 -10.19696 -10.19411 -10.19317
 Alpha  occ. eigenvalues --   -3.08928  -1.83881  -1.83401  -1.83324  -1.13054
 Alpha  occ. eigenvalues --   -1.12044  -1.07161  -1.04872  -1.03116  -1.00855
 Alpha  occ. eigenvalues --   -0.99802  -0.99092  -0.97535  -0.86487  -0.86113
 Alpha  occ. eigenvalues --   -0.85867  -0.85531  -0.84940  -0.83590  -0.83472
 Alpha  occ. eigenvalues --   -0.83413  -0.82749  -0.81885  -0.81381  -0.80975
 Alpha  occ. eigenvalues --   -0.80234  -0.78959  -0.78121  -0.77825  -0.77379
 Alpha  occ. eigenvalues --   -0.76326  -0.75932  -0.75326  -0.74720  -0.73893
 Alpha  occ. eigenvalues --   -0.73008  -0.72190  -0.72054  -0.71491  -0.70777
 Alpha  occ. eigenvalues --   -0.70449  -0.70133  -0.69777  -0.69458  -0.68087
 Alpha  occ. eigenvalues --   -0.67513  -0.66288  -0.65220  -0.64956  -0.63606
 Alpha  occ. eigenvalues --   -0.63473  -0.63138  -0.61608  -0.61393  -0.59922
 Alpha  occ. eigenvalues --   -0.59599  -0.58891  -0.58430  -0.58038  -0.57770
 Alpha  occ. eigenvalues --   -0.57274  -0.56312  -0.55921  -0.55648  -0.54719
 Alpha  occ. eigenvalues --   -0.54359  -0.53884  -0.53432  -0.52784  -0.52296
 Alpha  occ. eigenvalues --   -0.52092  -0.51856  -0.51350  -0.51159  -0.50940
 Alpha  occ. eigenvalues --   -0.50533  -0.50120  -0.49912  -0.49667  -0.49353
 Alpha  occ. eigenvalues --   -0.49005  -0.48481  -0.48371  -0.48066  -0.47965
 Alpha  occ. eigenvalues --   -0.47351  -0.47272  -0.47094  -0.47039  -0.46914
 Alpha  occ. eigenvalues --   -0.46742  -0.46577  -0.46339  -0.46284  -0.45961
 Alpha  occ. eigenvalues --   -0.45537  -0.45453  -0.45177  -0.44979  -0.44592
 Alpha  occ. eigenvalues --   -0.44315  -0.44161  -0.44053  -0.43874  -0.43739
 Alpha  occ. eigenvalues --   -0.43514  -0.43372  -0.43142  -0.43034  -0.42584
 Alpha  occ. eigenvalues --   -0.42364  -0.42224  -0.41913  -0.41850  -0.41472
 Alpha  occ. eigenvalues --   -0.41373  -0.41095  -0.41027  -0.40726  -0.40452
 Alpha  occ. eigenvalues --   -0.40220  -0.40117  -0.39993  -0.39857  -0.39832
 Alpha  occ. eigenvalues --   -0.39742  -0.39712  -0.39650  -0.39296  -0.39244
 Alpha  occ. eigenvalues --   -0.39099  -0.38957  -0.38553  -0.38392  -0.38363
 Alpha  occ. eigenvalues --   -0.38244  -0.38053  -0.37934  -0.37409  -0.37177
 Alpha  occ. eigenvalues --   -0.37020  -0.36852  -0.36183  -0.35940  -0.35901
 Alpha  occ. eigenvalues --   -0.35872  -0.35802  -0.35490  -0.35048  -0.34806
 Alpha  occ. eigenvalues --   -0.34487  -0.33998  -0.33704  -0.33621  -0.33585
 Alpha  occ. eigenvalues --   -0.33556  -0.33287  -0.33151  -0.33090  -0.32843
 Alpha  occ. eigenvalues --   -0.32354  -0.32247  -0.32075  -0.30829  -0.29970
 Alpha  occ. eigenvalues --   -0.29861  -0.29796  -0.29166  -0.28186  -0.27910
 Alpha  occ. eigenvalues --   -0.26626  -0.25801  -0.25689  -0.24138  -0.21098
 Alpha  occ. eigenvalues --   -0.20049
 Alpha virt. eigenvalues --   -0.06896  -0.03407   0.00802   0.02651   0.02791
 Alpha virt. eigenvalues --    0.03243   0.04553   0.05584   0.05647   0.05851
 Alpha virt. eigenvalues --    0.07256   0.08929   0.09258   0.09670   0.09739

 Mulliken charges:
               1
     1  Mg   0.816450
     2  C   -0.008931
     3  C   -0.205090
     4  C   -0.156937
     5  C   -0.162851
     6  N   -0.609291
     7  C    0.309115
     8  C   -0.174673
     9  C   -0.135758
    10  C    0.318114
    11  C   -0.309695
    12  C   -0.169846
    13  C   -0.270102
    14  C    0.613432
    15  O   -0.448362
    16  O   -0.493393
    17  N   -0.724120
    18  C    0.341236
    19  C    0.005444
    20  C   -0.017315
    21  C    0.344565
    22  C   -0.366073
    23  C   -0.063385
    24  C   -0.225605
    25  N   -0.648429
    26  C    0.335821
    27  C    0.031491
    28  C    0.034580
    29  C    0.206906
    30  C   -0.394863
    31  C   -0.247066
    32  C   -0.303279
    33  N   -0.715304
    34  C    0.255883
    35  C    0.016708
    36  C    0.012724
    37  C    0.289683
    38  C   -0.359574
    39  C    0.336304
    40  O   -0.454099
    41  C   -0.291972
    42  C    0.618734
    43  O   -0.492157
    44  O   -0.438720
    45  C   -0.104109
    46  C   -0.026238
    47  C   -0.104125
    48  C    0.132844
    49  C   -0.365555
    50  C   -0.236332
    51  C   -0.177997
    52  C   -0.169644
    53  C   -0.067669
    54  C   -0.294462
    55  C   -0.153784
    56  C   -0.176636
    57  C   -0.156428
    58  C   -0.046731
    59  C   -0.317061
    60  C   -0.180545
    61  C   -0.180367
    62  C   -0.156032
    63  C   -0.043294
    64  C   -0.296106
    65  C   -0.317306
    66  H    0.077078
    67  H    0.088811
    68  H    0.090956
    69  H    0.111808
    70  H    0.106405
    71  H    0.124233
    72  H    0.106696
    73  H    0.148663
    74  H    0.128516
    75  H    0.109359
    76  H    0.133455
    77  H    0.136527
    78  H    0.140900
    79  H    0.105357
    80  H    0.096786
    81  H    0.083316
    82  H    0.067646
    83  H    0.098054
    84  H    0.131525
    85  H    0.112396
    86  H    0.100642
    87  H    0.106340
    88  H    0.080727
    89  H    0.107323
    90  H    0.120289
    91  H    0.104691
    92  H    0.123698
    93  H    0.129697
    94  H    0.132955
    95  H    0.155776
    96  H    0.145230
    97  H    0.155212
    98  H    0.132094
    99  H    0.152907
   100  H    0.126069
   101  H    0.065396
   102  H    0.118017
   103  H    0.074170
   104  H    0.137611
   105  H    0.110690
   106  H    0.085867
   107  H    0.109474
   108  H    0.090105
   109  H    0.097840
   110  H    0.088515
   111  H    0.055503
   112  H    0.112063
   113  H    0.110155
   114  H    0.069381
   115  H    0.066851
   116  H    0.095592
   117  H    0.096943
   118  H    0.067086
   119  H    0.095288
   120  H    0.061200
   121  H    0.066735
   122  H    0.108741
   123  H    0.105016
   124  H    0.082071
   125  H    0.092661
   126  H    0.107069
   127  H    0.100879
   128  H    0.077077
   129  H    0.103172
   130  H    0.099360
   131  H    0.062681
   132  H    0.085910
   133  H    0.097765
   134  H    0.095687
   135  H    0.108397
   136  H    0.082206
   137  H    0.081959
 Sum of Mulliken charges =  -0.00000

 Dipole moment (field-independent basis, Debye):
    X=              3.0768    Y=              3.6499    Z=              0.7449  Tot=              4.8315
 Quadrupole moment (field-independent basis, Debye-Ang):
   XX=           -366.3852   YY=           -399.3992   ZZ=           -393.1039
   XY=            -19.0702   XZ=             18.7902   YZ=             -3.4405

 Normal termination of Gaussian 16 at Tue Sep 17 17:18:03 2019.
