 Gaussian 16, Revision A.03,
 Gaussian 16:  ES64L-G16RevA.03 25-Dec-2016

 ----------------------------------------------------------------------
 # td=(NStates=1) iop(3/107=0140000000,3/108=0140000000) CAM-B3LYP/6-31
 G(d,p)
 ----------------------------------------------------------------------

 --
 TD
 --
 Symbolic Z-matrix:
 Charge =  0 Multiplicity = 1

                         Standard orientation:
 ---------------------------------------------------------------------
 Center     Atomic      Atomic             Coordinates (Angstroms)
 Number     Number       Type             X           Y           Z
 ---------------------------------------------------------------------
      1         12           0       -7.210794    0.653700    0.192894
      2          6           0       -4.820492   -1.945688    0.517047
      3          6           0       -4.767931    2.828203    1.159396
      4          6           0       -9.387201    3.107334   -0.313828
      5          6           0       -9.456514   -1.702526   -0.804242
      6          7           0       -5.109589    0.383863    0.692871
      7          6           0       -4.377767   -0.700729    0.773780
      8          6           0       -2.946524   -0.357097    1.188917
      9          6           0       -3.091459    1.018054    1.687407
     10          6           0       -4.434614    1.464974    1.134085
     11          6           0       -2.972794    1.085216    3.197909
     12          6           0       -1.934786   -0.471994    0.018687
     13          6           0       -0.475544   -0.409093    0.500464
     14          6           0        0.509814   -0.686649   -0.710809
     15          8           0        0.192176   -1.001457   -1.817367
     16          8           0        1.804354   -0.631247   -0.177214
     17          7           0       -7.096289    2.638147    0.427781
     18          6           0       -5.966789    3.292660    0.704528
     19          6           0       -6.368001    4.749605    0.763163
     20          6           0       -7.691355    4.866427    0.307548
     21          6           0       -8.204379    3.478118    0.113534
     22          6           0       -5.459101    5.868555    1.168597
     23          6           0       -8.460702    5.975877    0.076102
     24          6           0       -8.454447    7.252191    0.743938
     25          7           0       -9.172622    0.675730   -0.567858
     26          6           0       -9.867966    1.818620   -0.608488
     27          6           0      -11.228752    1.510408   -1.078671
     28          6           0      -11.348459    0.141002   -1.285670
     29          6           0       -9.966720   -0.350763   -0.852864
     30          6           0      -12.313182    2.532070   -1.292359
     31          6           0      -12.388808   -0.720273   -1.728405
     32          6           0      -12.209428   -1.173761   -3.245002
     33          7           0       -7.233916   -1.347254   -0.048676
     34          6           0       -8.233093   -2.101746   -0.534963
     35          6           0       -7.872556   -3.528286   -0.502829
     36          6           0       -6.533487   -3.636181   -0.115445
     37          6           0       -6.212261   -2.183500    0.035576
     38          6           0       -8.868741   -4.727816   -0.772450
     39          6           0       -5.358341   -4.350211    0.233898
     40          8           0       -5.094719   -5.614566    0.184473
     41          6           0       -4.245221   -3.284971    0.530952
     42          6           0       -3.486345   -3.753442    1.879965
     43          8           0       -3.765899   -3.216912    2.945041
     44          8           0       -2.714370   -4.757268    1.660659
     45          6           0       -2.089722   -5.274407    2.862260
     46          6           0        2.731728   -0.692085   -1.278225
     47          6           0        4.123783   -0.420334   -0.612239
     48          6           0        5.169855    0.344303   -1.003519
     49          6           0        5.166362    1.126933   -2.254146
     50          6           0        6.472532    0.352333   -0.200709
     51          6           0        7.649354   -0.311008   -0.936878
     52          6           0        8.912296   -0.183436   -0.200891
     53          6           0       10.277785   -0.619609   -0.904410
     54          6           0       10.156163   -2.094624   -1.190092
     55          6           0       11.390529   -0.092169    0.038886
     56          6           0       12.689632   -0.388232   -0.658834
     57          6           0       13.999601    0.019444    0.181040
     58          6           0       15.370155   -0.078841   -0.467830
     59          6           0       15.726151   -1.523303   -1.009741
     60          6           0       16.407937    0.513938    0.514150
     61          6           0       17.744916    0.615129   -0.086481
     62          6           0       18.788519    1.264670    0.754096
     63          6           0       20.235509    1.256235    0.167406
     64          6           0       20.303416    2.267276   -1.033332
     65          6           0       21.264593    1.607222    1.302829
     66          1           0       -4.067444    3.632844    1.374983
     67          1           0      -10.138604    3.808915   -0.339175
     68          1           0      -10.304774   -2.540976   -0.943823
     69          1           0       -2.509136   -1.285348    1.875983
     70          1           0       -2.369208    1.712680    1.183467
     71          1           0       -1.998613    0.595354    3.494527
     72          1           0       -3.205143    2.161845    3.575855
     73          1           0       -3.771748    0.552812    3.733681
     74          1           0       -1.787519   -1.225397   -0.656765
     75          1           0       -2.034016    0.207454   -0.722908
     76          1           0       -0.354073    0.677039    0.756103
     77          1           0       -0.144133   -1.056792    1.290840
     78          1           0       -5.575199    6.811700    0.508892
     79          1           0       -5.564951    5.916357    2.299490
     80          1           0       -4.402711    5.692235    1.042857
     81          1           0       -9.239697    5.886670   -0.592345
     82          1           0       -8.900458    8.305418    0.645016
     83          1           0       -7.601650    7.151541    1.438282
     84          1           0      -12.052979    3.299427   -2.029276
     85          1           0      -13.295193    1.986811   -1.870388
     86          1           0      -12.586497    2.928104   -0.366209
     87          1           0      -12.584697   -1.462308   -0.936845
     88          1           0      -13.372855   -0.262485   -1.668935
     89          1           0      -13.129642   -1.668744   -3.683737
     90          1           0      -11.977262   -0.247412   -3.870611
     91          1           0      -11.255060   -1.879395   -3.468653
     92          1           0       -9.218354   -4.723149   -1.698318
     93          1           0       -8.281970   -5.719720   -0.696748
     94          1           0       -9.750332   -4.899179   -0.152167
     95          1           0       -3.555285   -3.415483   -0.355882
     96          1           0       -1.297252   -4.396714    3.271357
     97          1           0       -2.815920   -5.502394    3.701882
     98          1           0       -1.525960   -6.337930    2.510914
     99          1           0        2.754163   -1.609715   -1.981432
    100          1           0        2.612954    0.146430   -2.084418
    101          1           0        4.369702   -0.946289    0.339232
    102          1           0        4.234381    1.310931   -2.597858
    103          1           0        5.433406    2.139110   -1.938644
    104          1           0        5.708410    0.866240   -3.051008
    105          1           0        6.985125    1.454239   -0.026277
    106          1           0        6.403516   -0.010653    0.900333
    107          1           0        7.506220   -1.443981   -1.232807
    108          1           0        7.896583    0.243551   -1.998235
    109          1           0        9.034151    0.745330    0.173504
    110          1           0        8.980817   -0.761014    0.835641
    111          1           0       10.428417    0.125546   -1.742294
    112          1           0        9.359550   -2.231151   -1.904807
    113          1           0       10.997348   -2.616165   -1.618279
    114          1           0       10.026381   -2.761906   -0.348038
    115          1           0       11.154669    0.964058    0.134618
    116          1           0       11.666369   -0.690824    1.191676
    117          1           0       12.631917   -1.392026   -0.945827
    118          1           0       12.849996    0.109531   -1.600795
    119          1           0       13.841592    0.960076    0.693341
    120          1           0       13.829003   -0.508310    1.085325
    121          1           0       15.273391    0.590423   -1.367277
    122          1           0       15.499009   -2.278555   -0.184701
    123          1           0       14.936594   -1.771932   -1.608877
    124          1           0       16.633751   -1.650165   -1.572145
    125          1           0       16.121563    1.542268    0.904848
    126          1           0       16.535630   -0.093235    1.230611
    127          1           0       18.188463   -0.323362   -0.594648
    128          1           0       17.748083    1.211237   -1.001577
    129          1           0       18.407192    2.437526    0.899097
    130          1           0       18.763762    0.963814    1.876176
    131          1           0       20.236263    0.204352   -0.131112
    132          1           0       20.053646    3.236602   -0.649606
    133          1           0       21.373887    1.936731   -1.295627
    134          1           0       19.584124    1.794870   -1.648179
    135          1           0       21.130591    1.112196    2.184709
    136          1           0       22.298842    1.620929    0.970253
    137          1           0       21.040083    2.579164    1.608629
 ---------------------------------------------------------------------

 SCF Done:  E(RCAM-B3LYP) =  -2933.48812578     A.U. after   15 cycles

 Excitation energies and oscillator strengths:

 Excited State   1:      Singlet-A      2.1227 eV  584.09 nm  f=0.2274  <S**2>=0.000
     240 -> 243        0.24183
     241 -> 242        0.65535
 This state for optimization and/or second-order correction.
 Total Energy, E(TD-HF/TD-DFT) =  -2933.41011879
 Copying the excited state density for this state as the 1-particle RhoCI density.

 The electronic state is 1-A.
 Alpha  occ. eigenvalues --  -46.80549 -19.23974 -19.23296 -19.19065 -19.16182
 Alpha  occ. eigenvalues --  -19.15179 -14.37336 -14.35958 -14.35447 -14.35271
 Alpha  occ. eigenvalues --  -10.35615 -10.34696 -10.30570 -10.30404 -10.29253
 Alpha  occ. eigenvalues --  -10.26862 -10.25717 -10.25569 -10.25350 -10.25341
 Alpha  occ. eigenvalues --  -10.24905 -10.24479 -10.24189 -10.24188 -10.24013
 Alpha  occ. eigenvalues --  -10.23835 -10.23750 -10.23498 -10.23332 -10.23162
 Alpha  occ. eigenvalues --  -10.23151 -10.22969 -10.22935 -10.22908 -10.22854
 Alpha  occ. eigenvalues --  -10.22773 -10.22648 -10.22538 -10.22475 -10.22408
 Alpha  occ. eigenvalues --  -10.22334 -10.22262 -10.22196 -10.22021 -10.21988
 Alpha  occ. eigenvalues --  -10.21820 -10.21811 -10.21767 -10.21730 -10.21661
 Alpha  occ. eigenvalues --  -10.21570 -10.21466 -10.21428 -10.21418 -10.20290
 Alpha  occ. eigenvalues --  -10.20200 -10.20087 -10.20075 -10.20048 -10.19856
 Alpha  occ. eigenvalues --  -10.19738 -10.19648 -10.19138 -10.19067 -10.18571
 Alpha  occ. eigenvalues --   -3.09146  -1.84090  -1.83608  -1.83559  -1.15446
 Alpha  occ. eigenvalues --   -1.13542  -1.06518  -1.04227  -1.01643  -1.01020
 Alpha  occ. eigenvalues --   -1.00220  -0.98822  -0.97411  -0.87458  -0.85966
 Alpha  occ. eigenvalues --   -0.85630  -0.85364  -0.85256  -0.84460  -0.83846
 Alpha  occ. eigenvalues --   -0.83423  -0.82959  -0.82686  -0.82444  -0.81052
 Alpha  occ. eigenvalues --   -0.80278  -0.79268  -0.78686  -0.78156  -0.77514
 Alpha  occ. eigenvalues --   -0.76590  -0.76319  -0.75720  -0.75528  -0.73323
 Alpha  occ. eigenvalues --   -0.72697  -0.72149  -0.71889  -0.71705  -0.71378
 Alpha  occ. eigenvalues --   -0.71233  -0.70373  -0.70221  -0.68773  -0.68235
 Alpha  occ. eigenvalues --   -0.67110  -0.66310  -0.65706  -0.64605  -0.64311
 Alpha  occ. eigenvalues --   -0.63678  -0.61816  -0.61270  -0.61111  -0.60340
 Alpha  occ. eigenvalues --   -0.59897  -0.59686  -0.59525  -0.58612  -0.58392
 Alpha  occ. eigenvalues --   -0.57676  -0.56644  -0.56423  -0.55817  -0.55081
 Alpha  occ. eigenvalues --   -0.54936  -0.54164  -0.54017  -0.52958  -0.52448
 Alpha  occ. eigenvalues --   -0.52050  -0.51814  -0.51790  -0.51382  -0.50994
 Alpha  occ. eigenvalues --   -0.50613  -0.50232  -0.49827  -0.49729  -0.49612
 Alpha  occ. eigenvalues --   -0.49045  -0.48727  -0.48547  -0.48189  -0.47800
 Alpha  occ. eigenvalues --   -0.47658  -0.47541  -0.47256  -0.47208  -0.47016
 Alpha  occ. eigenvalues --   -0.46905  -0.46713  -0.46450  -0.46318  -0.46150
 Alpha  occ. eigenvalues --   -0.45750  -0.45492  -0.45265  -0.44934  -0.44780
 Alpha  occ. eigenvalues --   -0.44579  -0.44362  -0.43890  -0.43737  -0.43544
 Alpha  occ. eigenvalues --   -0.43454  -0.43358  -0.42977  -0.42894  -0.42794
 Alpha  occ. eigenvalues --   -0.42487  -0.42061  -0.42012  -0.41924  -0.41909
 Alpha  occ. eigenvalues --   -0.41628  -0.41428  -0.41165  -0.41149  -0.40970
 Alpha  occ. eigenvalues --   -0.40610  -0.40503  -0.40069  -0.39876  -0.39754
 Alpha  occ. eigenvalues --   -0.39692  -0.39467  -0.39029  -0.38961  -0.38615
 Alpha  occ. eigenvalues --   -0.38569  -0.38477  -0.38447  -0.38186  -0.38064
 Alpha  occ. eigenvalues --   -0.37998  -0.37878  -0.37662  -0.37351  -0.37020
 Alpha  occ. eigenvalues --   -0.36945  -0.36921  -0.36379  -0.36015  -0.35886
 Alpha  occ. eigenvalues --   -0.35642  -0.35296  -0.35190  -0.34823  -0.34518
 Alpha  occ. eigenvalues --   -0.34516  -0.34393  -0.34160  -0.33626  -0.33282
 Alpha  occ. eigenvalues --   -0.33194  -0.33134  -0.33041  -0.32838  -0.32376
 Alpha  occ. eigenvalues --   -0.32159  -0.31942  -0.31487  -0.31001  -0.30354
 Alpha  occ. eigenvalues --   -0.30259  -0.29891  -0.29519  -0.28158  -0.27789
 Alpha  occ. eigenvalues --   -0.26743  -0.26403  -0.25782  -0.23949  -0.21889
 Alpha  occ. eigenvalues --   -0.20002
 Alpha virt. eigenvalues --   -0.06583  -0.04176  -0.00962   0.01315   0.03182
 Alpha virt. eigenvalues --    0.04054   0.04541   0.04776   0.05245   0.05339
 Alpha virt. eigenvalues --    0.06784   0.08638   0.09082   0.09785   0.10145

 Mulliken charges:
               1
     1  Mg   0.818014
     2  C    0.105382
     3  C   -0.176591
     4  C   -0.149099
     5  C   -0.211337
     6  N   -0.643842
     7  C    0.345987
     8  C   -0.142448
     9  C   -0.146730
    10  C    0.332448
    11  C   -0.299177
    12  C   -0.185984
    13  C   -0.270684
    14  C    0.599107
    15  O   -0.436526
    16  O   -0.462110
    17  N   -0.757801
    18  C    0.358140
    19  C   -0.018814
    20  C    0.074136
    21  C    0.328672
    22  C   -0.393382
    23  C   -0.140286
    24  C   -0.257134
    25  N   -0.683651
    26  C    0.314067
    27  C   -0.009563
    28  C    0.082261
    29  C    0.248702
    30  C   -0.377585
    31  C   -0.269271
    32  C   -0.306489
    33  N   -0.670663
    34  C    0.358558
    35  C   -0.040636
    36  C    0.140403
    37  C    0.190240
    38  C   -0.385118
    39  C    0.317168
    40  O   -0.508150
    41  C   -0.334204
    42  C    0.605531
    43  O   -0.487370
    44  O   -0.378921
    45  C   -0.089905
    46  C   -0.000883
    47  C   -0.137534
    48  C    0.133845
    49  C   -0.371172
    50  C   -0.225660
    51  C   -0.152007
    52  C   -0.156789
    53  C   -0.061868
    54  C   -0.320619
    55  C   -0.150021
    56  C   -0.186199
    57  C   -0.193003
    58  C   -0.058458
    59  C   -0.325335
    60  C   -0.141014
    61  C   -0.185522
    62  C   -0.160710
    63  C   -0.084246
    64  C   -0.289051
    65  C   -0.319628
    66  H    0.084537
    67  H    0.080517
    68  H    0.090964
    69  H    0.096554
    70  H    0.101026
    71  H    0.111681
    72  H    0.093144
    73  H    0.130716
    74  H    0.125899
    75  H    0.111457
    76  H    0.127303
    77  H    0.136161
    78  H    0.124864
    79  H    0.130123
    80  H    0.113698
    81  H    0.084972
    82  H    0.123014
    83  H    0.093913
    84  H    0.123789
    85  H    0.079422
    86  H    0.134527
    87  H    0.111295
    88  H    0.105819
    89  H    0.103308
    90  H    0.112552
    91  H    0.094241
    92  H    0.139590
    93  H    0.131822
    94  H    0.127242
    95  H    0.154431
    96  H    0.107540
    97  H    0.153042
    98  H    0.116505
    99  H    0.134386
   100  H    0.107869
   101  H    0.080945
   102  H    0.110600
   103  H    0.109378
   104  H    0.132809
   105  H    0.072445
   106  H    0.098324
   107  H    0.087649
   108  H    0.068206
   109  H    0.086071
   110  H    0.066751
   111  H    0.087981
   112  H    0.111129
   113  H    0.098835
   114  H    0.114111
   115  H    0.096115
   116  H    0.040565
   117  H    0.101837
   118  H    0.084532
   119  H    0.086859
   120  H    0.083035
   121  H    0.077095
   122  H    0.093057
   123  H    0.115255
   124  H    0.111070
   125  H    0.083596
   126  H    0.107774
   127  H    0.073236
   128  H    0.091543
   129  H    0.038525
   130  H    0.068270
   131  H    0.087975
   132  H    0.115154
   133  H    0.099796
   134  H    0.111032
   135  H    0.109186
   136  H    0.094985
   137  H    0.106876
 Sum of Mulliken charges =  -0.00000

 Dipole moment (field-independent basis, Debye):
    X=              0.6889    Y=              3.7781    Z=             -0.0348  Tot=              3.8405
 Quadrupole moment (field-independent basis, Debye-Ang):
   XX=           -364.8044   YY=           -396.5617   ZZ=           -396.8585
   XY=            -22.0638   XZ=              6.2370   YZ=             -2.0972

 Normal termination of Gaussian 16 at Fri Sep 13 10:37:43 2019.
