 Gaussian 09, Revision D.01,
 Gaussian 09:  ES64L-G09RevD.01 24-Apr-2013

 -------------------------------------
 # td=(NStates=1) CAM-B3LYP/6-31G(d,p)
 -------------------------------------

 --
 TD
 --
 Symbolic Z-matrix:
 Charge =  0 Multiplicity = 1

                         Standard orientation:
 ---------------------------------------------------------------------
 Center     Atomic      Atomic             Coordinates (Angstroms)
 Number     Number       Type             X           Y           Z
 ---------------------------------------------------------------------
      1         12           0       -7.098335    0.526806    0.054726
      2          6           0       -4.829071   -1.926347    0.467758
      3          6           0       -4.928161    2.897979    1.139105
      4          6           0       -9.470712    3.050170   -0.293466
      5          6           0       -9.489136   -1.749216   -0.971710
      6          7           0       -5.141862    0.422986    0.771186
      7          6           0       -4.387174   -0.761011    0.804242
      8          6           0       -2.919765   -0.459729    1.207668
      9          6           0       -3.072491    1.041103    1.683792
     10          6           0       -4.423175    1.523793    1.126924
     11          6           0       -2.935629    1.275845    3.209538
     12          6           0       -1.917395   -0.717418    0.157931
     13          6           0       -0.438207   -0.530224    0.608896
     14          6           0        0.579454   -0.630100   -0.614454
     15          8           0        0.312123   -0.844129   -1.781329
     16          8           0        1.797147   -0.244396   -0.134774
     17          7           0       -7.187181    2.483369    0.285920
     18          6           0       -6.150945    3.307366    0.751409
     19          6           0       -6.543908    4.755777    0.871490
     20          6           0       -7.816470    4.827408    0.335976
     21          6           0       -8.243732    3.421076    0.038330
     22          6           0       -5.649276    5.867906    1.170428
     23          6           0       -8.602698    6.007530    0.089029
     24          6           0       -8.681128    7.106402    0.918172
     25          7           0       -9.120902    0.635205   -0.637292
     26          6           0       -9.857348    1.691442   -0.641794
     27          6           0      -11.227873    1.323080   -1.247529
     28          6           0      -11.319984    0.035619   -1.294342
     29          6           0       -9.897724   -0.440487   -1.036471
     30          6           0      -12.309031    2.448195   -1.327401
     31          6           0      -12.415831   -0.855088   -1.866009
     32          6           0      -12.244606   -1.006712   -3.449709
     33          7           0       -7.194059   -1.408726   -0.243180
     34          6           0       -8.288274   -2.233780   -0.557432
     35          6           0       -7.767298   -3.549568   -0.578628
     36          6           0       -6.421856   -3.547329   -0.171037
     37          6           0       -6.163033   -2.236802    0.021969
     38          6           0       -8.632744   -4.794308   -0.874914
     39          6           0       -5.271000   -4.405981    0.255845
     40          8           0       -5.073542   -5.535575    0.264764
     41          6           0       -4.139906   -3.272830    0.569971
     42          6           0       -3.558639   -3.706184    1.869769
     43          8           0       -3.743893   -3.050742    2.927930
     44          8           0       -2.682912   -4.734891    1.792564
     45          6           0       -2.113033   -5.132769    3.088687
     46          6           0        2.825767   -0.463914   -1.273889
     47          6           0        4.220652   -0.373679   -0.528792
     48          6           0        5.225700    0.428160   -0.895808
     49          6           0        5.082230    1.376684   -1.986311
     50          6           0        6.495445    0.437293   -0.064817
     51          6           0        7.785906   -0.127958   -0.814281
     52          6           0        8.986531   -0.114607   -0.008705
     53          6           0       10.272098   -0.524601   -0.811995
     54          6           0       10.152620   -2.077829   -1.245004
     55          6           0       11.441428   -0.263043    0.082384
     56          6           0       12.770645   -0.391096   -0.661262
     57          6           0       14.020949   -0.050978    0.166949
     58          6           0       15.309262   -0.156364   -0.426849
     59          6           0       15.588351   -1.590749   -0.786501
     60          6           0       16.383774    0.347117    0.472778
     61          6           0       17.802020    0.485781   -0.166774
     62          6           0       18.795451    1.268970    0.747306
     63          6           0       20.223763    1.365179    0.038009
     64          6           0       20.348616    2.011871   -1.345797
     65          6           0       21.368013    1.790472    1.020594
     66          1           0       -4.387196    3.462250    1.821743
     67          1           0      -10.246074    3.843802   -0.224778
     68          1           0      -10.391828   -2.449444   -1.056912
     69          1           0       -2.700015   -1.121564    1.932974
     70          1           0       -2.505247    1.717546    1.093274
     71          1           0       -1.886122    1.086862    3.547156
     72          1           0       -3.025786    2.430841    3.481566
     73          1           0       -3.655854    0.763192    3.686189
     74          1           0       -1.755777   -1.757629   -0.073122
     75          1           0       -1.980376   -0.007019   -0.652817
     76          1           0       -0.356344    0.522589    0.984330
     77          1           0       -0.099506   -1.246305    1.165180
     78          1           0       -5.957414    6.805614    0.935224
     79          1           0       -5.699556    5.822258    2.197387
     80          1           0       -4.651736    5.460392    1.000355
     81          1           0       -9.356381    5.824669   -0.717446
     82          1           0       -9.395339    7.749401    0.624147
     83          1           0       -8.053382    7.161309    1.945111
     84          1           0      -12.239087    3.228999   -2.018166
     85          1           0      -13.325923    1.748402   -1.672101
     86          1           0      -12.361913    2.840991   -0.335578
     87          1           0      -12.612680   -1.907539   -1.447078
     88          1           0      -13.369525   -0.286590   -1.655400
     89          1           0      -13.147231   -1.657151   -3.776402
     90          1           0      -12.134239    0.042379   -3.899154
     91          1           0      -11.436656   -1.708470   -3.794151
     92          1           0       -9.064040   -4.803576   -1.834380
     93          1           0       -8.026398   -5.588856   -0.717378
     94          1           0       -9.580858   -4.982435   -0.194680
     95          1           0       -3.479420   -3.322134   -0.445582
     96          1           0       -1.458933   -4.209917    3.365090
     97          1           0       -3.159981   -5.097241    3.816497
     98          1           0       -1.599205   -6.005721    3.027960
     99          1           0        2.586007   -1.404923   -1.728428
    100          1           0        2.761037    0.393792   -1.936955
    101          1           0        4.526033   -0.959494    0.316856
    102          1           0        3.924674    1.625526   -2.183990
    103          1           0        5.707458    2.293981   -1.599506
    104          1           0        5.632041    1.138019   -2.946510
    105          1           0        6.621046    1.454318    0.246149
    106          1           0        6.199104   -0.333382    0.820455
    107          1           0        7.479800   -1.246861   -1.157837
    108          1           0        7.827001    0.397822   -1.734128
    109          1           0        9.147354    0.857107    0.464556
    110          1           0        8.543095   -0.814269    0.882359
    111          1           0       10.215852    0.119786   -1.757191
    112          1           0        9.288143   -2.054977   -1.969835
    113          1           0       11.037541   -2.292816   -1.767086
    114          1           0        9.863122   -2.785399   -0.425415
    115          1           0       11.340897    0.793202    0.255437
    116          1           0       11.443350   -0.887069    0.950344
    117          1           0       12.968871   -1.484178   -0.820243
    118          1           0       12.689987    0.247526   -1.559800
    119          1           0       13.865523    1.019139    0.712681
    120          1           0       14.011916   -0.871983    0.758499
    121          1           0       15.256996    0.452641   -1.376339
    122          1           0       15.542412   -1.983397    0.045795
    123          1           0       14.800963   -1.964806   -1.454545
    124          1           0       16.252940   -1.823808   -1.426489
    125          1           0       16.169893    1.419827    0.923784
    126          1           0       16.390644   -0.347010    1.347595
    127          1           0       18.385898   -0.669922   -0.323046
    128          1           0       17.994370    1.052223   -1.125014
    129          1           0       18.519163    2.276633    0.878760
    130          1           0       18.963966    0.857613    1.697675
    131          1           0       20.743380    0.402351   -0.162994
    132          1           0       20.098189    2.985832   -1.299827
    133          1           0       21.515276    2.091559   -1.684383
    134          1           0       19.389990    1.790694   -1.969529
    135          1           0       21.477357    1.160166    1.941969
    136          1           0       22.308518    1.970997    0.347119
    137          1           0       21.118357    2.780880    1.423999
 ---------------------------------------------------------------------

 SCF Done:  E(RCAM-B3LYP) =  -2932.60164687     A.U. after   17 cycles

 Excitation energies and oscillator strengths:

 Excited State   1:      Singlet-A      2.4276 eV  510.73 nm  f=0.2056  <S**2>=0.000
     240 -> 242        0.21477
     240 -> 243       -0.19458
     241 -> 242        0.60630
     241 -> 243        0.18929
 This state for optimization and/or second-order correction.
 Total Energy, E(TD-HF/TD-KS) =  -2932.51243447
 Copying the excited state density for this state as the 1-particle RhoCI density.

 The electronic state is 1-A.
 Alpha  occ. eigenvalues --  -46.82906 -19.26255 -19.26063 -19.21210 -19.21028
 Alpha  occ. eigenvalues --  -19.20040 -14.41378 -14.39809 -14.39565 -14.37872
 Alpha  occ. eigenvalues --  -10.39230 -10.39001 -10.35095 -10.32686 -10.32524
 Alpha  occ. eigenvalues --  -10.32420 -10.31004 -10.29962 -10.29941 -10.28545
 Alpha  occ. eigenvalues --  -10.28498 -10.28393 -10.28083 -10.28049 -10.27964
 Alpha  occ. eigenvalues --  -10.27831 -10.27727 -10.27655 -10.27491 -10.27383
 Alpha  occ. eigenvalues --  -10.27210 -10.27084 -10.27066 -10.27010 -10.26893
 Alpha  occ. eigenvalues --  -10.26893 -10.26733 -10.26566 -10.26470 -10.26290
 Alpha  occ. eigenvalues --  -10.26263 -10.26245 -10.26244 -10.26191 -10.26074
 Alpha  occ. eigenvalues --  -10.26032 -10.25884 -10.25854 -10.25835 -10.25720
 Alpha  occ. eigenvalues --  -10.25411 -10.25411 -10.25358 -10.25242 -10.25209
 Alpha  occ. eigenvalues --  -10.25063 -10.24924 -10.24924 -10.24783 -10.24616
 Alpha  occ. eigenvalues --  -10.24287 -10.24045 -10.24027 -10.23299 -10.21087
 Alpha  occ. eigenvalues --   -3.12207  -1.86897  -1.86442  -1.86415  -1.16795
 Alpha  occ. eigenvalues --   -1.16474  -1.15203  -1.08160  -1.06732  -1.04386
 Alpha  occ. eigenvalues --   -1.03091  -1.02195  -1.01163  -0.92910  -0.92042
 Alpha  occ. eigenvalues --   -0.91587  -0.90217  -0.90009  -0.89781  -0.89166
 Alpha  occ. eigenvalues --   -0.88328  -0.88169  -0.87047  -0.86095  -0.85650
 Alpha  occ. eigenvalues --   -0.84864  -0.84398  -0.83191  -0.82655  -0.82167
 Alpha  occ. eigenvalues --   -0.81391  -0.80988  -0.80637  -0.79890  -0.78911
 Alpha  occ. eigenvalues --   -0.77835  -0.77248  -0.77010  -0.76152  -0.75819
 Alpha  occ. eigenvalues --   -0.75758  -0.75262  -0.74533  -0.73120  -0.72141
 Alpha  occ. eigenvalues --   -0.71336  -0.70301  -0.69558  -0.69292  -0.68292
 Alpha  occ. eigenvalues --   -0.66901  -0.66013  -0.65570  -0.64507  -0.63921
 Alpha  occ. eigenvalues --   -0.63529  -0.63152  -0.62727  -0.62427  -0.61823
 Alpha  occ. eigenvalues --   -0.61044  -0.59805  -0.59578  -0.58866  -0.58363
 Alpha  occ. eigenvalues --   -0.58246  -0.57931  -0.57378  -0.57186  -0.57132
 Alpha  occ. eigenvalues --   -0.56552  -0.55566  -0.55527  -0.55079  -0.54794
 Alpha  occ. eigenvalues --   -0.54622  -0.54421  -0.53872  -0.53608  -0.52987
 Alpha  occ. eigenvalues --   -0.52876  -0.52748  -0.52464  -0.52238  -0.51795
 Alpha  occ. eigenvalues --   -0.51668  -0.51432  -0.51161  -0.50929  -0.50662
 Alpha  occ. eigenvalues --   -0.50401  -0.50309  -0.50126  -0.49817  -0.49652
 Alpha  occ. eigenvalues --   -0.49483  -0.49264  -0.49028  -0.48898  -0.48747
 Alpha  occ. eigenvalues --   -0.48256  -0.48101  -0.47916  -0.47817  -0.47502
 Alpha  occ. eigenvalues --   -0.47038  -0.47008  -0.46784  -0.46388  -0.46336
 Alpha  occ. eigenvalues --   -0.45854  -0.45539  -0.45487  -0.45103  -0.44931
 Alpha  occ. eigenvalues --   -0.44713  -0.44504  -0.44389  -0.44060  -0.43985
 Alpha  occ. eigenvalues --   -0.43667  -0.43332  -0.43271  -0.43141  -0.42973
 Alpha  occ. eigenvalues --   -0.42873  -0.42714  -0.42662  -0.42389  -0.42159
 Alpha  occ. eigenvalues --   -0.42077  -0.41961  -0.41828  -0.41737  -0.41262
 Alpha  occ. eigenvalues --   -0.41217  -0.40927  -0.40704  -0.40675  -0.40575
 Alpha  occ. eigenvalues --   -0.40525  -0.39978  -0.39739  -0.39703  -0.39589
 Alpha  occ. eigenvalues --   -0.39405  -0.38866  -0.38115  -0.37708  -0.37503
 Alpha  occ. eigenvalues --   -0.37195  -0.37120  -0.36785  -0.36582  -0.36357
 Alpha  occ. eigenvalues --   -0.36189  -0.36082  -0.35851  -0.35793  -0.35242
 Alpha  occ. eigenvalues --   -0.34936  -0.34668  -0.34379  -0.33445  -0.33146
 Alpha  occ. eigenvalues --   -0.33045  -0.32917  -0.32355  -0.30664  -0.29914
 Alpha  occ. eigenvalues --   -0.29652  -0.29266  -0.28105  -0.27720  -0.23756
 Alpha  occ. eigenvalues --   -0.21180
 Alpha virt. eigenvalues --   -0.04962  -0.02007   0.02205   0.03916   0.05559
 Alpha virt. eigenvalues --    0.06079   0.06788   0.06849   0.07089   0.07363
 Alpha virt. eigenvalues --    0.09201   0.10574   0.10612   0.11232   0.11380

 Mulliken charges:
               1
     1  Mg   0.805348
     2  C    0.114823
     3  C   -0.236731
     4  C   -0.230477
     5  C   -0.168462
     6  N   -0.643030
     7  C    0.275053
     8  C   -0.112778
     9  C   -0.161361
    10  C    0.304272
    11  C   -0.297962
    12  C   -0.168057
    13  C   -0.266853
    14  C    0.581901
    15  O   -0.472113
    16  O   -0.485740
    17  N   -0.715639
    18  C    0.353795
    19  C    0.006586
    20  C    0.019973
    21  C    0.340361
    22  C   -0.357692
    23  C   -0.105317
    24  C   -0.230841
    25  N   -0.631115
    26  C    0.310911
    27  C   -0.008962
    28  C    0.053481
    29  C    0.238385
    30  C   -0.354271
    31  C   -0.244228
    32  C   -0.298166
    33  N   -0.752401
    34  C    0.299688
    35  C   -0.066464
    36  C    0.016190
    37  C    0.294887
    38  C   -0.365506
    39  C    0.364805
    40  O   -0.393196
    41  C   -0.350268
    42  C    0.635425
    43  O   -0.510856
    44  O   -0.461524
    45  C   -0.067363
    46  C    0.001630
    47  C   -0.132186
    48  C    0.144583
    49  C   -0.360406
    50  C   -0.229481
    51  C   -0.174142
    52  C   -0.145796
    53  C   -0.072806
    54  C   -0.318387
    55  C   -0.150057
    56  C   -0.194658
    57  C   -0.148373
    58  C   -0.063129
    59  C   -0.286636
    60  C   -0.156105
    61  C   -0.147961
    62  C   -0.184564
    63  C   -0.061629
    64  C   -0.322034
    65  C   -0.319205
    66  H    0.082913
    67  H    0.089760
    68  H    0.097028
    69  H    0.118314
    70  H    0.109139
    71  H    0.116244
    72  H    0.084817
    73  H    0.144981
    74  H    0.117033
    75  H    0.113468
    76  H    0.127806
    77  H    0.135849
    78  H    0.130106
    79  H    0.137723
    80  H    0.127692
    81  H    0.099901
    82  H    0.112104
    83  H    0.107738
    84  H    0.128863
    85  H    0.069812
    86  H    0.131841
    87  H    0.103986
    88  H    0.103215
    89  H    0.092390
    90  H    0.113504
    91  H    0.116520
    92  H    0.120965
    93  H    0.136304
    94  H    0.094471
    95  H    0.163442
    96  H    0.119887
    97  H    0.126322
    98  H    0.137494
    99  H    0.153864
   100  H    0.126328
   101  H    0.079736
   102  H    0.104482
   103  H    0.091700
   104  H    0.124281
   105  H    0.107010
   106  H    0.076426
   107  H    0.081706
   108  H    0.091142
   109  H    0.089558
   110  H    0.070213
   111  H    0.082958
   112  H    0.096644
   113  H    0.113543
   114  H    0.105091
   115  H    0.090922
   116  H    0.099157
   117  H    0.090638
   118  H    0.080255
   119  H    0.061784
   120  H    0.085945
   121  H    0.065451
   122  H    0.102393
   123  H    0.088721
   124  H    0.108393
   125  H    0.075147
   126  H    0.089167
   127  H    0.055311
   128  H    0.087380
   129  H    0.100349
   130  H    0.100977
   131  H    0.094091
   132  H    0.114195
   133  H    0.095094
   134  H    0.093429
   135  H    0.102972
   136  H    0.083798
   137  H    0.090949
 Sum of Mulliken charges =   0.00000

 Dipole moment (field-independent basis, Debye):
    X=              1.9391    Y=              5.4839    Z=              0.9831  Tot=              5.8991
 Quadrupole moment (field-independent basis, Debye-Ang):
   XX=           -356.0894   YY=           -385.4206   ZZ=           -397.1889
   XY=            -30.2617   XZ=              4.4816   YZ=              0.9994

 Normal termination of Gaussian 09 at Wed Jul  3 09:26:08 2019.
