 Gaussian 16, Revision A.03,
 Gaussian 16:  ES64L-G16RevA.03 25-Dec-2016

 -------------------------------------
 # td=(NStates=1) CAM-B3LYP/6-31G(d,p)
 -------------------------------------

 --
 TD
 --
 Symbolic Z-matrix:
 Charge =  0 Multiplicity = 1

                         Standard orientation:
 ---------------------------------------------------------------------
 Center     Atomic      Atomic             Coordinates (Angstroms)
 Number     Number       Type             X           Y           Z
 ---------------------------------------------------------------------
      1         12           0       -7.146780    0.689536    0.105343
      2          6           0       -4.784582   -1.937653    0.451668
      3          6           0       -4.733350    2.837339    1.261339
      4          6           0       -9.341970    3.207203   -0.278157
      5          6           0       -9.484250   -1.700060   -0.920316
      6          7           0       -5.093311    0.419980    0.777670
      7          6           0       -4.331878   -0.771742    0.824623
      8          6           0       -2.924264   -0.439692    1.214288
      9          6           0       -2.944921    1.072084    1.626659
     10          6           0       -4.357773    1.503965    1.198933
     11          6           0       -2.970561    1.210609    3.142725
     12          6           0       -1.956619   -0.656379    0.062398
     13          6           0       -0.500114   -0.496582    0.421889
     14          6           0        0.396694   -0.697402   -0.728910
     15          8           0        0.092972   -1.142093   -1.865219
     16          8           0        1.695279   -0.472425   -0.362276
     17          7           0       -7.067498    2.592156    0.337669
     18          6           0       -5.935296    3.398950    0.694627
     19          6           0       -6.268651    4.866327    0.661542
     20          6           0       -7.618634    4.868015    0.245138
     21          6           0       -8.083383    3.498283    0.103496
     22          6           0       -5.298497    5.925256    0.979787
     23          6           0       -8.477383    6.104976    0.097151
     24          6           0       -8.418153    7.283158    0.721952
     25          7           0       -9.056559    0.696267   -0.516932
     26          6           0       -9.852560    1.887694   -0.555470
     27          6           0      -11.196775    1.522799   -0.964651
     28          6           0      -11.204757    0.197114   -1.191788
     29          6           0       -9.912907   -0.448565   -0.923955
     30          6           0      -12.304277    2.581128   -1.046348
     31          6           0      -12.407111   -0.671054   -1.638433
     32          6           0      -12.454891   -1.051094   -3.143857
     33          7           0       -7.204780   -1.351007   -0.207075
     34          6           0       -8.263786   -2.302573   -0.605875
     35          6           0       -7.784547   -3.579018   -0.587671
     36          6           0       -6.506622   -3.571218   -0.109789
     37          6           0       -6.202845   -2.218408    0.019713
     38          6           0       -8.718919   -4.729301   -0.805648
     39          6           0       -5.358434   -4.333425    0.157493
     40          8           0       -5.093512   -5.575216    0.137087
     41          6           0       -4.174064   -3.350357    0.453841
     42          6           0       -3.581184   -3.756884    1.890703
     43          8           0       -3.820102   -3.307894    2.939571
     44          8           0       -2.756888   -4.837221    1.715338
     45          6           0       -2.106138   -5.292804    2.922998
     46          6           0        2.778192   -0.697062   -1.318895
     47          6           0        4.009761   -0.573442   -0.683293
     48          6           0        5.134207    0.130951   -0.939888
     49          6           0        5.083412    1.098593   -2.159999
     50          6           0        6.291720    0.260647   -0.097591
     51          6           0        7.565166   -0.193317   -0.942458
     52          6           0        8.848644   -0.255629   -0.080016
     53          6           0       10.130684   -0.617652   -0.794272
     54          6           0       10.123797   -2.006601   -1.313881
     55          6           0       11.479193   -0.297393    0.089646
     56          6           0       12.828768   -0.330523   -0.730783
     57          6           0       13.927106   -0.086016    0.213227
     58          6           0       15.310805   -0.140480   -0.434351
     59          6           0       15.698801   -1.662144   -0.697804
     60          6           0       16.322752    0.561083    0.402924
     61          6           0       17.745207    0.708044   -0.126186
     62          6           0       18.744930    1.353127    0.697866
     63          6           0       20.245576    1.320407    0.183424
     64          6           0       20.409148    2.106718   -1.133887
     65          6           0       21.177639    1.963184    1.321513
     66          1           0       -3.829317    3.524686    1.619701
     67          1           0       -9.841350    4.215781   -0.245030
     68          1           0      -10.180820   -2.277399   -1.319749
     69          1           0       -2.594900   -1.067768    2.144073
     70          1           0       -2.067667    1.776720    1.189177
     71          1           0       -1.892066    1.104013    3.585313
     72          1           0       -3.086069    2.346876    3.532885
     73          1           0       -3.552037    0.554627    3.675905
     74          1           0       -1.823142   -1.761061   -0.405153
     75          1           0       -2.291199   -0.075904   -0.664863
     76          1           0       -0.333600    0.364859    1.098253
     77          1           0       -0.211195   -1.401744    1.221656
     78          1           0       -5.481333    6.934094    0.512218
     79          1           0       -5.248521    6.090899    2.020524
     80          1           0       -4.336860    5.598864    0.669160
     81          1           0       -9.159896    5.919756   -0.803025
     82          1           0       -9.292661    8.077971    0.397595
     83          1           0       -7.616474    7.489553    1.364339
     84          1           0      -11.979602    3.324602   -1.826661
     85          1           0      -13.334652    2.032144   -1.119839
     86          1           0      -12.451158    2.988979   -0.089033
     87          1           0      -12.308525   -1.536968   -1.023403
     88          1           0      -13.336198   -0.279970   -1.378688
     89          1           0      -13.529999   -1.324224   -3.407346
     90          1           0      -12.200257   -0.018699   -3.694759
     91          1           0      -11.647824   -1.840440   -3.207144
     92          1           0       -9.218176   -4.757690   -1.963988
     93          1           0       -8.050301   -5.586974   -0.630116
     94          1           0       -9.655779   -4.879875   -0.117545
     95          1           0       -3.439247   -3.529679   -0.292557
     96          1           0       -1.491040   -4.408692    3.365221
     97          1           0       -2.855782   -5.653974    3.590597
     98          1           0       -1.627942   -6.283273    2.705405
     99          1           0        2.687455   -1.727903   -1.458220
    100          1           0        2.752704   -0.128572   -2.324495
    101          1           0        4.159245   -1.317019    0.109444
    102          1           0        3.940021    1.094914   -2.501716
    103          1           0        5.430796    2.243955   -1.799829
    104          1           0        5.770973    0.784394   -2.970518
    105          1           0        6.347392    1.299279    0.436232
    106          1           0        6.406137   -0.530207    0.854121
    107          1           0        7.437522   -1.319721   -1.252564
    108          1           0        7.547117    0.573186   -1.769093
    109          1           0        8.720295    0.766710    0.456108
    110          1           0        8.638081   -0.905483    0.726476
    111          1           0       10.070333    0.230449   -1.658846
    112          1           0        9.142496   -2.077928   -1.711533
    113          1           0       11.104761   -2.136180   -2.099249
    114          1           0       10.302994   -2.799271   -0.600987
    115          1           0       11.197162    0.778350    0.509390
    116          1           0       11.285263   -1.032322    0.856356
    117          1           0       12.909995   -1.417171   -1.200858
    118          1           0       12.611257    0.421299   -1.610723
    119          1           0       13.934319    1.059908    0.604243
    120          1           0       13.898905   -0.675878    1.087635
    121          1           0       15.202777    0.090662   -1.631969
    122          1           0       15.941286   -2.163742    0.333402
    123          1           0       15.024761   -2.311211   -1.146475
    124          1           0       16.613529   -1.780102   -1.364443
    125          1           0       15.827749    1.507951    0.591759
    126          1           0       16.330241    0.195796    1.384480
    127          1           0       18.201843   -0.226099   -0.350013
    128          1           0       17.727800    1.260045   -1.217463
    129          1           0       18.559018    2.454634    0.727517
    130          1           0       18.702026    0.987479    1.826518
    131          1           0       20.755955    0.445796    0.079119
    132          1           0       20.117093    3.119741   -1.051918
    133          1           0       21.466727    1.743361   -1.437014
    134          1           0       19.899248    1.755038   -2.015766
    135          1           0       21.139500    1.333383    2.326212
    136          1           0       22.368924    1.963685    1.017714
    137          1           0       20.813617    3.062181    1.580036
 ---------------------------------------------------------------------

 SCF Done:  E(RCAM-B3LYP) =  -2932.64963490     A.U. after   17 cycles

 Excitation energies and oscillator strengths:

 Excited State   1:      Singlet-A      2.1852 eV  567.37 nm  f=0.2186  <S**2>=0.000
     240 -> 242        0.25896
     240 -> 243       -0.18768
     241 -> 242        0.60643
     241 -> 243        0.13432
 This state for optimization and/or second-order correction.
 Total Energy, E(TD-HF/TD-DFT) =  -2932.56932932
 Copying the excited state density for this state as the 1-particle RhoCI density.

 The electronic state is 1-A.
 Alpha  occ. eigenvalues --  -46.83054 -19.25858 -19.24294 -19.20841 -19.20787
 Alpha  occ. eigenvalues --  -19.18066 -14.41627 -14.40294 -14.39869 -14.38872
 Alpha  occ. eigenvalues --  -10.39759 -10.38319 -10.33538 -10.32926 -10.32024
 Alpha  occ. eigenvalues --  -10.31373 -10.31268 -10.30746 -10.30371 -10.29467
 Alpha  occ. eigenvalues --  -10.29352 -10.29327 -10.29126 -10.29003 -10.28965
 Alpha  occ. eigenvalues --  -10.28937 -10.28514 -10.28451 -10.28439 -10.28354
 Alpha  occ. eigenvalues --  -10.28003 -10.27899 -10.27759 -10.27613 -10.27542
 Alpha  occ. eigenvalues --  -10.27540 -10.27488 -10.27377 -10.27328 -10.27245
 Alpha  occ. eigenvalues --  -10.27226 -10.27177 -10.27143 -10.27073 -10.26989
 Alpha  occ. eigenvalues --  -10.26957 -10.26918 -10.26819 -10.26796 -10.26579
 Alpha  occ. eigenvalues --  -10.26214 -10.26161 -10.26110 -10.26079 -10.25768
 Alpha  occ. eigenvalues --  -10.25638 -10.25563 -10.25552 -10.25446 -10.25328
 Alpha  occ. eigenvalues --  -10.25229 -10.24617 -10.24525 -10.24517 -10.23904
 Alpha  occ. eigenvalues --   -3.12337  -1.87018  -1.86591  -1.86535  -1.17836
 Alpha  occ. eigenvalues --   -1.16420  -1.09226  -1.07190  -1.06435  -1.03317
 Alpha  occ. eigenvalues --   -1.02603  -1.01986  -0.99785  -0.92036  -0.91591
 Alpha  occ. eigenvalues --   -0.90923  -0.90369  -0.89676  -0.89534  -0.89229
 Alpha  occ. eigenvalues --   -0.88331  -0.88308  -0.87450  -0.87410  -0.86539
 Alpha  occ. eigenvalues --   -0.85666  -0.84737  -0.84205  -0.83491  -0.83206
 Alpha  occ. eigenvalues --   -0.81453  -0.80952  -0.80095  -0.79924  -0.79271
 Alpha  occ. eigenvalues --   -0.78078  -0.77150  -0.75658  -0.75479  -0.75271
 Alpha  occ. eigenvalues --   -0.74758  -0.74598  -0.74134  -0.73216  -0.72589
 Alpha  occ. eigenvalues --   -0.71256  -0.70269  -0.69072  -0.68459  -0.68150
 Alpha  occ. eigenvalues --   -0.67287  -0.66053  -0.65702  -0.64456  -0.64191
 Alpha  occ. eigenvalues --   -0.63296  -0.63067  -0.62766  -0.62639  -0.61827
 Alpha  occ. eigenvalues --   -0.61345  -0.60890  -0.60264  -0.59768  -0.59038
 Alpha  occ. eigenvalues --   -0.58657  -0.58317  -0.57148  -0.56723  -0.56545
 Alpha  occ. eigenvalues --   -0.56243  -0.55251  -0.55021  -0.54465  -0.54217
 Alpha  occ. eigenvalues --   -0.54072  -0.53974  -0.53475  -0.53090  -0.53067
 Alpha  occ. eigenvalues --   -0.52872  -0.52734  -0.52541  -0.52043  -0.51811
 Alpha  occ. eigenvalues --   -0.51653  -0.51280  -0.51065  -0.50629  -0.50347
 Alpha  occ. eigenvalues --   -0.50264  -0.50060  -0.49807  -0.49496  -0.49456
 Alpha  occ. eigenvalues --   -0.49232  -0.48988  -0.48555  -0.48443  -0.48349
 Alpha  occ. eigenvalues --   -0.47904  -0.47730  -0.47444  -0.47228  -0.47016
 Alpha  occ. eigenvalues --   -0.46881  -0.46503  -0.46417  -0.46067  -0.45933
 Alpha  occ. eigenvalues --   -0.45865  -0.45586  -0.45498  -0.45301  -0.45132
 Alpha  occ. eigenvalues --   -0.44861  -0.44578  -0.44486  -0.44296  -0.43979
 Alpha  occ. eigenvalues --   -0.43813  -0.43439  -0.43200  -0.42996  -0.42799
 Alpha  occ. eigenvalues --   -0.42655  -0.42433  -0.41999  -0.41895  -0.41871
 Alpha  occ. eigenvalues --   -0.41585  -0.41557  -0.41400  -0.41253  -0.41012
 Alpha  occ. eigenvalues --   -0.40854  -0.40557  -0.40289  -0.40110  -0.39992
 Alpha  occ. eigenvalues --   -0.39712  -0.39654  -0.39341  -0.39253  -0.38985
 Alpha  occ. eigenvalues --   -0.38878  -0.38614  -0.38551  -0.37755  -0.37453
 Alpha  occ. eigenvalues --   -0.37351  -0.37162  -0.37118  -0.36884  -0.36684
 Alpha  occ. eigenvalues --   -0.36167  -0.35725  -0.35488  -0.35308  -0.35138
 Alpha  occ. eigenvalues --   -0.35001  -0.34916  -0.34381  -0.33727  -0.33339
 Alpha  occ. eigenvalues --   -0.33220  -0.33050  -0.32653  -0.31157  -0.29499
 Alpha  occ. eigenvalues --   -0.29405  -0.28959  -0.28640  -0.28179  -0.23837
 Alpha  occ. eigenvalues --   -0.22504
 Alpha virt. eigenvalues --   -0.07258  -0.02940   0.01818   0.03487   0.04367
 Alpha virt. eigenvalues --    0.04762   0.06263   0.06830   0.06935   0.07812
 Alpha virt. eigenvalues --    0.08596   0.10450   0.10571   0.10979   0.11237

 Mulliken charges:
               1
     1  Mg   0.815624
     2  C    0.082973
     3  C   -0.203255
     4  C   -0.180942
     5  C   -0.164747
     6  N   -0.644190
     7  C    0.290594
     8  C   -0.173301
     9  C   -0.153725
    10  C    0.367837
    11  C   -0.306579
    12  C   -0.139653
    13  C   -0.276356
    14  C    0.636028
    15  O   -0.498388
    16  O   -0.498226
    17  N   -0.747517
    18  C    0.267828
    19  C    0.044547
    20  C   -0.023590
    21  C    0.377255
    22  C   -0.387764
    23  C   -0.071630
    24  C   -0.243309
    25  N   -0.702538
    26  C    0.285006
    27  C    0.015500
    28  C    0.015663
    29  C    0.293374
    30  C   -0.356738
    31  C   -0.248024
    32  C   -0.291484
    33  N   -0.692668
    34  C    0.254098
    35  C    0.035265
    36  C    0.086131
    37  C    0.269615
    38  C   -0.367909
    39  C    0.316829
    40  O   -0.510997
    41  C   -0.297363
    42  C    0.601854
    43  O   -0.439086
    44  O   -0.456774
    45  C   -0.082085
    46  C    0.041882
    47  C   -0.135780
    48  C    0.154503
    49  C   -0.350424
    50  C   -0.239536
    51  C   -0.183088
    52  C   -0.182455
    53  C   -0.060376
    54  C   -0.290337
    55  C   -0.175811
    56  C   -0.170600
    57  C   -0.145415
    58  C   -0.052885
    59  C   -0.317494
    60  C   -0.172061
    61  C   -0.159363
    62  C   -0.159004
    63  C   -0.066274
    64  C   -0.306111
    65  C   -0.295816
    66  H    0.084099
    67  H    0.091795
    68  H    0.069794
    69  H    0.112792
    70  H    0.101281
    71  H    0.088943
    72  H    0.090804
    73  H    0.148666
    74  H    0.112855
    75  H    0.123966
    76  H    0.132309
    77  H    0.122998
    78  H    0.124057
    79  H    0.141395
    80  H    0.130399
    81  H    0.102536
    82  H    0.106038
    83  H    0.110885
    84  H    0.126536
    85  H    0.103200
    86  H    0.136864
    87  H    0.109079
    88  H    0.104144
    89  H    0.108328
    90  H    0.100038
    91  H    0.111531
    92  H    0.086210
    93  H    0.145409
    94  H    0.117318
    95  H    0.164274
    96  H    0.111936
    97  H    0.134186
    98  H    0.123246
    99  H    0.131946
   100  H    0.114090
   101  H    0.084318
   102  H    0.095508
   103  H    0.085313
   104  H    0.131475
   105  H    0.110764
   106  H    0.073616
   107  H    0.095244
   108  H    0.100315
   109  H    0.078128
   110  H    0.092771
   111  H    0.057863
   112  H    0.104841
   113  H    0.077259
   114  H    0.108577
   115  H    0.078374
   116  H    0.094434
   117  H    0.085418
   118  H    0.098392
   119  H    0.065868
   120  H    0.108052
   121  H    0.068671
   122  H    0.072020
   123  H    0.107733
   124  H    0.093221
   125  H    0.092695
   126  H    0.100324
   127  H    0.104827
   128  H    0.065611
   129  H    0.083947
   130  H    0.069364
   131  H    0.100920
   132  H    0.111244
   133  H    0.088830
   134  H    0.105889
   135  H    0.088546
   136  H    0.077035
   137  H    0.087911
 Sum of Mulliken charges =  -0.00000

 Dipole moment (field-independent basis, Debye):
    X=              0.7256    Y=              7.7220    Z=              1.4113  Tot=              7.8834
 Quadrupole moment (field-independent basis, Debye-Ang):
   XX=           -338.1961   YY=           -393.3104   ZZ=           -402.0882
   XY=            -51.0280   XZ=              6.3141   YZ=             -2.1997

 Normal termination of Gaussian 16 at Fri Jun 28 23:53:28 2019.
