 Gaussian 16, Revision A.03,
 Gaussian 16:  ES64L-G16RevA.03 25-Dec-2016

 -------------------------------------
 # td=(NStates=1) CAM-B3LYP/6-31G(d,p)
 -------------------------------------

 --
 TD
 --
 Symbolic Z-matrix:
 Charge =  0 Multiplicity = 1

                         Standard orientation:
 ---------------------------------------------------------------------
 Center     Atomic      Atomic             Coordinates (Angstroms)
 Number     Number       Type             X           Y           Z
 ---------------------------------------------------------------------
      1         12           0       -7.087031    0.484055    0.046825
      2          6           0       -4.920125   -1.879709    0.538262
      3          6           0       -4.850064    2.938759    1.054614
      4          6           0       -9.403444    2.923061   -0.389537
      5          6           0       -9.489320   -1.792751   -0.852303
      6          7           0       -5.090378    0.487372    0.686590
      7          6           0       -4.352736   -0.659678    0.842779
      8          6           0       -2.993064   -0.422196    1.169335
      9          6           0       -3.061152    1.136611    1.593206
     10          6           0       -4.380123    1.598161    0.985741
     11          6           0       -2.847086    1.398492    3.076388
     12          6           0       -1.923431   -0.706222    0.099629
     13          6           0       -0.493566   -0.460770    0.456061
     14          6           0        0.560827   -0.588499   -0.567274
     15          8           0        0.171892   -0.919670   -1.756419
     16          8           0        1.757265   -0.408346   -0.238423
     17          7           0       -7.179887    2.584026    0.300737
     18          6           0       -6.047966    3.320986    0.637049
     19          6           0       -6.417796    4.700582    0.783597
     20          6           0       -7.780683    4.793481    0.355976
     21          6           0       -8.160364    3.404870    0.039305
     22          6           0       -5.593012    5.814456    1.210088
     23          6           0       -8.539146    5.948248    0.135779
     24          6           0       -8.444966    7.079757    0.859647
     25          7           0       -9.223992    0.614478   -0.446368
     26          6           0       -9.927879    1.695050   -0.536119
     27          6           0      -11.292839    1.376450   -1.141947
     28          6           0      -11.186505    0.060311   -1.348157
     29          6           0       -9.943849   -0.407231   -0.909614
     30          6           0      -12.314104    2.383812   -1.284397
     31          6           0      -12.306321   -0.843966   -1.780705
     32          6           0      -12.200373   -1.174319   -3.342068
     33          7           0       -7.223655   -1.429037   -0.029318
     34          6           0       -8.231553   -2.255375   -0.489223
     35          6           0       -7.725154   -3.571571   -0.561115
     36          6           0       -6.453804   -3.542838   -0.102105
     37          6           0       -6.166429   -2.201264    0.167029
     38          6           0       -8.509409   -4.829787   -0.905930
     39          6           0       -5.297852   -4.256760    0.242633
     40          8           0       -5.079535   -5.498548    0.344558
     41          6           0       -4.156400   -3.274816    0.696031
     42          6           0       -3.537009   -3.621165    1.993909
     43          8           0       -3.727181   -2.997286    3.010368
     44          8           0       -2.715798   -4.667399    1.863202
     45          6           0       -2.107919   -5.093572    2.989274
     46          6           0        2.704995   -0.467046   -1.325209
     47          6           0        4.100382   -0.312508   -0.585164
     48          6           0        5.116538    0.476594   -0.993959
     49          6           0        5.035409    1.340941   -2.200378
     50          6           0        6.399239    0.335630   -0.279619
     51          6           0        7.684199   -0.170049   -1.017089
     52          6           0        8.994438   -0.096201   -0.100031
     53          6           0       10.102361   -0.624632   -0.857598
     54          6           0       10.147020   -2.112977   -1.215638
     55          6           0       11.498252   -0.381882    0.010964
     56          6           0       12.779781   -0.504876   -0.738358
     57          6           0       13.923726   -0.094946    0.151125
     58          6           0       15.263167   -0.303910   -0.473810
     59          6           0       15.700957   -1.628297   -0.931356
     60          6           0       16.438702    0.339197    0.420057
     61          6           0       17.779511    0.638182   -0.164472
     62          6           0       18.733591    1.344756    0.747015
     63          6           0       20.183213    1.335935    0.294455
     64          6           0       20.495964    1.991061   -1.087557
     65          6           0       21.097354    1.896180    1.365555
     66          1           0       -4.140710    3.587376    1.312399
     67          1           0      -10.110180    3.789344   -0.411577
     68          1           0      -10.274388   -2.520341   -1.208349
     69          1           0       -2.870240   -0.839139    2.111656
     70          1           0       -2.245591    1.674264    1.119289
     71          1           0       -2.053206    1.015470    3.609630
     72          1           0       -3.061778    2.490593    3.248146
     73          1           0       -3.649722    0.856746    3.666599
     74          1           0       -2.168259   -1.673020   -0.174531
     75          1           0       -2.037620    0.027546   -0.701829
     76          1           0       -0.589844    0.665687    0.838108
     77          1           0       -0.138863   -0.939733    1.386598
     78          1           0       -5.627901    6.902262    0.771873
     79          1           0       -5.584852    6.319916    2.136601
     80          1           0       -4.569321    5.359088    0.918802
     81          1           0       -9.250461    5.952756   -0.717691
     82          1           0       -9.188999    7.903086    0.747116
     83          1           0       -7.524434    7.081745    1.590733
     84          1           0      -12.126127    3.223237   -1.991269
     85          1           0      -13.286503    1.960388   -1.545290
     86          1           0      -12.471512    2.850342   -0.262899
     87          1           0      -12.236788   -1.926022   -1.266881
     88          1           0      -13.206827   -0.168645   -1.731681
     89          1           0      -12.847715   -1.797727   -3.810460
     90          1           0      -12.297902   -0.133618   -3.766089
     91          1           0      -11.175639   -1.587313   -3.720156
     92          1           0       -8.993070   -4.641321   -1.811989
     93          1           0       -7.824149   -5.581637   -0.827639
     94          1           0       -9.473753   -5.128646   -0.218265
     95          1           0       -3.409690   -3.402004   -0.015324
     96          1           0       -1.312392   -4.329598    3.445706
     97          1           0       -2.698823   -5.322391    3.860547
     98          1           0       -1.622317   -6.122501    2.837035
     99          1           0        2.543067   -1.360807   -1.991011
    100          1           0        2.595947    0.320982   -1.974754
    101          1           0        4.297166   -1.223466    0.125573
    102          1           0        3.892412    1.511197   -2.459473
    103          1           0        5.386360    2.354483   -2.209589
    104          1           0        5.275500    0.912473   -3.194201
    105          1           0        6.714042    1.366093    0.111576
    106          1           0        6.170270   -0.292476    0.524593
    107          1           0        7.548177   -1.222016   -1.469560
    108          1           0        7.847540    0.392904   -1.941187
    109          1           0        9.107342    0.814519    0.379996
    110          1           0        8.634631   -0.630371    0.625968
    111          1           0       10.356821   -0.103869   -1.860382
    112          1           0        9.266828   -2.327519   -1.956699
    113          1           0       10.863041   -2.354550   -1.700783
    114          1           0       10.138335   -2.705311   -0.170896
    115          1           0       11.285426    0.674359    0.101973
    116          1           0       11.431951   -0.937834    0.783528
    117          1           0       12.978727   -1.419298   -0.986423
    118          1           0       12.866036    0.063352   -1.827869
    119          1           0       13.839563    1.038397    0.346563
    120          1           0       13.893304   -0.721620    1.186214
    121          1           0       15.286955    0.160337   -1.417327
    122          1           0       15.227166   -2.283222    0.007024
    123          1           0       15.057103   -1.815997   -1.679284
    124          1           0       16.717414   -1.583269   -1.244942
    125          1           0       16.051044    1.226621    0.846109
    126          1           0       16.769116   -0.357767    1.217839
    127          1           0       18.179447   -0.248050   -0.628079
    128          1           0       17.442777    1.237971   -1.000508
    129          1           0       18.497289    2.472378    0.915931
    130          1           0       18.696329    0.906418    1.648678
    131          1           0       20.552506    0.352560    0.206648
    132          1           0       20.197996    2.974358   -0.889206
    133          1           0       21.485618    1.894610   -1.411654
    134          1           0       19.704803    1.657295   -1.654985
    135          1           0       21.017892    1.214605    2.258321
    136          1           0       22.079087    1.906734    1.096788
    137          1           0       20.886071    2.961554    1.528293
 ---------------------------------------------------------------------

 SCF Done:  E(RCAM-B3LYP) =  -2932.62445073     A.U. after   18 cycles

 Excitation energies and oscillator strengths:

 Excited State   1:      Singlet-A      1.9890 eV  623.35 nm  f=0.2694  <S**2>=0.000
     240 -> 243       -0.24585
     241 -> 242        0.65724
 This state for optimization and/or second-order correction.
 Total Energy, E(TD-HF/TD-DFT) =  -2932.55135591
 Copying the excited state density for this state as the 1-particle RhoCI density.

 The electronic state is 1-A.
 Alpha  occ. eigenvalues --  -46.84840 -19.28716 -19.27257 -19.21011 -19.19374
 Alpha  occ. eigenvalues --  -19.18696 -14.42185 -14.39165 -14.39120 -14.38725
 Alpha  occ. eigenvalues --  -10.39334 -10.39038 -10.34723 -10.32711 -10.31614
 Alpha  occ. eigenvalues --  -10.31027 -10.30228 -10.29092 -10.28996 -10.28942
 Alpha  occ. eigenvalues --  -10.28502 -10.28331 -10.28182 -10.28174 -10.28117
 Alpha  occ. eigenvalues --  -10.27996 -10.27973 -10.27908 -10.27710 -10.27657
 Alpha  occ. eigenvalues --  -10.27515 -10.27007 -10.26960 -10.26837 -10.26801
 Alpha  occ. eigenvalues --  -10.26617 -10.26582 -10.26581 -10.26519 -10.26461
 Alpha  occ. eigenvalues --  -10.26460 -10.26389 -10.26255 -10.26155 -10.26132
 Alpha  occ. eigenvalues --  -10.26121 -10.25768 -10.25739 -10.25720 -10.25266
 Alpha  occ. eigenvalues --  -10.25237 -10.25156 -10.24941 -10.24832 -10.24593
 Alpha  occ. eigenvalues --  -10.24510 -10.24445 -10.24441 -10.24185 -10.24001
 Alpha  occ. eigenvalues --  -10.23915 -10.23859 -10.23570 -10.23197 -10.22349
 Alpha  occ. eigenvalues --   -3.13897  -1.88600  -1.88120  -1.88091  -1.22061
 Alpha  occ. eigenvalues --   -1.20612  -1.10587  -1.08115  -1.06052  -1.05405
 Alpha  occ. eigenvalues --   -1.05174  -1.04659  -1.03693  -0.93230  -0.92150
 Alpha  occ. eigenvalues --   -0.91657  -0.90785  -0.90485  -0.90250  -0.89469
 Alpha  occ. eigenvalues --   -0.89303  -0.89122  -0.88370  -0.87663  -0.86675
 Alpha  occ. eigenvalues --   -0.85966  -0.85294  -0.84669  -0.83941  -0.83093
 Alpha  occ. eigenvalues --   -0.82556  -0.81974  -0.81610  -0.81102  -0.79088
 Alpha  occ. eigenvalues --   -0.78224  -0.78163  -0.77325  -0.76688  -0.76658
 Alpha  occ. eigenvalues --   -0.76235  -0.75956  -0.75468  -0.74626  -0.73246
 Alpha  occ. eigenvalues --   -0.72413  -0.71712  -0.69949  -0.69796  -0.69395
 Alpha  occ. eigenvalues --   -0.67597  -0.67166  -0.66070  -0.65641  -0.65419
 Alpha  occ. eigenvalues --   -0.65231  -0.65016  -0.64439  -0.63435  -0.63119
 Alpha  occ. eigenvalues --   -0.61710  -0.61120  -0.60744  -0.60659  -0.60057
 Alpha  occ. eigenvalues --   -0.59443  -0.58559  -0.58469  -0.58053  -0.57880
 Alpha  occ. eigenvalues --   -0.56810  -0.56577  -0.56465  -0.56051  -0.55720
 Alpha  occ. eigenvalues --   -0.55286  -0.55087  -0.54912  -0.54781  -0.54373
 Alpha  occ. eigenvalues --   -0.54055  -0.53707  -0.52985  -0.52414  -0.52150
 Alpha  occ. eigenvalues --   -0.51799  -0.51725  -0.51569  -0.51456  -0.50842
 Alpha  occ. eigenvalues --   -0.50694  -0.50516  -0.50322  -0.50286  -0.50223
 Alpha  occ. eigenvalues --   -0.49867  -0.49771  -0.49477  -0.48965  -0.48862
 Alpha  occ. eigenvalues --   -0.48782  -0.48644  -0.48486  -0.48109  -0.47728
 Alpha  occ. eigenvalues --   -0.47635  -0.47066  -0.46806  -0.46672  -0.46592
 Alpha  occ. eigenvalues --   -0.46487  -0.46125  -0.45817  -0.45482  -0.45013
 Alpha  occ. eigenvalues --   -0.44944  -0.44756  -0.44630  -0.44579  -0.44460
 Alpha  occ. eigenvalues --   -0.44427  -0.43923  -0.43715  -0.43634  -0.43470
 Alpha  occ. eigenvalues --   -0.43047  -0.43015  -0.42947  -0.42798  -0.42605
 Alpha  occ. eigenvalues --   -0.42277  -0.42090  -0.41811  -0.41739  -0.41717
 Alpha  occ. eigenvalues --   -0.41427  -0.41283  -0.41032  -0.40824  -0.40702
 Alpha  occ. eigenvalues --   -0.40111  -0.39828  -0.39576  -0.39396  -0.39080
 Alpha  occ. eigenvalues --   -0.38978  -0.38820  -0.38431  -0.38247  -0.37840
 Alpha  occ. eigenvalues --   -0.37639  -0.37266  -0.37209  -0.36772  -0.36628
 Alpha  occ. eigenvalues --   -0.36570  -0.36134  -0.35946  -0.35831  -0.35374
 Alpha  occ. eigenvalues --   -0.35242  -0.35173  -0.34785  -0.33935  -0.33198
 Alpha  occ. eigenvalues --   -0.33139  -0.32372  -0.31897  -0.31311  -0.30383
 Alpha  occ. eigenvalues --   -0.30064  -0.29600  -0.28695  -0.26510  -0.23394
 Alpha  occ. eigenvalues --   -0.20713
 Alpha virt. eigenvalues --   -0.06444  -0.03226   0.00889   0.04128   0.04711
 Alpha virt. eigenvalues --    0.05080   0.05839   0.05898   0.07116   0.07288
 Alpha virt. eigenvalues --    0.08424   0.10750   0.11261   0.11495   0.12042

 Mulliken charges:
               1
     1  Mg   0.839101
     2  C    0.044520
     3  C   -0.161658
     4  C   -0.181712
     5  C   -0.184907
     6  N   -0.652746
     7  C    0.325771
     8  C   -0.171909
     9  C   -0.180267
    10  C    0.311189
    11  C   -0.318093
    12  C   -0.135141
    13  C   -0.278493
    14  C    0.617743
    15  O   -0.546523
    16  O   -0.406654
    17  N   -0.703623
    18  C    0.330766
    19  C    0.044714
    20  C    0.003297
    21  C    0.318287
    22  C   -0.397373
    23  C   -0.083462
    24  C   -0.249186
    25  N   -0.650272
    26  C    0.290611
    27  C    0.051191
    28  C    0.046145
    29  C    0.284761
    30  C   -0.396345
    31  C   -0.252073
    32  C   -0.308259
    33  N   -0.793926
    34  C    0.299928
    35  C   -0.030410
    36  C    0.128850
    37  C    0.303848
    38  C   -0.345438
    39  C    0.296855
    40  O   -0.495758
    41  C   -0.310612
    42  C    0.640634
    43  O   -0.474239
    44  O   -0.397638
    45  C   -0.093219
    46  C   -0.004511
    47  C   -0.158978
    48  C    0.154991
    49  C   -0.385234
    50  C   -0.228473
    51  C   -0.203962
    52  C   -0.149714
    53  C   -0.094999
    54  C   -0.263715
    55  C   -0.167852
    56  C   -0.172575
    57  C   -0.161947
    58  C   -0.073154
    59  C   -0.282399
    60  C   -0.182671
    61  C   -0.192574
    62  C   -0.147922
    63  C   -0.089433
    64  C   -0.309517
    65  C   -0.304678
    66  H    0.075460
    67  H    0.070645
    68  H    0.089844
    69  H    0.141696
    70  H    0.096426
    71  H    0.126866
    72  H    0.105052
    73  H    0.111955
    74  H    0.116813
    75  H    0.125407
    76  H    0.111698
    77  H    0.125072
    78  H    0.112251
    79  H    0.141070
    80  H    0.097384
    81  H    0.097365
    82  H    0.108254
    83  H    0.083466
    84  H    0.127755
    85  H    0.111151
    86  H    0.126449
    87  H    0.096706
    88  H    0.104545
    89  H    0.115566
    90  H    0.096779
    91  H    0.091005
    92  H    0.127435
    93  H    0.150694
    94  H    0.102094
    95  H    0.168967
    96  H    0.091339
    97  H    0.131121
    98  H    0.114611
    99  H    0.151995
   100  H    0.130502
   101  H    0.095582
   102  H    0.090775
   103  H    0.124866
   104  H    0.134021
   105  H    0.090871
   106  H    0.104500
   107  H    0.092126
   108  H    0.094703
   109  H    0.099556
   110  H    0.111385
   111  H    0.071995
   112  H    0.074428
   113  H    0.113522
   114  H    0.074224
   115  H    0.094594
   116  H    0.097547
   117  H    0.107462
   118  H    0.062004
   119  H    0.088811
   120  H    0.069543
   121  H    0.080953
   122  H    0.064255
   123  H    0.108461
   124  H    0.109962
   125  H    0.087361
   126  H    0.076395
   127  H    0.092348
   128  H    0.091834
   129  H    0.075554
   130  H    0.101674
   131  H    0.086434
   132  H    0.098753
   133  H    0.108320
   134  H    0.107833
   135  H    0.088692
   136  H    0.103672
   137  H    0.090582
 Sum of Mulliken charges =  -0.00000

 Dipole moment (field-independent basis, Debye):
    X=              2.6227    Y=              4.7619    Z=             -0.5686  Tot=              5.4661
 Quadrupole moment (field-independent basis, Debye-Ang):
   XX=           -353.5284   YY=           -399.0943   ZZ=           -397.0229
   XY=            -23.0481   XZ=              8.4475   YZ=             -1.0227

 Normal termination of Gaussian 16 at Sun Jun 30 11:17:25 2019.
