 Gaussian 09, Revision D.01,
 Gaussian 09:  ES64L-G09RevD.01 24-Apr-2013

 -------------------------------------
 # td=(NStates=1) CAM-B3LYP/6-31G(d,p)
 -------------------------------------

 --
 TD
 --
 Symbolic Z-matrix:
 Charge =  0 Multiplicity = 1

                         Standard orientation:
 ---------------------------------------------------------------------
 Center     Atomic      Atomic             Coordinates (Angstroms)
 Number     Number       Type             X           Y           Z
 ---------------------------------------------------------------------
      1         12           0       -7.142153    0.677451    0.040997
      2          6           0       -4.872409   -1.870478    0.490060
      3          6           0       -4.857883    2.854219    1.015240
      4          6           0       -9.492245    3.103181   -0.542891
      5          6           0       -9.574481   -1.804281   -0.780852
      6          7           0       -5.090787    0.565595    0.619153
      7          6           0       -4.301542   -0.624187    0.782370
      8          6           0       -2.886911   -0.315296    1.228801
      9          6           0       -3.023019    1.171356    1.582977
     10          6           0       -4.444842    1.595658    1.022694
     11          6           0       -2.893268    1.302163    3.078838
     12          6           0       -1.753555   -0.706050    0.199180
     13          6           0       -0.364122   -0.403609    0.675769
     14          6           0        0.561573   -0.818076   -0.460306
     15          8           0        0.283824   -1.213562   -1.604348
     16          8           0        1.841472   -0.597538   -0.070077
     17          7           0       -7.230766    2.597878    0.304103
     18          6           0       -6.110289    3.432600    0.717154
     19          6           0       -6.536339    4.812491    0.655712
     20          6           0       -7.811835    4.788521    0.222920
     21          6           0       -8.260811    3.460126    0.085804
     22          6           0       -5.613347    5.908870    1.084736
     23          6           0       -8.770448    5.868903    0.099368
     24          6           0       -8.731779    7.048091    0.784745
     25          7           0       -9.077090    0.712752   -0.393495
     26          6           0       -9.966535    1.763346   -0.701466
     27          6           0      -11.250604    1.360250   -1.129056
     28          6           0      -11.260513   -0.040373   -1.232114
     29          6           0       -9.928501   -0.414525   -0.707502
     30          6           0      -12.350700    2.438987   -1.416046
     31          6           0      -12.355977   -0.975553   -1.728560
     32          6           0      -12.164350   -1.122899   -3.311425
     33          7           0       -7.256172   -1.337941   -0.109194
     34          6           0       -8.232222   -2.238522   -0.579685
     35          6           0       -7.717157   -3.583603   -0.487136
     36          6           0       -6.501532   -3.497208    0.012764
     37          6           0       -6.221388   -2.075554    0.212968
     38          6           0       -8.667860   -4.798955   -0.747038
     39          6           0       -5.284107   -4.327009    0.230284
     40          8           0       -5.113261   -5.557614    0.087109
     41          6           0       -4.162960   -3.237868    0.533189
     42          6           0       -3.548624   -3.629982    1.937225
     43          8           0       -3.766153   -3.150434    3.018091
     44          8           0       -2.654306   -4.594673    1.742850
     45          6           0       -2.031529   -5.040576    2.945208
     46          6           0        2.929632   -0.934903   -0.999454
     47          6           0        4.201412   -0.533965   -0.376611
     48          6           0        5.170981    0.299536   -0.862507
     49          6           0        5.059884    1.054505   -2.062941
     50          6           0        6.524695    0.439099   -0.215680
     51          6           0        7.734795   -0.169056   -0.997023
     52          6           0        8.973317   -0.233354   -0.029681
     53          6           0       10.171259   -0.560112   -0.958607
     54          6           0       10.088397   -1.984494   -1.396942
     55          6           0       11.510730   -0.276344   -0.119760
     56          6           0       12.756178   -0.583016   -0.823272
     57          6           0       13.944954   -0.161350    0.083687
     58          6           0       15.346441   -0.204645   -0.513757
     59          6           0       15.803245   -1.608846   -0.882822
     60          6           0       16.424562    0.374830    0.405345
     61          6           0       17.751301    0.717316   -0.202116
     62          6           0       18.736370    1.375428    0.863881
     63          6           0       20.180104    1.429013    0.234045
     64          6           0       20.248071    2.272007   -1.131065
     65          6           0       21.198229    2.023158    1.252354
     66          1           0       -4.034096    3.574134    1.211766
     67          1           0      -10.174854    4.123930   -1.110137
     68          1           0      -10.337223   -2.445544   -1.138634
     69          1           0       -2.760711   -1.023060    2.007077
     70          1           0       -2.335089    1.803219    1.044679
     71          1           0       -1.883010    1.208312    3.375870
     72          1           0       -3.091489    2.571719    3.343240
     73          1           0       -3.817281    0.772776    3.455655
     74          1           0       -1.907431   -1.663402   -0.540666
     75          1           0       -1.880006   -0.013532   -0.710036
     76          1           0       -0.253392    0.548118    1.185921
     77          1           0       -0.037002   -1.180099    1.452742
     78          1           0       -6.025186    6.832868    0.730019
     79          1           0       -5.515713    5.980667    2.141305
     80          1           0       -4.642212    5.704316    0.661610
     81          1           0       -9.283640    5.838292   -0.817068
     82          1           0       -9.455500    7.821732    0.601675
     83          1           0       -8.146048    7.363854    1.624359
     84          1           0      -12.016067    3.277505   -2.111879
     85          1           0      -13.345012    2.039992   -1.706715
     86          1           0      -12.493770    3.045238   -0.553684
     87          1           0      -12.438427   -1.898055   -1.239980
     88          1           0      -13.413388   -0.624635   -1.488073
     89          1           0      -13.052686   -1.585911   -3.548350
     90          1           0      -12.359170   -0.100214   -3.809166
     91          1           0      -11.415333   -1.690563   -3.625870
     92          1           0       -9.010648   -4.862937   -1.728033
     93          1           0       -8.115314   -5.743173   -0.761302
     94          1           0       -9.666612   -4.855942   -0.099798
     95          1           0       -3.304913   -3.170744   -0.180205
     96          1           0       -1.419088   -4.251877    3.630047
     97          1           0       -2.998696   -5.443457    3.433054
     98          1           0       -1.316282   -5.921922    2.674514
     99          1           0        2.800120   -1.961529   -1.294313
    100          1           0        2.650759   -0.547843   -2.054682
    101          1           0        4.499208   -1.079754    0.424124
    102          1           0        4.063291    1.106188   -2.331485
    103          1           0        5.761773    1.899080   -1.929699
    104          1           0        5.449752    0.395108   -3.016340
    105          1           0        6.860477    1.496399   -0.026449
    106          1           0        6.464563   -0.019860    0.926391
    107          1           0        7.568309   -1.340323   -1.232198
    108          1           0        7.909690    0.277158   -1.908911
    109          1           0        9.233257    0.790290    0.648490
    110          1           0        8.962940   -1.119556    0.749901
    111          1           0       10.313013    0.259370   -1.882942
    112          1           0        9.255762   -2.249807   -1.987191
    113          1           0       11.091464   -2.565077   -1.620705
    114          1           0        9.812546   -2.374312   -0.436334
    115          1           0       11.601210    0.881313    0.114270
    116          1           0       11.352422   -0.616869    0.990618
    117          1           0       12.828830   -1.571374   -1.260064
    118          1           0       12.821980    0.103507   -1.915272
    119          1           0       13.707872    0.791388    0.553602
    120          1           0       13.927917   -0.956340    0.972108
    121          1           0       15.426408    0.418508   -1.449035
    122          1           0       15.858430   -2.288188   -0.195779
    123          1           0       15.035645   -1.834910   -1.480151
    124          1           0       16.576348   -1.529674   -1.764557
    125          1           0       16.131505    1.234386    0.783430
    126          1           0       16.694185   -0.395240    1.107171
    127          1           0       18.159671   -0.364921   -0.522365
    128          1           0       17.924297    1.609920   -1.002227
    129          1           0       18.243540    2.486680    0.946728
    130          1           0       18.621298    0.898605    1.864229
    131          1           0       20.412170    0.458126   -0.081422
    132          1           0       19.753548    3.285525   -0.932934
    133          1           0       21.293018    2.484906   -1.131468
    134          1           0       19.787788    1.759711   -2.034664
    135          1           0       21.397129    1.219742    2.158134
    136          1           0       22.226464    2.145954    0.919954
    137          1           0       20.788952    3.081483    1.857123
 ---------------------------------------------------------------------

 SCF Done:  E(RCAM-B3LYP) =  -2932.61396056     A.U. after   18 cycles

 Excitation energies and oscillator strengths:

 Excited State   1:      Singlet-A      2.0034 eV  618.86 nm  f=0.2179  <S**2>=0.000
     240 -> 243       -0.25415
     241 -> 242        0.65549
 This state for optimization and/or second-order correction.
 Total Energy, E(TD-HF/TD-KS) =  -2932.54033617
 Copying the excited state density for this state as the 1-particle RhoCI density.

 The electronic state is 1-A.
 Alpha  occ. eigenvalues --  -46.82612 -19.26599 -19.25968 -19.21373 -19.21151
 Alpha  occ. eigenvalues --  -19.20816 -14.41435 -14.39557 -14.39396 -14.38673
 Alpha  occ. eigenvalues --  -10.39920 -10.39330 -10.35923 -10.33218 -10.32319
 Alpha  occ. eigenvalues --  -10.31065 -10.30134 -10.29791 -10.29256 -10.29237
 Alpha  occ. eigenvalues --  -10.29205 -10.28902 -10.28805 -10.28772 -10.28744
 Alpha  occ. eigenvalues --  -10.28738 -10.28445 -10.28207 -10.27962 -10.27820
 Alpha  occ. eigenvalues --  -10.27697 -10.27668 -10.27667 -10.27626 -10.27620
 Alpha  occ. eigenvalues --  -10.27507 -10.27482 -10.27436 -10.27421 -10.27144
 Alpha  occ. eigenvalues --  -10.27013 -10.26831 -10.26797 -10.26680 -10.26576
 Alpha  occ. eigenvalues --  -10.26512 -10.26386 -10.26313 -10.26246 -10.26222
 Alpha  occ. eigenvalues --  -10.26207 -10.26101 -10.26084 -10.26065 -10.25765
 Alpha  occ. eigenvalues --  -10.25484 -10.25295 -10.25272 -10.25203 -10.25169
 Alpha  occ. eigenvalues --  -10.24992 -10.24954 -10.24646 -10.22700 -10.22467
 Alpha  occ. eigenvalues --   -3.12032  -1.86703  -1.86278  -1.86245  -1.19591
 Alpha  occ. eigenvalues --   -1.17116  -1.09816  -1.09176  -1.08013  -1.04808
 Alpha  occ. eigenvalues --   -1.03900  -1.02168  -1.00085  -0.92124  -0.92033
 Alpha  occ. eigenvalues --   -0.90982  -0.90497  -0.89828  -0.88914  -0.88418
 Alpha  occ. eigenvalues --   -0.87497  -0.87475  -0.87068  -0.86856  -0.86184
 Alpha  occ. eigenvalues --   -0.85331  -0.84458  -0.83499  -0.82864  -0.81989
 Alpha  occ. eigenvalues --   -0.81859  -0.80945  -0.80407  -0.80320  -0.78157
 Alpha  occ. eigenvalues --   -0.77980  -0.76972  -0.75922  -0.75824  -0.75453
 Alpha  occ. eigenvalues --   -0.74695  -0.74368  -0.74010  -0.73254  -0.72491
 Alpha  occ. eigenvalues --   -0.71733  -0.70367  -0.69995  -0.68674  -0.68166
 Alpha  occ. eigenvalues --   -0.66862  -0.66086  -0.65824  -0.64978  -0.64031
 Alpha  occ. eigenvalues --   -0.63450  -0.62905  -0.62866  -0.61878  -0.61693
 Alpha  occ. eigenvalues --   -0.61219  -0.60871  -0.60726  -0.59602  -0.58896
 Alpha  occ. eigenvalues --   -0.58304  -0.58031  -0.57538  -0.56850  -0.56614
 Alpha  occ. eigenvalues --   -0.55856  -0.55754  -0.55203  -0.55169  -0.54947
 Alpha  occ. eigenvalues --   -0.54617  -0.54068  -0.54015  -0.53824  -0.53207
 Alpha  occ. eigenvalues --   -0.52784  -0.52412  -0.52333  -0.52292  -0.51533
 Alpha  occ. eigenvalues --   -0.51325  -0.51042  -0.50871  -0.50546  -0.50392
 Alpha  occ. eigenvalues --   -0.50131  -0.49865  -0.49745  -0.49587  -0.49364
 Alpha  occ. eigenvalues --   -0.49107  -0.48966  -0.48857  -0.48501  -0.48054
 Alpha  occ. eigenvalues --   -0.47850  -0.47675  -0.47453  -0.47294  -0.47188
 Alpha  occ. eigenvalues --   -0.47100  -0.46974  -0.46180  -0.46126  -0.45810
 Alpha  occ. eigenvalues --   -0.45503  -0.45309  -0.44743  -0.44620  -0.44573
 Alpha  occ. eigenvalues --   -0.44508  -0.44386  -0.44224  -0.44145  -0.44071
 Alpha  occ. eigenvalues --   -0.43701  -0.43600  -0.43396  -0.43192  -0.43037
 Alpha  occ. eigenvalues --   -0.42866  -0.42670  -0.42504  -0.42309  -0.42293
 Alpha  occ. eigenvalues --   -0.41971  -0.41860  -0.41572  -0.41429  -0.41405
 Alpha  occ. eigenvalues --   -0.41154  -0.40873  -0.40672  -0.40448  -0.40413
 Alpha  occ. eigenvalues --   -0.40203  -0.39974  -0.39556  -0.39219  -0.39155
 Alpha  occ. eigenvalues --   -0.39072  -0.38568  -0.37931  -0.37719  -0.37631
 Alpha  occ. eigenvalues --   -0.37443  -0.37376  -0.36855  -0.36581  -0.36385
 Alpha  occ. eigenvalues --   -0.36333  -0.36093  -0.35929  -0.35779  -0.35116
 Alpha  occ. eigenvalues --   -0.35063  -0.34643  -0.34310  -0.34083  -0.33804
 Alpha  occ. eigenvalues --   -0.33429  -0.33046  -0.31631  -0.31271  -0.30388
 Alpha  occ. eigenvalues --   -0.29937  -0.29378  -0.28111  -0.27507  -0.22912
 Alpha  occ. eigenvalues --   -0.20807
 Alpha virt. eigenvalues --   -0.06136  -0.03030   0.01100   0.04223   0.04300
 Alpha virt. eigenvalues --    0.05507   0.05727   0.06741   0.07502   0.07675
 Alpha virt. eigenvalues --    0.07902   0.09973   0.10862   0.11159   0.11386

 Mulliken charges:
               1
     1  Mg   0.808890
     2  C    0.032866
     3  C   -0.227451
     4  C   -0.189919
     5  C   -0.150554
     6  N   -0.634424
     7  C    0.257908
     8  C   -0.135199
     9  C   -0.165955
    10  C    0.394291
    11  C   -0.269506
    12  C   -0.206709
    13  C   -0.252724
    14  C    0.622263
    15  O   -0.493925
    16  O   -0.486114
    17  N   -0.706913
    18  C    0.285385
    19  C    0.032693
    20  C   -0.015200
    21  C    0.318949
    22  C   -0.362381
    23  C   -0.079265
    24  C   -0.250356
    25  N   -0.661614
    26  C    0.287180
    27  C    0.031756
    28  C    0.029774
    29  C    0.246473
    30  C   -0.374337
    31  C   -0.265686
    32  C   -0.309595
    33  N   -0.700455
    34  C    0.227383
    35  C    0.012354
    36  C   -0.004234
    37  C    0.334159
    38  C   -0.375393
    39  C    0.390357
    40  O   -0.470577
    41  C   -0.308417
    42  C    0.597228
    43  O   -0.467556
    44  O   -0.421186
    45  C   -0.079212
    46  C   -0.006235
    47  C   -0.119894
    48  C    0.149058
    49  C   -0.354979
    50  C   -0.249700
    51  C   -0.159030
    52  C   -0.169793
    53  C   -0.049282
    54  C   -0.308871
    55  C   -0.172995
    56  C   -0.155299
    57  C   -0.164298
    58  C   -0.073543
    59  C   -0.312787
    60  C   -0.140923
    61  C   -0.181296
    62  C   -0.169256
    63  C   -0.041005
    64  C   -0.324442
    65  C   -0.300310
    66  H    0.072229
    67  H    0.073514
    68  H    0.094999
    69  H    0.137864
    70  H    0.105048
    71  H    0.125949
    72  H    0.049319
    73  H    0.136539
    74  H    0.128715
    75  H    0.111217
    76  H    0.149509
    77  H    0.132430
    78  H    0.119474
    79  H    0.132105
    80  H    0.118459
    81  H    0.105339
    82  H    0.098580
    83  H    0.109394
    84  H    0.108447
    85  H    0.109154
    86  H    0.133563
    87  H    0.117986
    88  H    0.104037
    89  H    0.111766
    90  H    0.110822
    91  H    0.128096
    92  H    0.127954
    93  H    0.139149
    94  H    0.113173
    95  H    0.161149
    96  H    0.116117
    97  H    0.132117
    98  H    0.119328
    99  H    0.134570
   100  H    0.116045
   101  H    0.085314
   102  H    0.128667
   103  H    0.115534
   104  H    0.099095
   105  H    0.105567
   106  H    0.077734
   107  H    0.085642
   108  H    0.120121
   109  H    0.068013
   110  H    0.094133
   111  H    0.057578
   112  H    0.116828
   113  H    0.096988
   114  H    0.102990
   115  H    0.080211
   116  H    0.079076
   117  H    0.104875
   118  H    0.046835
   119  H    0.095360
   120  H    0.069567
   121  H    0.077128
   122  H    0.109963
   123  H    0.109076
   124  H    0.093336
   125  H    0.085054
   126  H    0.090268
   127  H    0.066598
   128  H    0.079770
   129  H    0.063101
   130  H    0.089148
   131  H    0.106897
   132  H    0.095094
   133  H    0.108728
   134  H    0.111563
   135  H    0.075169
   136  H    0.108582
   137  H    0.076073
 Sum of Mulliken charges =   0.00000

 Dipole moment (field-independent basis, Debye):
    X=              2.2327    Y=              3.5212    Z=             -0.5288  Tot=              4.2028
 Quadrupole moment (field-independent basis, Debye-Ang):
   XX=           -345.6328   YY=           -395.0953   ZZ=           -399.9501
   XY=            -23.4714   XZ=             18.2505   YZ=             -0.1377

 Normal termination of Gaussian 09 at Sat Jul  6 22:07:39 2019.
