 Gaussian 09, Revision D.01,
 Gaussian 09:  ES64L-G09RevD.01 24-Apr-2013

 -------------------------------------
 # td=(NStates=1) CAM-B3LYP/6-31G(d,p)
 -------------------------------------

 --
 TD
 --
 Symbolic Z-matrix:
 Charge =  0 Multiplicity = 1

                         Standard orientation:
 ---------------------------------------------------------------------
 Center     Atomic      Atomic             Coordinates (Angstroms)
 Number     Number       Type             X           Y           Z
 ---------------------------------------------------------------------
      1         12           0       -7.075387    0.561500   -0.023852
      2          6           0       -4.893459   -1.967468    0.445452
      3          6           0       -4.783417    2.868283    1.190318
      4          6           0       -9.392713    3.114835   -0.363635
      5          6           0       -9.651730   -1.760032   -0.904762
      6          7           0       -5.060237    0.442062    0.550812
      7          6           0       -4.371596   -0.693717    0.738017
      8          6           0       -2.987778   -0.455862    1.202730
      9          6           0       -2.999911    0.985372    1.614837
     10          6           0       -4.311680    1.502331    1.165303
     11          6           0       -2.858716    1.101507    3.148795
     12          6           0       -1.942818   -0.798796    0.048293
     13          6           0       -0.471075   -0.550271    0.440326
     14          6           0        0.575721   -0.672730   -0.584646
     15          8           0        0.277065   -0.878600   -1.727439
     16          8           0        1.823760   -0.424563   -0.175462
     17          7           0       -7.027077    2.643958    0.321982
     18          6           0       -5.922141    3.325344    0.820339
     19          6           0       -6.342750    4.765358    0.828769
     20          6           0       -7.657012    4.845535    0.357135
     21          6           0       -8.028419    3.447331    0.060590
     22          6           0       -5.440156    5.898070    1.195806
     23          6           0       -8.476773    6.058673    0.282527
     24          6           0       -8.283506    7.284093    0.919966
     25          7           0       -9.123532    0.654660   -0.596711
     26          6           0       -9.847945    1.919136   -0.727176
     27          6           0      -11.233510    1.513398   -1.178015
     28          6           0      -11.228771    0.178590   -1.286429
     29          6           0       -9.969986   -0.365038   -0.891575
     30          6           0      -12.330451    2.494690   -1.395156
     31          6           0      -12.378441   -0.615248   -1.696105
     32          6           0      -12.563236   -0.822657   -3.180194
     33          7           0       -7.339394   -1.374966   -0.144499
     34          6           0       -8.346387   -2.191853   -0.545516
     35          6           0       -7.914873   -3.577326   -0.390046
     36          6           0       -6.564474   -3.561746    0.026589
     37          6           0       -6.266713   -2.154584    0.143453
     38          6           0       -8.747366   -4.840307   -0.809341
     39          6           0       -5.379012   -4.412291    0.204244
     40          8           0       -5.214614   -5.578036    0.191895
     41          6           0       -4.225875   -3.299050    0.491974
     42          6           0       -3.452350   -3.589196    1.832125
     43          8           0       -3.785602   -3.068371    2.924536
     44          8           0       -2.643377   -4.602585    1.759613
     45          6           0       -2.258822   -5.260424    3.041244
     46          6           0        2.849122   -0.548545   -1.204841
     47          6           0        4.195694   -0.370879   -0.594839
     48          6           0        5.245904    0.256367   -1.054647
     49          6           0        5.287150    1.224958   -2.253466
     50          6           0        6.445966    0.273612   -0.204211
     51          6           0        7.633779   -0.273884   -0.886143
     52          6           0        8.940687   -0.441442   -0.117645
     53          6           0       10.197732   -0.782086   -0.920075
     54          6           0       10.178580   -2.323576   -1.231261
     55          6           0       11.507888   -0.526067   -0.081288
     56          6           0       12.740150   -0.649861   -0.712687
     57          6           0       13.946070   -0.119623    0.188727
     58          6           0       15.315741   -0.241071   -0.377821
     59          6           0       15.772655   -1.613433   -0.744873
     60          6           0       16.367223    0.437297    0.523007
     61          6           0       17.823588    0.523512    0.008173
     62          6           0       18.739080    1.447340    0.788406
     63          6           0       20.093478    1.642627    0.158914
     64          6           0       20.190510    2.303132   -1.288096
     65          6           0       21.013159    2.233885    1.156639
     66          1           0       -4.070471    3.586043    1.842690
     67          1           0       -9.877981    4.184585   -0.296257
     68          1           0      -10.513579   -2.369982   -1.166607
     69          1           0       -2.531475   -1.069308    1.993584
     70          1           0       -2.169326    1.569107    1.060764
     71          1           0       -1.777189    0.939889    3.325055
     72          1           0       -3.010610    2.059354    3.594839
     73          1           0       -3.647185    0.457219    3.860179
     74          1           0       -2.027165   -1.792142   -0.335964
     75          1           0       -1.983347    0.020065   -0.893927
     76          1           0       -0.348223    0.437143    0.893751
     77          1           0       -0.231927   -1.210288    1.366415
     78          1           0       -5.643232    6.636933    0.595959
     79          1           0       -5.457999    6.246316    2.252559
     80          1           0       -4.430598    5.768811    0.956956
     81          1           0       -9.419164    5.883116   -0.323727
     82          1           0       -9.102505    8.097442    0.903955
     83          1           0       -7.253480    7.495323    1.536924
     84          1           0      -12.137486    3.311714   -2.177234
     85          1           0      -13.319506    1.970885   -1.693231
     86          1           0      -12.484935    2.992504   -0.378762
     87          1           0      -12.508781   -1.768936   -1.394671
     88          1           0      -13.420745   -0.196357   -1.482765
     89          1           0      -13.331164   -1.549956   -3.463094
     90          1           0      -12.685291    0.087852   -3.851694
     91          1           0      -11.725841   -1.219627   -3.612104
     92          1           0       -8.888788   -4.782974   -1.941376
     93          1           0       -8.040558   -5.786873   -0.808123
     94          1           0       -9.619794   -5.248394   -0.325927
     95          1           0       -3.452799   -3.545866   -0.228794
     96          1           0       -1.655156   -4.417826    3.592523
     97          1           0       -3.262306   -5.649355    3.481106
     98          1           0       -1.613956   -6.144999    2.999775
     99          1           0        2.778313   -1.556457   -1.559341
    100          1           0        2.723182   -0.022091   -2.133202
    101          1           0        4.288964   -0.988221    0.256382
    102          1           0        4.208402    1.312406   -2.678487
    103          1           0        5.594819    2.142496   -1.842618
    104          1           0        6.029127    0.894041   -3.066424
    105          1           0        6.521575    1.332126    0.216491
    106          1           0        6.286630   -0.265821    0.689906
    107          1           0        7.339876   -1.248951   -1.335537
    108          1           0        7.854745    0.296010   -2.004666
    109          1           0        9.242079    0.718736    0.329969
    110          1           0        8.706634   -1.142095    0.654986
    111          1           0       10.268447   -0.154284   -1.875858
    112          1           0        9.215575   -2.688807   -1.787397
    113          1           0       11.003871   -2.662119   -1.872682
    114          1           0       10.207218   -2.827149   -0.360542
    115          1           0       11.386257    0.460215    0.305427
    116          1           0       11.432869   -1.000097    0.901944
    117          1           0       13.011063   -1.769549   -0.931098
    118          1           0       12.799720   -0.139232   -1.576661
    119          1           0       13.949018    1.041921    0.603656
    120          1           0       14.039587   -0.897431    1.070167
    121          1           0       15.326745    0.279076   -1.189356
    122          1           0       16.071563   -2.476265    0.173449
    123          1           0       14.813956   -2.173073   -1.102305
    124          1           0       16.651973   -1.720679   -1.430598
    125          1           0       15.863343    1.373300    0.673319
    126          1           0       16.218886   -0.383067    1.405672
    127          1           0       18.098400   -0.466611   -0.085621
    128          1           0       17.573858    0.972757   -1.035514
    129          1           0       18.402942    2.563206    0.841775
    130          1           0       18.942645    0.966636    1.817064
    131          1           0       20.309753    0.611973    0.029978
    132          1           0       19.812300    3.314160   -1.251385
    133          1           0       21.155085    2.487576   -1.547800
    134          1           0       19.479285    1.906667   -2.105343
    135          1           0       20.807060    1.697768    2.211670
    136          1           0       22.068622    2.183215    0.769346
    137          1           0       21.040567    3.158248    1.129204
 ---------------------------------------------------------------------

 SCF Done:  E(RCAM-B3LYP) =  -2932.64744488     A.U. after   16 cycles

 Excitation energies and oscillator strengths:

 Excited State   1:      Singlet-A      1.8018 eV  688.12 nm  f=0.2858  <S**2>=0.000
     240 -> 243       -0.21031
     241 -> 242        0.67325
     240 <- 243       -0.10386
 This state for optimization and/or second-order correction.
 Total Energy, E(TD-HF/TD-KS) =  -2932.58123061
 Copying the excited state density for this state as the 1-particle RhoCI density.

 The electronic state is 1-A.
 Alpha  occ. eigenvalues --  -46.84523 -19.27341 -19.26702 -19.21702 -19.20364
 Alpha  occ. eigenvalues --  -19.19473 -14.42887 -14.39719 -14.39398 -14.39026
 Alpha  occ. eigenvalues --  -10.39193 -10.38857 -10.36049 -10.33938 -10.31464
 Alpha  occ. eigenvalues --  -10.31357 -10.30689 -10.29789 -10.29619 -10.29361
 Alpha  occ. eigenvalues --  -10.29322 -10.28918 -10.28887 -10.28667 -10.28610
 Alpha  occ. eigenvalues --  -10.28432 -10.28338 -10.28239 -10.28160 -10.27962
 Alpha  occ. eigenvalues --  -10.27471 -10.27451 -10.27421 -10.27260 -10.27238
 Alpha  occ. eigenvalues --  -10.27216 -10.27212 -10.27077 -10.27070 -10.27056
 Alpha  occ. eigenvalues --  -10.27048 -10.27044 -10.26929 -10.26917 -10.26894
 Alpha  occ. eigenvalues --  -10.26753 -10.26607 -10.26466 -10.26425 -10.25889
 Alpha  occ. eigenvalues --  -10.25762 -10.25603 -10.25369 -10.25343 -10.25122
 Alpha  occ. eigenvalues --  -10.25113 -10.25110 -10.24881 -10.24500 -10.24481
 Alpha  occ. eigenvalues --  -10.24070 -10.23970 -10.23941 -10.23715 -10.23666
 Alpha  occ. eigenvalues --   -3.13521  -1.88230  -1.87785  -1.87670  -1.18884
 Alpha  occ. eigenvalues --   -1.18690  -1.14058  -1.09673  -1.06507  -1.04741
 Alpha  occ. eigenvalues --   -1.03794  -1.03251  -1.00978  -0.92455  -0.92371
 Alpha  occ. eigenvalues --   -0.91816  -0.90327  -0.90193  -0.89349  -0.89246
 Alpha  occ. eigenvalues --   -0.88534  -0.88170  -0.87368  -0.86839  -0.86072
 Alpha  occ. eigenvalues --   -0.85531  -0.83995  -0.83292  -0.83099  -0.82376
 Alpha  occ. eigenvalues --   -0.82175  -0.81320  -0.80810  -0.80005  -0.77894
 Alpha  occ. eigenvalues --   -0.77716  -0.77101  -0.76726  -0.76595  -0.76372
 Alpha  occ. eigenvalues --   -0.75087  -0.74918  -0.74632  -0.74036  -0.72330
 Alpha  occ. eigenvalues --   -0.71915  -0.70954  -0.69947  -0.68959  -0.68223
 Alpha  occ. eigenvalues --   -0.66826  -0.66418  -0.65487  -0.64872  -0.64646
 Alpha  occ. eigenvalues --   -0.63906  -0.63595  -0.63485  -0.62600  -0.62378
 Alpha  occ. eigenvalues --   -0.62070  -0.61064  -0.60062  -0.59874  -0.59075
 Alpha  occ. eigenvalues --   -0.58758  -0.57827  -0.57613  -0.56974  -0.56856
 Alpha  occ. eigenvalues --   -0.56395  -0.55832  -0.55336  -0.55275  -0.55020
 Alpha  occ. eigenvalues --   -0.54632  -0.54399  -0.54105  -0.54016  -0.53239
 Alpha  occ. eigenvalues --   -0.53015  -0.52939  -0.52399  -0.51949  -0.51895
 Alpha  occ. eigenvalues --   -0.51319  -0.51134  -0.50914  -0.50731  -0.50570
 Alpha  occ. eigenvalues --   -0.50541  -0.50099  -0.49976  -0.49677  -0.49448
 Alpha  occ. eigenvalues --   -0.49422  -0.49258  -0.48895  -0.48850  -0.48520
 Alpha  occ. eigenvalues --   -0.48066  -0.47979  -0.47759  -0.47471  -0.47342
 Alpha  occ. eigenvalues --   -0.47175  -0.46740  -0.46500  -0.46450  -0.46174
 Alpha  occ. eigenvalues --   -0.45785  -0.45630  -0.45523  -0.45486  -0.44959
 Alpha  occ. eigenvalues --   -0.44880  -0.44852  -0.44399  -0.44325  -0.44142
 Alpha  occ. eigenvalues --   -0.44027  -0.43823  -0.43427  -0.43292  -0.43236
 Alpha  occ. eigenvalues --   -0.43158  -0.42800  -0.42527  -0.42430  -0.42280
 Alpha  occ. eigenvalues --   -0.42227  -0.42001  -0.41896  -0.41680  -0.41584
 Alpha  occ. eigenvalues --   -0.41510  -0.41014  -0.40556  -0.40064  -0.39942
 Alpha  occ. eigenvalues --   -0.39686  -0.39625  -0.39304  -0.39196  -0.39129
 Alpha  occ. eigenvalues --   -0.38907  -0.38832  -0.38402  -0.38025  -0.37888
 Alpha  occ. eigenvalues --   -0.37699  -0.37207  -0.36977  -0.36948  -0.36642
 Alpha  occ. eigenvalues --   -0.36562  -0.36427  -0.35891  -0.35814  -0.35637
 Alpha  occ. eigenvalues --   -0.35067  -0.34844  -0.33981  -0.33610  -0.32976
 Alpha  occ. eigenvalues --   -0.32912  -0.32485  -0.32121  -0.30924  -0.30668
 Alpha  occ. eigenvalues --   -0.30534  -0.29967  -0.28091  -0.26636  -0.23347
 Alpha  occ. eigenvalues --   -0.19865
 Alpha virt. eigenvalues --   -0.06635  -0.02807   0.01164   0.03121   0.05351
 Alpha virt. eigenvalues --    0.05737   0.06402   0.06736   0.07099   0.07385
 Alpha virt. eigenvalues --    0.08251   0.10737   0.11546   0.11667   0.11798

 Mulliken charges:
               1
     1  Mg   0.830717
     2  C    0.090215
     3  C   -0.217826
     4  C   -0.149446
     5  C   -0.157030
     6  N   -0.640256
     7  C    0.356381
     8  C   -0.139853
     9  C   -0.160627
    10  C    0.294501
    11  C   -0.311260
    12  C   -0.170250
    13  C   -0.285580
    14  C    0.624488
    15  O   -0.470698
    16  O   -0.483186
    17  N   -0.726835
    18  C    0.358305
    19  C   -0.009514
    20  C    0.002729
    21  C    0.311817
    22  C   -0.385500
    23  C   -0.075663
    24  C   -0.261825
    25  N   -0.700735
    26  C    0.262919
    27  C    0.046185
    28  C    0.064742
    29  C    0.322898
    30  C   -0.372364
    31  C   -0.281886
    32  C   -0.314248
    33  N   -0.751638
    34  C    0.293900
    35  C   -0.014730
    36  C    0.005135
    37  C    0.293497
    38  C   -0.391916
    39  C    0.388425
    40  O   -0.419371
    41  C   -0.338515
    42  C    0.593281
    43  O   -0.506879
    44  O   -0.438454
    45  C   -0.079432
    46  C    0.008589
    47  C   -0.145015
    48  C    0.128935
    49  C   -0.350301
    50  C   -0.214140
    51  C   -0.165497
    52  C   -0.150365
    53  C   -0.061817
    54  C   -0.314351
    55  C   -0.167377
    56  C   -0.161786
    57  C   -0.174928
    58  C   -0.052556
    59  C   -0.304672
    60  C   -0.157481
    61  C   -0.172247
    62  C   -0.157257
    63  C   -0.044880
    64  C   -0.336038
    65  C   -0.291587
    66  H    0.095003
    67  H    0.086150
    68  H    0.101664
    69  H    0.137276
    70  H    0.113235
    71  H    0.104730
    72  H    0.113471
    73  H    0.119210
    74  H    0.126008
    75  H    0.092383
    76  H    0.133655
    77  H    0.111821
    78  H    0.137415
    79  H    0.116766
    80  H    0.112223
    81  H    0.089370
    82  H    0.108143
    83  H    0.098200
    84  H    0.120345
    85  H    0.107385
    86  H    0.122021
    87  H    0.093770
    88  H    0.105457
    89  H    0.099660
    90  H    0.092633
    91  H    0.115902
    92  H    0.120773
    93  H    0.124187
    94  H    0.133952
    95  H    0.150140
    96  H    0.132452
    97  H    0.143934
    98  H    0.138385
    99  H    0.129939
   100  H    0.125980
   101  H    0.089164
   102  H    0.099545
   103  H    0.129863
   104  H    0.118867
   105  H    0.095465
   106  H    0.103085
   107  H    0.100574
   108  H    0.047740
   109  H    0.050375
   110  H    0.100551
   111  H    0.079057
   112  H    0.080681
   113  H    0.102736
   114  H    0.116148
   115  H    0.091625
   116  H    0.089502
   117  H    0.087106
   118  H    0.104662
   119  H    0.069097
   120  H    0.076793
   121  H    0.095070
   122  H    0.049919
   123  H    0.085934
   124  H    0.111624
   125  H    0.080655
   126  H    0.059986
   127  H    0.109820
   128  H    0.077463
   129  H    0.076100
   130  H    0.084095
   131  H    0.088876
   132  H    0.095888
   133  H    0.115103
   134  H    0.100728
   135  H    0.087922
   136  H    0.080556
   137  H    0.114140
 Sum of Mulliken charges =   0.00000

 Dipole moment (field-independent basis, Debye):
    X=              3.2521    Y=              2.6034    Z=              0.3591  Tot=              4.1812
 Quadrupole moment (field-independent basis, Debye-Ang):
   XX=           -363.9585   YY=           -385.8073   ZZ=           -399.4260
   XY=             -6.1914   XZ=              2.9258   YZ=             -3.6914

 Normal termination of Gaussian 09 at Thu Jul  4 01:46:08 2019.
